                  Welcome to Q-Chem
     A Quantum Leap Into The Future Of Chemistry


 Q-Chem 5.4 (devel), Q-Chem, Inc., Pleasanton, CA (2021)

 E. Epifanovsky,  A. T. B. Gilbert,  Xintian Feng,  Joonho Lee,  Yuezhi Mao,  
 N. Mardirossian,  P. Pokhilko,  A. White,  M. Wormit,  M. P. Coons,  
 A. L. Dempwolff,  Zhengting Gan,  D. Hait,  P. R. Horn,  L. D. Jacobson,  
 I. Kaliman,  J. Kussmann,  A. W. Lange,  Ka Un Lao,  D. S. Levine,  Jie Liu,  
 S. C. McKenzie,  A. F. Morrison,  K. Nanda,  F. Plasser,  D. R. Rehn,  
 M. L. Vidal,  Zhi-Qiang You,  Ying Zhu,  B. Alam,  B. Albrecht,  
 A. Aldossary,  E. Alguire,  J. H. Andersen,  D. Barton,  K. Begam,  A. Behn,  
 Y. A. Bernard,  E. J. Berquist,  H. Burton,  A. Carreras,  K. Carter-Fenk,  
 R. Chakraborty,  A. D. Chien,  K. D. Closser,  V. Cofer-Shabica,  
 S. Dasgupta,  Jia Deng,  M. de Wergifosse,  M. Diedenhofen,  Hainam Do,  
 S. Ehlert,  Po-Tung Fang,  S. Fatehi,  Qingguo Feng,  T. Friedhoff,  
 J. Gayvert,  Qinghui Ge,  G. Gidofalvi,  M. Goldey,  J. Gomes,  
 C. Gonzalez-Espinoza,  S. Gulania,  A. Gunina,  M. W. D. Hanson-Heine,  
 P. H. P. Harbach,  A. W. Hauser,  M. F. Herbst,  M. Hernandez Vera,  
 M. Hodecker,  Z. C. Holden,  S. Houck,  Xunkun Huang,  Kerwin Hui,  
 B. C. Huynh,  M. Ivanov,  Hyunjun Ji,  Hanjie Jiang,  B. Kaduk,  S. Kaehler,  
 K. Khistyaev,  Jaehoon Kim,  P. Klunzinger,  Z. Koczor-Benda,  
 Joong Hoon Koh,  D. Kosenkov,  L. Koulias,  T. Kowalczyk,  C. M. Krauter,  
 K. Kue,  A. Kunitsa,  T. Kus,  A. Landau,  K. V. Lawler,  D. Lefrancois,  
 S. Lehtola,  Rain Li,  Yi-Pei Li,  Jiashu Liang,  M. Liebenthal,  
 Hung-Hsuan Lin,  You-Sheng Lin,  Fenglai Liu,  Kuan-Yu Liu,  
 M. Loipersberger,  A. Luenser,  A. Manjanath,  P. Manohar,  E. Mansoor,  
 S. F. Manzer,  Shan-Ping Mao,  A. V. Marenich,  T. Markovich,  S. Mason,  
 S. A. Maurer,  P. F. McLaughlin,  M. F. S. J. Menger,  J.-M. Mewes,  
 S. A. Mewes,  P. Morgante,  J. W. Mullinax,  K. J. Oosterbaan,  G. Paran,  
 Alexander C. Paul,  Suranjan K. Paul,  F. Pavosevic,  Zheng Pei,  S. Prager,  
 E. I. Proynov,  E. Ramos,  B. Rana,  A. E. Rask,  A. Rettig,  R. M. Richard,  
 F. Rob,  E. Rossomme,  T. Scheele,  M. Scheurer,  M. Schneider,  
 N. Sergueev,  S. M. Sharada,  W. Skomorowski,  D. W. Small,  C. J. Stein,  
 Yu-Chuan Su,  E. J. Sundstrom,  Zhen Tao,  J. Thirman,  T. Tsuchimochi,  
 N. M. Tubman,  S. P. Veccham,  O. Vydrov,  J. Wenzel,  J. Witte,  A. Yamada,  
 Kun Yao,  S. Yeganeh,  S. R. Yost,  A. Zech,  Igor Ying Zhang,  Xing Zhang,  
 Yu Zhang,  D. Zuev,  A. Aspuru-Guzik,  A. T. Bell,  N. A. Besley,  
 K. B. Bravaya,  B. R. Brooks,  D. Casanova,  Jeng-Da Chai,  S. Coriani,  
 C. J. Cramer,  A. E. DePrince, III,  R. A. DiStasio Jr.,  A. Dreuw,  
 B. D. Dunietz,  T. R. Furlani,  W. A. Goddard III,  S. Grimme,  
 S. Hammes-Schiffer,  T. Head-Gordon,  W. J. Hehre,  Chao-Ping Hsu,  
 T.-C. Jagau,  Yousung Jung,  A. Klamt,  Jing Kong,  D. S. Lambrecht,  
 WanZhen Liang,  N. J. Mayhall,  C. W. McCurdy,  J. B. Neaton,  
 C. Ochsenfeld,  J. A. Parkhill,  R. Peverati,  V. A. Rassolov,  Yihan Shao,  
 L. V. Slipchenko,  T. Stauch,  R. P. Steele,  J. E. Subotnik,  
 A. J. W. Thom,  A. Tkatchenko,  D. G. Truhlar,  T. Van Voorhis,  
 T. A. Wesolowski,  K. B. Whaley,  H. L. Woodcock III,  P. M. Zimmerman,  
 S. Faraji,  P. M. W. Gill,  M. Head-Gordon,  J. M. Herbert,  A. I. Krylov

 Additional authors for Version 5.4.1: 
 S. Kotaru,  Shaozhi Li,  Xiangyuan Li,  F. Matz,  A. Molle,  Haisheng Ren,  
 Yingli Su,  Hung-Yi Tsai,  C. Utku,  Fang Wang

 Contributors to earlier versions of Q-Chem not listed above: 
 R. D. Adamson,  B. Austin,  R. Baer,  J. Baker,  G. J. O. Beran,  
 K. Brandhorst,  S. T. Brown,  E. F. C. Byrd,  A. K. Chakraborty,  
 G. K. L. Chan,  Chun-Min Chang,  Yunqing Chen,  C.-L. Cheng,  
 Siu Hung Chien,  D. M. Chipman,  D. L. Crittenden,  H. Dachsel,  
 R. J. Doerksen,  A. D. Dutoi,  R. G. Edgar,  J. Fosso-Tande,  
 L. Fusti-Molnar,  D. Ghosh,  A. Ghysels,  A. Golubeva-Zadorozhnaya,  
 J. Gonthier,  M. S. Gordon,  S. R. Gwaltney,  G. Hawkins,  J. E. Herr,  
 A. Heyden,  S. Hirata,  E. G. Hohenstein,  G. Kedziora,  F. J. Keil,  
 C. Kelley,  Jihan Kim,  R. A. King,  R. Z. Khaliullin,  P. P. Korambath,  
 W. Kurlancheek,  A. Laurent,  A. M. Lee,  M. S. Lee,  S. V. Levchenko,  
 Ching Yeh Lin,  D. Liotard,  E. Livshits,  R. C. Lochan,  I. Lotan,  
 L. A. Martinez-Martinez,  P. E. Maslen,  N. Nair,  D. P. O'Neill,  
 D. Neuhauser,  E. Neuscamman,  C. M. Oana,  R. Olivares-Amaya,  R. Olson,  
 T. M. Perrine,  B. Peters,  P. A. Pieniazek,  A. Prociuk,  Y. M. Rhee,  
 J. Ritchie,  M. A. Rohrdanz,  E. Rosta,  N. J. Russ,  H. F. Schaefer III,  
 M. W. Schmidt,  N. E. Schultz,  S. Sharma,  N. Shenvi,  C. D. Sherrill,  
 A. C. Simmonett,  A. Sodt,  T. Stein,  D. Stuck,  K. S. Thanthiriwatte,  
 V. Vanovschi,  L. Vogt,  Tao Wang,  A. Warshel,  M. A. Watson,  
 C. F. Williams,  Q. Wu,  X. Xu,  Jun Yang,  W. Zhang,  Yan Zhao

 Please cite Q-Chem as follows:
 Y. Shao et al., Mol. Phys. 113, 184-215 (2015)
 DOI: 10.1080/00268976.2014.952696

 Q-Chem 5.4.1 for Intel X86 EM64T Linux

 Parts of Q-Chem use Armadillo 9.800.1 (Horizon Scraper).
 http://arma.sourceforge.net/

 Q-Chem begins on Thu Nov 17 15:39:40 2022  

 Host: cpu184.baobab
0

     Scratch files written to /scratch/fum/qchem27409//
 Processing $rem in /home/share/wesolowski/qc5.aug2021.FDE/config/preferences:
 Processing $rem in /home/fum/.qchemrc:

 Checking the input file for inconsistencies... 	...done.

--------------------------------------------------------------
User input:
--------------------------------------------------------------
$comment
generated from CCJob.Templates
$end

$rem
sym_ignore = true
method = adc(2)
ee_states = 10
basis = cc-pVDZ
mem_static = 1024
mem_total = 40000
adc_davidson_maxiter = 900
adc_davidson_conv = 6
adc_print = 3
adc_prop_es = true
adc_prop_es2es = true
adc_prop_tpa = true
molden_format = True
state_analysis = true
print_orbitals = 15
gen_scfman = false
fde_export_density = true
fde_details = 3
$end

$molecule
0 1
H -0.0348278765 -0.2442097827 0.0636489606
C -1.0665972949 -0.5242748755 -0.0023551776
H -1.313264467 -1.5767591607 -0.0757276926
C -2.043634118 0.3926884087 0.0061254933
H -1.8137616575 1.4459188338 0.0804456828
H -3.085977293 0.114931858 -0.0593381042                     
$end
--------------------------------------------------------------
 ----------------------------------------------------------------
             Standard Nuclear Orientation (Angstroms)
    I     Atom           X                Y                Z
 ----------------------------------------------------------------
    1      H      -0.0348278765    -0.2442097827     0.0636489606
    2      C      -1.0665972949    -0.5242748755    -0.0023551776
    3      H      -1.3132644670    -1.5767591607    -0.0757276926
    4      C      -2.0436341180     0.3926884087     0.0061254933
    5      H      -1.8137616575     1.4459188338     0.0804456828
    6      H      -3.0859772930     0.1149318580    -0.0593381042
 ----------------------------------------------------------------
 Nuclear Repulsion Energy =          33.35714095 hartrees
 There are        8 alpha and        8 beta electrons
 Requested basis set is cc-pVDZ
 There are 24 shells and 48 basis functions
 Total memory of 40000 MB is distributed as follows: 
   MEM_STATIC is set to 1024 MB
   QALLOC/CCMAN JOB total memory use is  38976 MB
 Warning: actual memory use might exceed 40000 MB

 Total QAlloc Memory Limit  40000 MB
 Mega-Array Size      1001 MB
 MEM_STATIC part      1024 MB

                       Distance Matrix (Angstroms)
             H (  1)   C (  2)   H (  3)   C (  4)   H (  5)
   C (  2)  1.071140
   H (  3)  1.851895  1.083490
   C (  4)  2.108139  1.339961  2.102109
   H (  5)  2.453859  2.108737  3.067812  1.080583
   H (  6)  3.074674  2.118898  2.450428  1.080700  1.846510

 A cutoff of  1.0D-11 yielded    300 shell pairs
 There are      1220 function pairs (      1329 Cartesian)
 Smallest overlap matrix eigenvalue = 4.93E-03

 Scale SEOQF with 1.000000e-01/1.000000e-01/1.000000e+00

 Standard Electronic Orientation quadrupole field applied
 Nucleus-field energy     =     0.0000000022 hartrees
 Guess from superposition of atomic densities
 Warning:  Energy on first SCF cycle will be non-variational
 SAD guess density has 16.000000 electrons
 A restricted Hartree-Fock SCF calculation will be
 performed using Pulay DIIS extrapolation
 SCF converges when DIIS error is below 1.0E-08
 using 10 threads for integral computing
 -------------------------------------------------------
 OpenMP Integral computing Module                
 Release: version 1.0, May 2013, Q-Chem Inc. Pittsburgh 
 -------------------------------------------------------
 ---------------------------------------
  Cycle       Energy         DIIS Error
 ---------------------------------------
    1     -78.4295634386      1.01E-01
    2     -78.0173109761      7.19E-03
    3     -78.0378953946      1.83E-03
    4     -78.0393707599      5.61E-04
    5     -78.0394876667      5.80E-05
    6     -78.0394895460      9.35E-06
    7     -78.0394896073      2.38E-06
    8     -78.0394896103      9.43E-07
    9     -78.0394896107      1.35E-07
   10     -78.0394896107      3.60E-08
   11     -78.0394896107      8.25E-09 Convergence criterion met
 ---------------------------------------
 SCF time:  CPU 1.54 s  wall 2.25 s
 SCF   energy in the final basis set = -78.03948961
 Total energy in the final basis set = -78.03948961
Exporting Density Matrix to file 'Densmat_SCF.txt'.
Export successful
================================================================================
|                                                                              |
|                                 A D C  M A N                                 |
|                                                                              |
 ------------------------------------------------------------------------------ 
|                                                                              |
| Components:                                                                  |
|                                                                              |
| - libvmm - 1.3-trunk                                                         |
|   Authors:                                                                   |
|   Evgeny Epifanovsky, Ilya Kaliman                                           |
|                                                                              |
| - libtensor - 2.5-trunk                                                      |
|   Authors:                                                                   |
|   Evgeny Epifanovsky, Michael Wormit, Dmitry Zuev, Sam Manzer,               |
|   Ilya Kaliman                                                               |
|                                                                              |
| - libwfa - 1.1-trunk                                                         |
|   Authors:                                                                   |
|   Felix Plasser, Stefanie Mewes (Baeppler), Benjamin Thomitzni,              |
|   Michael Wormit, Feng Chen, Anna I. Krylov, Pavel Pokhilko                  |
|                                                                              |
| - libadc - 1.1-trunk                                                         |
|   Authors:                                                                   |
|   Michael Wormit, Adrian L. Dempwolff, Philipp H. P. Harbach,                |
|   Caroline Krauter, Dirk Rehn, Matthias Schneider, Jan Wenzel                |
|                                                                              |
| - adcman - 2.6-trunk                                                         |
|   Authors:                                                                   |
|   Michael Wormit, Adrian L. Dempwolff, Philipp H. P. Harbach,                |
|   Caroline Krauter, Daniel Lefrancois, Jan-Michael Mewes, Dirk Rehn,         |
|   Matthias Schneider, Jan Wenzel, Andreas Dreuw                              |
|                                                                              |
| Authors of earlier versions of ADCMAN:                                       |
| Andreas Dreuw, Jan Hendrik Starcke, Dirk Rehn, Michael Wormit                |
|                                                                              |
================================================================================

 Created directory /scratch/fum/qchem27409/plots
  Import QC data ...  CPU 0.00 s  wall 0.00 s

 Alpha MOs, Restricted
 -- Occupied --                  
-11.236 -11.234  -1.030  -0.791  -0.642  -0.580  -0.507  -0.372
  1 A     2 A     3 A     4 A     5 A     6 A     7 A     8 A                  
 -- Virtual --                   
  0.167   0.204   0.234   0.240   0.303   0.460   0.578   0.615
  9 A    10 A    11 A    12 A    13 A    14 A    15 A    16 A                  
  0.691   0.710   0.783   0.807   0.864   0.936   0.969   1.010
 17 A    18 A    19 A    20 A    21 A    22 A    23 A    24 A                  
  1.131   1.232   1.255   1.263   1.293   1.604   1.724   1.749
 25 A    26 A    27 A    28 A    29 A    30 A    31 A    32 A                  
  1.819   1.857   1.866   1.922   1.976   1.981   2.217   2.253
 33 A    34 A    35 A    36 A    37 A    38 A    39 A    40 A                  
  2.376   2.456   2.504   2.628   2.727   2.823   3.143   3.394
 41 A    42 A    43 A    44 A    45 A    46 A    47 A    48 A                  

 Beta MOs, Restricted
 -- Occupied --                  
-11.236 -11.234  -1.030  -0.791  -0.642  -0.580  -0.507  -0.372
  1 A     2 A     3 A     4 A     5 A     6 A     7 A     8 A                  
 -- Virtual --                   
  0.167   0.204   0.234   0.240   0.303   0.460   0.578   0.615
  9 A    10 A    11 A    12 A    13 A    14 A    15 A    16 A                  
  0.691   0.710   0.783   0.807   0.864   0.936   0.969   1.010
 17 A    18 A    19 A    20 A    21 A    22 A    23 A    24 A                  
  1.131   1.232   1.255   1.263   1.293   1.604   1.724   1.749
 25 A    26 A    27 A    28 A    29 A    30 A    31 A    32 A                  
  1.819   1.857   1.866   1.922   1.976   1.981   2.217   2.253
 33 A    34 A    35 A    36 A    37 A    38 A    39 A    40 A                  
  2.376   2.456   2.504   2.628   2.727   2.823   3.143   3.394
 41 A    42 A    43 A    44 A    45 A    46 A    47 A    48 A                  
  Import AO data ...  CPU 0.00 s  wall 0.00 s
  Using point group: C1
  Irreducible representations in point group: A
  Molecular orbitals: 
  Occupied MOs:
  Block   0:   1 (  A) A   2 (  A) A   3 (  A) A   4 (  A) A   5 (  A) A
                  -11.24      -11.23       -1.03      -0.791     -0.6415
               6 (  A) A   7 (  A) A   8 (  A) A
                 -0.5804     -0.5066     -0.3722
  Block   1:   1 (  A) B   2 (  A) B   3 (  A) B   4 (  A) B   5 (  A) B
                  -11.24      -11.23       -1.03      -0.791     -0.6415
               6 (  A) B   7 (  A) B   8 (  A) B
                 -0.5804     -0.5066     -0.3722
  Virtual MOs:
  Block   0:   9 (  A) A  10 (  A) A  11 (  A) A  12 (  A) A  13 (  A) A
                  0.1667      0.2036      0.2335      0.2396      0.3028
              14 (  A) A  15 (  A) A  16 (  A) A  17 (  A) A  18 (  A) A
                  0.4603      0.5785      0.6154      0.6907      0.7096
              19 (  A) A  20 (  A) A  21 (  A) A  22 (  A) A
                  0.7829      0.8072      0.8638      0.9356
  Block   1:  23 (  A) A  24 (  A) A  25 (  A) A  26 (  A) A  27 (  A) A
                  0.9689        1.01       1.131       1.232       1.255
              28 (  A) A  29 (  A) A  30 (  A) A  31 (  A) A  32 (  A) A
                   1.263       1.293       1.604       1.724       1.749
              33 (  A) A  34 (  A) A  35 (  A) A  36 (  A) A
                   1.819       1.857       1.866       1.922
  Block   2:  37 (  A) A  38 (  A) A  39 (  A) A  40 (  A) A  41 (  A) A
                   1.976       1.981       2.217       2.253       2.376
              42 (  A) A  43 (  A) A  44 (  A) A  45 (  A) A  46 (  A) A
                   2.456       2.504       2.628       2.727       2.823
              47 (  A) A  48 (  A) A
                   3.143       3.394
  Block   3:   9 (  A) B  10 (  A) B  11 (  A) B  12 (  A) B  13 (  A) B
                  0.1667      0.2036      0.2335      0.2396      0.3028
              14 (  A) B  15 (  A) B  16 (  A) B  17 (  A) B  18 (  A) B
                  0.4603      0.5785      0.6154      0.6907      0.7096
              19 (  A) B  20 (  A) B  21 (  A) B  22 (  A) B
                  0.7829      0.8072      0.8638      0.9356
  Block   4:  23 (  A) B  24 (  A) B  25 (  A) B  26 (  A) B  27 (  A) B
                  0.9689        1.01       1.131       1.232       1.255
              28 (  A) B  29 (  A) B  30 (  A) B  31 (  A) B  32 (  A) B
                   1.263       1.293       1.604       1.724       1.749
              33 (  A) B  34 (  A) B  35 (  A) B  36 (  A) B
                   1.819       1.857       1.866       1.922
  Block   5:  37 (  A) B  38 (  A) B  39 (  A) B  40 (  A) B  41 (  A) B
                   1.976       1.981       2.217       2.253       2.376
              42 (  A) B  43 (  A) B  44 (  A) B  45 (  A) B  46 (  A) B
                   2.456       2.504       2.628       2.727       2.823
              47 (  A) B  48 (  A) B
                   3.143       3.394
  Import MO data ...  CPU 0.01 s  wall 0.00 s
  Import HF data ...  CPU 0.08 s  wall 0.03 s
  Import 2e integrals ...  CPU 0.68 s  wall 0.13 s

--------------------------------------------------------------------------------
                                   HF Summary                                   
--------------------------------------------------------------------------------
  Energy:                                                  -78.0394896107 a.u.
  Dip. moment [a.u.]:                  [   0.000011,    0.001991,    0.000837]
  Total dipole [Debye]:                                               0.005488
  <r^2> [a.u.]:                        [ 174.838682,   34.936987,   11.640554]
  Total <r^2> [a.u.]:                                               221.416223
--------------------------------------------------------------------------------
  HF properties ...  CPU 0.01 s  wall 0.01 s
  MP(1) calculation ...  CPU 0.01 s  wall 0.00 s
  N^6 prerequesite intermediates ...  CPU 0.52 s  wall 0.07 s
  Difference density matrix of state mp2_gs printed to ASCII file 'State_mp2_gs_Difference.txt'
Exporting MP density matrix to file 'Densmat_MP.txt'.
Export successful
  Total density matrix of state mp2_gs printed to ASCII file 'State_mp2_gs_Total.txt'
Exporting MP density matrix to file 'Densmat_MP.txt'.
Export successful

--------------------------------------------------------------------------------
                                 MP(2) Summary                                  
--------------------------------------------------------------------------------
  MP energy contribution:                                   -0.2800313271 a.u.
  Total energy:                                            -78.3195209378 a.u.
  Dip. moment [a.u.]:                  [  -0.000148,    0.001563,    0.000794]
  Total dipole [Debye]:                                               0.004472
  <r^2> [a.u.]:                        [ 174.886045,   34.974583,   11.467929]
  Total <r^2> [a.u.]:                                               221.328557

  Density matrix analysis:
  ------------------------
  NOs
    Occupation of frontier NOs:
       0.0459   1.9377
    Number of electrons: 16.000000
    Number of unpaired electrons: n_u =  0.40485, n_u,nl =  0.04560
    NO participation ratio (PR_NO): 13.789446
  
  
  Mulliken Population Analysis
  Atom      Charge (e)              h+              e-           Del q
  --------------------------------------------------------------------
   1 H        0.049636        0.014093       -0.011192        0.002901
   2 C       -0.097864        0.093627       -0.099258       -0.005631
   3 H        0.051340        0.014050       -0.011185        0.002865
   4 C       -0.104706        0.093694       -0.099637       -0.005943
   5 H        0.050299        0.014150       -0.011187        0.002963
   6 H        0.051295        0.014056       -0.011209        0.002847
  --------------------------------------------------------------------
  Sum:        0.000000        0.243670       -0.243670       -0.000000
  
  Multipole moment analysis of the density matrix
    Molecular charge:                      0.000000
    Number of electrons:                   16.000000
      Center of electronic charge [Ang]: [ -1.556821,  -0.065654,   0.001952]
    Total nuclear charge:                  16.000000
      Center of nuclear charge [Ang]:    [ -1.556826,  -0.065602,   0.001978]
    Dipole moment [D]:                     0.004472
      Cartesian components [D]:          [ -0.000377,   0.003973,   0.002019]
    RMS size of the density [Ang]:         1.202347
      Cartesian components [Ang]:        [  0.798201,   0.779620,   0.448002]
  
  Exciton analysis of the difference density matrix
    <r_h> [Ang]:                  [ -1.557870,  -0.066110,   0.001759]
    <r_e> [Ang]:                  [ -1.557524,  -0.065181,   0.001851]
    |<r_e - r_h>| [Ang]:            0.000996
    Hole size [Ang]:                1.395939
      Cartesian components [Ang]: [  0.846807,   0.835013,   0.730970]
    Electron size [Ang]:            1.359817
      Cartesian components [Ang]: [  0.878973,   0.860566,   0.579599]
--------------------------------------------------------------------------------
  MP(2) calculation ...  CPU 0.13 s  wall 0.17 s
  Start ADC(2)-s ...  CPU 0.01 s  wall 0.00 s
  ADC(2) intermediates ...  CPU 0.02 s  wall 0.01 s
  Starting Davidson for singlet states of irrep A ... 
--------------------------------------------------------------------------------
   It NVec Conv  Avg. Norm  Max. Norm  Conv. states           Remark
--------------------------------------------------------------------------------
        10    0  1.329e-01  4.678e-01  0.4104 n n n n n n n n Guess.
    1   20    0  2.343e-02  1.118e-01  0.3240 n n n n n n n n 
    2   30    0  6.184e-03  3.194e-02  0.3192 n n n n n n n n 
    3   40    0  2.243e-03  1.689e-02  0.3188 n n n n n n n n 
    4   50    0  6.797e-04  5.334e-03  0.3188 n n n n n n n n 
    5   20    0  3.214e-04  2.588e-03  0.3188 n n n n n n n n Subspace collapsed.
    6   30    0  3.195e-04  3.077e-03  0.3188 n n n n n n n n 
    7   40    0  3.045e-04  3.021e-03  0.3188 n n n n n n n n 
    8   50    0  2.238e-04  2.224e-03  0.3188 n n n n n n n n 
    9   20    1  2.253e-04  2.246e-03  0.3188 n y n n n n n n Subspace collapsed.
   10   30    5  2.217e-04  2.216e-03  0.3188 n y y y y y n n 
   11   40    5  1.819e-04  1.819e-03  0.3188 n y y y y y n n 
   12   50    5  2.946e-04  2.945e-03  0.3188 n y y y y y n n 
   13   20    7  1.196e-04  1.196e-03  0.3188 y y y y y y n y Subspace collapsed.
   14   30    7  1.212e-04  1.212e-03  0.3188 y y y y y y n y 
   15   40    7  1.033e-04  1.033e-03  0.3188 y y y y y y n y 
   16   50    8  1.048e-04  1.048e-03  0.3188 y y y y y y n y 
   17   20    8  6.302e-05  6.302e-04  0.3188 y y y y y y n y Subspace collapsed.
   18   30    9  6.756e-05  6.756e-04  0.3188 y y y y y y y y 
   19   40    9  7.517e-05  7.517e-04  0.3188 y y y y y y y y 
   20   50    9  8.591e-05  8.591e-04  0.3188 y y y y y y y y 
   21   20    9  4.234e-05  4.234e-04  0.3188 y y y y y y y y Subspace collapsed.
   22   30    9  3.028e-05  3.028e-04  0.3188 y y y y y y y y 
   23   31    9  3.064e-05  3.064e-04  0.3188 y y y y y y y y 
   24   32    9  2.979e-05  2.979e-04  0.3188 y y y y y y y y 
   25   41    9  3.124e-05  3.124e-04  0.3188 y y y y y y y y 
   26   49    9  3.479e-05  3.479e-04  0.3188 y y y y y y y y 
   27   50    9  3.689e-05  3.689e-04  0.3188 y y y y y y y y 
   28   17    9  1.911e-05  1.911e-04  0.3188 y y y y y y y y Subspace collapsed.
   29   23    9  2.329e-05  2.329e-04  0.3188 y y y y y y y y 
   30   28    9  2.281e-05  2.281e-04  0.3188 y y y y y y y y 
   31   32    9  2.647e-05  2.647e-04  0.3188 y y y y y y y y 
   32   36    9  2.207e-05  2.207e-04  0.3188 y y y y y y y y 
   33   40    9  1.391e-05  1.391e-04  0.3188 y y y y y y y y 
   34   44    9  7.231e-06  7.231e-05  0.3188 y y y y y y y y 
   35   48    9  3.778e-06  3.778e-05  0.3188 y y y y y y y y 
   36   50    9  2.658e-06  2.658e-05  0.3188 y y y y y y y y 
   37   14    9  1.182e-06  1.182e-05  0.3188 y y y y y y y y Subspace collapsed.
   38   18    9  1.050e-06  1.050e-05  0.3188 y y y y y y y y 
   39   22    9  7.184e-07  7.184e-06  0.3188 y y y y y y y y 
   40   26    9  4.025e-07  4.025e-06  0.3188 y y y y y y y y 
   41   30    9  2.416e-07  2.416e-06  0.3188 y y y y y y y y 
   42   34    9  1.580e-07  1.580e-06  0.3188 y y y y y y y y 
   43   38    9  1.203e-07  1.203e-06  0.3188 y y y y y y y y 
   44   42   10  8.028e-08  8.028e-07  0.3188 y y y y y y y y Converged.
--------------------------------------------------------------------------------
  Davidson Summary: 
 ------------------------------------------------------------
  State  0: excitation energy =   0.3188 a.u.   (converged)
  State  1: excitation energy =   0.3327 a.u.   (converged)
  State  2: excitation energy =   0.3359 a.u.   (converged)
  State  3: excitation energy =   0.3613 a.u.   (converged)
  State  4: excitation energy =   0.3735 a.u.   (converged)
  State  5: excitation energy =   0.3852 a.u.   (converged)
  State  6: excitation energy =   0.4261 a.u.   (converged)
  State  7: excitation energy =   0.4457 a.u.   (converged)
  State  8: excitation energy =   0.4549 a.u.   (converged)
  State  9: excitation energy =   0.4669 a.u.   (converged)
 ------------------------------------------------------------

  Singlet states of irrep A ...  CPU 99.68 s  wall 34.52 s
  TDMs ...  CPU 0.66 s  wall 0.27 s
  SDMs ...  CPU 1.47 s  wall 0.52 s
  Starting TPA DIIS iterations ... 
------------------------------------ 
   It     Res. Norm  Remark
------------------------------------
                       Guess.
    1     4.526e+00  
    2     6.027e+00  
    3     1.090e+00  
    4     2.594e-01  
    5     6.791e-02  
    6     2.694e-02  
    7     8.343e-03  
    8     1.401e-03  
    9     5.205e-04  
   10     8.847e-05  
   11     2.723e-05  
   12     4.306e-06  
   13     1.363e-06  
   14     4.310e-07  Converged.
   ... Converged in 14 steps (norm: 4.31e-07)
------------------------------------
  Starting TPA DIIS iterations ... 
------------------------------------ 
   It     Res. Norm  Remark
------------------------------------
                       Guess.
    1     4.243e+00  
    2     5.650e+00  
    3     1.041e+00  
    4     2.623e-01  
    5     6.763e-02  
    6     2.748e-02  
    7     8.278e-03  
    8     1.467e-03  
    9     5.375e-04  
   10     9.064e-05  
   11     2.849e-05  
   12     4.378e-06  
   13     1.401e-06  
   14     4.250e-07  Converged.
   ... Converged in 14 steps (norm: 4.25046e-07)
------------------------------------
  Starting TPA DIIS iterations ... 
------------------------------------ 
   It     Res. Norm  Remark
------------------------------------
                       Guess.
    1     6.885e-01  
    2     4.844e-01  
    3     1.710e-01  
    4     6.313e-02  
    5     1.832e-02  
    6     6.591e-03  
    7     1.041e-03  
    8     4.386e-04  
    9     1.290e-04  
   10     2.349e-05  
   11     9.559e-06  
   12     3.206e-06  
   13     2.111e-06  
   14     8.820e-07  Converged.
   ... Converged in 14 steps (norm: 8.81988e-07)
------------------------------------
  Starting TPA DIIS iterations ... 
------------------------------------ 
   It     Res. Norm  Remark
------------------------------------
                       Guess.
    1     4.887e+00  
    2     6.678e+00  
    3     1.190e+00  
    4     2.947e-01  
    5     7.839e-02  
    6     3.138e-02  
    7     9.696e-03  
    8     1.624e-03  
    9     6.093e-04  
   10     1.042e-04  
   11     3.249e-05  
   12     5.188e-06  
   13     1.661e-06  
   14     5.260e-07  Converged.
   ... Converged in 14 steps (norm: 5.26006e-07)
------------------------------------
  Starting TPA DIIS iterations ... 
------------------------------------ 
   It     Res. Norm  Remark
------------------------------------
                       Guess.
    1     4.580e+00  
    2     6.260e+00  
    3     1.136e+00  
    4     2.977e-01  
    5     7.810e-02  
    6     3.207e-02  
    7     9.628e-03  
    8     1.703e-03  
    9     6.293e-04  
   10     1.068e-04  
   11     3.396e-05  
   12     5.270e-06  
   13     1.701e-06  
   14     5.175e-07  Converged.
   ... Converged in 14 steps (norm: 5.17476e-07)
------------------------------------
  Starting TPA DIIS iterations ... 
------------------------------------ 
   It     Res. Norm  Remark
------------------------------------
                       Guess.
    1     7.030e-01  
    2     5.055e-01  
    3     1.830e-01  
    4     7.343e-02  
    5     1.999e-02  
    6     7.341e-03  
    7     1.204e-03  
    8     5.316e-04  
    9     1.599e-04  
   10     2.641e-05  
   11     1.148e-05  
   12     3.930e-06  
   13     2.752e-06  
   14     1.169e-06  
   15     4.352e-07  Converged.
   ... Converged in 15 steps (norm: 4.35219e-07)
------------------------------------
  Starting TPA DIIS iterations ... 
------------------------------------ 
   It     Res. Norm  Remark
------------------------------------
                       Guess.
    1     4.976e+00  
    2     6.841e+00  
    3     1.215e+00  
    4     3.037e-01  
    5     8.105e-02  
    6     3.251e-02  
    7     1.004e-02  
    8     1.680e-03  
    9     6.320e-04  
   10     1.082e-04  
   11     3.385e-05  
   12     5.416e-06  
   13     1.739e-06  
   14     5.508e-07  Converged.
   ... Converged in 14 steps (norm: 5.50838e-07)
------------------------------------
  Starting TPA DIIS iterations ... 
------------------------------------ 
   It     Res. Norm  Remark
------------------------------------
                       Guess.
    1     4.663e+00  
    2     6.412e+00  
    3     1.159e+00  
    4     3.067e-01  
    5     8.075e-02  
    6     3.324e-02  
    7     9.971e-03  
    8     1.763e-03  
    9     6.528e-04  
   10     1.109e-04  
   11     3.538e-05  
   12     5.501e-06  
   13     1.780e-06  
   14     5.417e-07  Converged.
   ... Converged in 14 steps (norm: 5.41651e-07)
------------------------------------
  Starting TPA DIIS iterations ... 
------------------------------------ 
   It     Res. Norm  Remark
------------------------------------
                       Guess.
    1     7.064e-01  
    2     5.105e-01  
    3     1.859e-01  
    4     7.609e-02  
    5     2.040e-02  
    6     7.531e-03  
    7     1.247e-03  
    8     5.559e-04  
    9     1.680e-04  
   10     2.698e-05  
   11     1.198e-05  
   12     4.125e-06  
   13     2.927e-06  
   14     1.250e-06  
   15     4.623e-07  Converged.
   ... Converged in 15 steps (norm: 4.6229e-07)
------------------------------------
  Starting TPA DIIS iterations ... 
------------------------------------ 
   It     Res. Norm  Remark
------------------------------------
                       Guess.
    1     5.793e+00  
    2     8.376e+00  
    3     1.440e+00  
    4     3.908e-01  
    5     1.069e-01  
    6     4.361e-02  
    7     1.338e-02  
    8     2.228e-03  
    9     8.544e-04  
   10     1.477e-04  
   11     4.745e-05  
   12     7.703e-06  
   13     2.545e-06  
   14     8.062e-07  Converged.
   ... Converged in 14 steps (norm: 8.06213e-07)
------------------------------------
  Starting TPA DIIS iterations ... 
------------------------------------ 
   It     Res. Norm  Remark
------------------------------------
                       Guess.
    1     5.426e+00  
    2     7.850e+00  
    3     1.373e+00  
    4     3.941e-01  
    5     1.066e-01  
    6     4.474e-02  
    7     1.331e-02  
    8     2.345e-03  
    9     8.823e-04  
   10     1.515e-04  
   11     4.948e-05  
   12     7.812e-06  
   13     2.579e-06  
   14     7.913e-07  Converged.
   ... Converged in 14 steps (norm: 7.91332e-07)
------------------------------------
  Starting TPA DIIS iterations ... 
------------------------------------ 
   It     Res. Norm  Remark
------------------------------------
                       Guess.
    1     7.346e-01  
    2     5.546e-01  
    3     2.120e-01  
    4     1.027e-01  
    5     2.415e-02  
    6     9.389e-03  
    7     1.675e-03  
    8     7.959e-04  
    9     2.470e-04  
   10     3.071e-05  
   11     1.713e-05  
   12     6.234e-06  
   13     4.876e-06  
   14     2.174e-06  
   15     7.277e-07  Converged.
   ... Converged in 15 steps (norm: 7.27733e-07)
------------------------------------
  Starting TPA DIIS iterations ... 
------------------------------------ 
   It     Res. Norm  Remark
------------------------------------
                       Guess.
    1     6.266e+00  
    2     9.295e+00  
    3     1.569e+00  
    4     4.448e-01  
    5     1.229e-01  
    6     5.058e-02  
    7     1.546e-02  
    8     2.566e-03  
    9     9.939e-04  
   10     1.725e-04  
   11     5.619e-05  
   12     9.169e-06  
   13     3.082e-06  
   14     9.775e-07  Converged.
   ... Converged in 14 steps (norm: 9.77541e-07)
------------------------------------
  Starting TPA DIIS iterations ... 
------------------------------------ 
   It     Res. Norm  Remark
------------------------------------
                       Guess.
    1     5.868e+00  
    2     8.711e+00  
    3     1.496e+00  
    4     4.482e-01  
    5     1.226e-01  
    6     5.198e-02  
    7     1.538e-02  
    8     2.705e-03  
    9     1.026e-03  
   10     1.770e-04  
   11     5.849e-05  
   12     9.293e-06  
   13     3.103e-06  
   14     9.604e-07  Converged.
   ... Converged in 14 steps (norm: 9.60449e-07)
------------------------------------
  Starting TPA DIIS iterations ... 
------------------------------------ 
   It     Res. Norm  Remark
------------------------------------
                       Guess.
    1     7.490e-01  
    2     5.783e-01  
    3     2.266e-01  
    4     1.198e-01  
    5     2.637e-02  
    6     1.055e-02  
    7     1.956e-03  
    8     9.392e-04  
    9     2.943e-04  
   10     3.307e-05  
   11     2.060e-05  
   12     7.752e-06  
   13     6.301e-06  
   14     2.863e-06  
   15     9.061e-07  Converged.
   ... Converged in 15 steps (norm: 9.06147e-07)
------------------------------------
  Starting TPA DIIS iterations ... 
------------------------------------ 
   It     Res. Norm  Remark
------------------------------------
                       Guess.
    1     6.785e+00  
    2     1.033e+01  
    3     1.711e+00  
    4     5.070e-01  
    5     1.414e-01  
    6     5.866e-02  
    7     1.784e-02  
    8     2.954e-03  
    9     1.156e-03  
   10     2.012e-04  
   11     6.641e-05  
   12     1.088e-05  
   13     3.726e-06  
   14     1.187e-06  
   15     5.056e-07  Converged.
   ... Converged in 15 steps (norm: 5.05577e-07)
------------------------------------
  Starting TPA DIIS iterations ... 
------------------------------------ 
   It     Res. Norm  Remark
------------------------------------
                       Guess.
    1     6.354e+00  
    2     9.680e+00  
    3     1.630e+00  
    4     5.104e-01  
    5     1.411e-01  
    6     6.037e-02  
    7     1.777e-02  
    8     3.118e-03  
    9     1.193e-03  
   10     2.064e-04  
   11     6.899e-05  
   12     1.103e-05  
   13     3.723e-06  
   14     1.169e-06  
   15     3.505e-07  Converged.
   ... Converged in 15 steps (norm: 3.50497e-07)
------------------------------------
  Starting TPA DIIS iterations ... 
------------------------------------ 
   It     Res. Norm  Remark
------------------------------------
                       Guess.
    1     7.635e-01  
    2     6.032e-01  
    3     2.422e-01  
    4     1.398e-01  
    5     2.887e-02  
    6     1.189e-02  
    7     2.290e-03  
    8     1.091e-03  
    9     3.458e-04  
   10     3.716e-05  
   11     2.484e-05  
   12     9.696e-06  
   13     8.140e-06  
   14     3.744e-06  
   15     1.142e-06  
   16     5.438e-07  Converged.
   ... Converged in 16 steps (norm: 5.43798e-07)
------------------------------------
  Starting TPA DIIS iterations ... 
------------------------------------ 
   It     Res. Norm  Remark
------------------------------------
                       Guess.
    1     9.257e+00  
    2     1.557e+01  
    3     2.370e+00  
    4     8.355e-01  
    5     2.393e-01  
    6     1.023e-01  
    7     3.047e-02  
    8     4.995e-03  
    9     2.029e-03  
   10     3.552e-04  
   11     1.216e-04  
   12     2.016e-05  
   13     7.455e-06  
   14     2.536e-06  
   15     1.249e-06  
   16     4.452e-07  Converged.
   ... Converged in 16 steps (norm: 4.4524e-07)
------------------------------------
  Starting TPA DIIS iterations ... 
------------------------------------ 
   It     Res. Norm  Remark
------------------------------------
                       Guess.
    1     8.666e+00  
    2     1.459e+01  
    3     2.255e+00  
    4     8.385e-01  
    5     2.392e-01  
    6     1.060e-01  
    7     3.042e-02  
    8     5.293e-03  
    9     2.090e-03  
   10     3.645e-04  
   11     1.250e-04  
   12     2.054e-05  
   13     7.116e-06  
   14     2.556e-06  
   15     7.307e-07  Converged.
   ... Converged in 15 steps (norm: 7.30678e-07)
------------------------------------
  Starting TPA DIIS iterations ... 
------------------------------------ 
   It     Res. Norm  Remark
------------------------------------
                       Guess.
    1     8.189e-01  
    2     7.087e-01  
    3     3.117e-01  
    4     2.451e-01  
    5     4.182e-02  
    6     1.887e-02  
    7     4.187e-03  
    8     1.607e-03  
    9     5.742e-04  
   10     7.700e-05  
   11     5.103e-05  
   12     2.334e-05  
   13     2.127e-05  
   14     9.537e-06  
   15     3.168e-06  
   16     1.453e-06  
   17     3.457e-07  Converged.
   ... Converged in 17 steps (norm: 3.45673e-07)
------------------------------------
  Starting TPA DIIS iterations ... 
------------------------------------ 
   It     Res. Norm  Remark
------------------------------------
                       Guess.
    1     1.099e+01  
    2     1.950e+01  
    3     2.819e+00  
    4     1.090e+00  
    5     3.159e-01  
    6     1.373e-01  
    7     4.035e-02  
    8     6.581e-03  
    9     2.727e-03  
   10     4.768e-04  
   11     1.640e-04  
   12     2.750e-05  
   13     1.062e-05  
   14     3.886e-06  
   15     2.047e-06  
   16     7.685e-07  Converged.
   ... Converged in 16 steps (norm: 7.68477e-07)
------------------------------------
  Starting TPA DIIS iterations ... 
------------------------------------ 
   It     Res. Norm  Remark
------------------------------------
                       Guess.
    1     1.028e+01  
    2     1.828e+01  
    3     2.680e+00  
    4     1.092e+00  
    5     3.160e-01  
    6     1.425e-01  
    7     4.031e-02  
    8     6.984e-03  
    9     2.804e-03  
   10     4.891e-04  
   11     1.676e-04  
   12     2.837e-05  
   13     9.811e-06  
   14     3.956e-06  
   15     1.164e-06  
   16     7.802e-07  Converged.
   ... Converged in 16 steps (norm: 7.80206e-07)
------------------------------------
  Starting TPA DIIS iterations ... 
------------------------------------ 
   It     Res. Norm  Remark
------------------------------------
                       Guess.
    1     8.487e-01  
    2     7.732e-01  
    3     3.565e-01  
    4     3.206e-01  
    5     5.164e-02  
    6     2.396e-02  
    7     5.718e-03  
    8     1.773e-03  
    9     7.208e-04  
   10     1.134e-04  
   11     7.485e-05  
   12     3.733e-05  
   13     3.512e-05  
   14     1.491e-05  
   15     5.509e-06  
   16     2.304e-06  
   17     4.995e-07  Converged.
   ... Converged in 17 steps (norm: 4.99496e-07)
------------------------------------
  Starting TPA DIIS iterations ... 
------------------------------------ 
   It     Res. Norm  Remark
------------------------------------
                       Guess.
    1     1.199e+01  
    2     2.187e+01  
    3     3.074e+00  
    4     1.244e+00  
    5     3.629e-01  
    6     1.590e-01  
    7     4.641e-02  
    8     7.550e-03  
    9     3.159e-03  
   10     5.515e-04  
   11     1.894e-04  
   12     3.205e-05  
   13     1.269e-05  
   14     4.844e-06  
   15     2.644e-06  
   16     1.021e-06  
   17     7.687e-07  Converged.
   ... Converged in 17 steps (norm: 7.68675e-07)
------------------------------------
  Starting TPA DIIS iterations ... 
------------------------------------ 
   It     Res. Norm  Remark
------------------------------------
                       Guess.
    1     1.122e+01  
    2     2.050e+01  
    3     2.922e+00  
    4     1.245e+00  
    5     3.632e-01  
    6     1.653e-01  
    7     4.638e-02  
    8     8.017e-03  
    9     3.246e-03  
   10     5.657e-04  
   11     1.931e-04  
   12     3.340e-05  
   13     1.153e-05  
   14     4.930e-06  
   15     1.529e-06  
   16     1.049e-06  
   17     6.084e-07  Converged.
   ... Converged in 17 steps (norm: 6.08406e-07)
------------------------------------
  Starting TPA DIIS iterations ... 
------------------------------------ 
   It     Res. Norm  Remark
------------------------------------
                       Guess.
    1     8.637e-01  
    2     8.083e-01  
    3     3.814e-01  
    4     3.620e-01  
    5     5.752e-02  
    6     2.683e-02  
    7     6.648e-03  
    8     1.831e-03  
    9     8.029e-04  
   10     1.354e-04  
   11     9.054e-05  
   12     4.703e-05  
   13     4.513e-05  
   14     1.844e-05  
   15     7.189e-06  
   16     2.870e-06  
   17     5.961e-07  Converged.
   ... Converged in 17 steps (norm: 5.96097e-07)
------------------------------------
  Starting TPA DIIS iterations ... 
------------------------------------ 
   It     Res. Norm  Remark
------------------------------------
                       Guess.
    1     1.352e+01  
    2     2.564e+01  
    3     3.460e+00  
    4     1.489e+00  
    5     4.383e-01  
    6     1.941e-01  
    7     5.612e-02  
    8     9.100e-03  
    9     3.857e-03  
   10     6.712e-04  
   11     2.294e-04  
   12     3.946e-05  
   13     1.629e-05  
   14     6.586e-06  
   15     3.789e-06  
   16     1.535e-06  
   17     1.158e-06  
   18     3.750e-07  Converged.
   ... Converged in 18 steps (norm: 3.7504e-07)
------------------------------------
  Starting TPA DIIS iterations ... 
------------------------------------ 
   It     Res. Norm  Remark
------------------------------------
                       Guess.
    1     1.266e+01  
    2     2.403e+01  
    3     3.287e+00  
    4     1.487e+00  
    5     4.388e-01  
    6     2.021e-01  
    7     5.611e-02  
    8     9.671e-03  
    9     3.959e-03  
   10     6.883e-04  
   11     2.335e-04  
   12     4.187e-05  
   13     1.444e-05  
   14     6.660e-06  
   15     2.291e-06  
   16     1.573e-06  
   17     8.836e-07  Converged.
   ... Converged in 17 steps (norm: 8.83646e-07)
------------------------------------
  Starting TPA DIIS iterations ... 
------------------------------------ 
   It     Res. Norm  Remark
------------------------------------
                       Guess.
    1     8.845e-01  
    2     8.593e-01  
    3     4.180e-01  
    4     4.203e-01  
    5     6.674e-02  
    6     3.101e-02  
    7     8.109e-03  
    8     1.907e-03  
    9     9.263e-04  
   10     1.698e-04  
   11     1.171e-04  
   12     6.403e-05  
   13     6.373e-05  
   14     2.441e-05  
   15     1.022e-05  
   16     3.845e-06  
   17     7.677e-07  Converged.
   ... Converged in 17 steps (norm: 7.67733e-07)
------------------------------------
  Two-photon absorbption ...  CPU 69.67 s  wall 18.09 s
  Transition density matrix of state singlet_A_1 printed to ASCII file 'State_singlet_A_1_Transition.txt'
  Transition density matrix of state singlet_A_2 printed to ASCII file 'State_singlet_A_2_Transition.txt'
  Transition density matrix of state singlet_A_3 printed to ASCII file 'State_singlet_A_3_Transition.txt'
  Transition density matrix of state singlet_A_4 printed to ASCII file 'State_singlet_A_4_Transition.txt'
  Transition density matrix of state singlet_A_5 printed to ASCII file 'State_singlet_A_5_Transition.txt'
  Transition density matrix of state singlet_A_6 printed to ASCII file 'State_singlet_A_6_Transition.txt'
  Transition density matrix of state singlet_A_7 printed to ASCII file 'State_singlet_A_7_Transition.txt'
  Transition density matrix of state singlet_A_8 printed to ASCII file 'State_singlet_A_8_Transition.txt'
  Transition density matrix of state singlet_A_9 printed to ASCII file 'State_singlet_A_9_Transition.txt'
  Transition density matrix of state singlet_A_10 printed to ASCII file 'State_singlet_A_10_Transition.txt'
  Transition properties ...  CPU 0.16 s  wall 0.30 s
  Difference density matrix of state singlet_A_1 printed to ASCII file 'State_singlet_A_1_Difference.txt'
  Total density matrix of state singlet_A_1 printed to ASCII file 'State_singlet_A_1_Total.txt'
  Difference density matrix of state singlet_A_2 printed to ASCII file 'State_singlet_A_2_Difference.txt'
  Total density matrix of state singlet_A_2 printed to ASCII file 'State_singlet_A_2_Total.txt'
  Difference density matrix of state singlet_A_3 printed to ASCII file 'State_singlet_A_3_Difference.txt'
  Total density matrix of state singlet_A_3 printed to ASCII file 'State_singlet_A_3_Total.txt'
  Difference density matrix of state singlet_A_4 printed to ASCII file 'State_singlet_A_4_Difference.txt'
  Total density matrix of state singlet_A_4 printed to ASCII file 'State_singlet_A_4_Total.txt'
  Difference density matrix of state singlet_A_5 printed to ASCII file 'State_singlet_A_5_Difference.txt'
  Total density matrix of state singlet_A_5 printed to ASCII file 'State_singlet_A_5_Total.txt'
  Difference density matrix of state singlet_A_6 printed to ASCII file 'State_singlet_A_6_Difference.txt'
  Total density matrix of state singlet_A_6 printed to ASCII file 'State_singlet_A_6_Total.txt'
  Difference density matrix of state singlet_A_7 printed to ASCII file 'State_singlet_A_7_Difference.txt'
  Total density matrix of state singlet_A_7 printed to ASCII file 'State_singlet_A_7_Total.txt'
  Difference density matrix of state singlet_A_8 printed to ASCII file 'State_singlet_A_8_Difference.txt'
  Total density matrix of state singlet_A_8 printed to ASCII file 'State_singlet_A_8_Total.txt'
  Difference density matrix of state singlet_A_9 printed to ASCII file 'State_singlet_A_9_Difference.txt'
  Total density matrix of state singlet_A_9 printed to ASCII file 'State_singlet_A_9_Total.txt'
  Difference density matrix of state singlet_A_10 printed to ASCII file 'State_singlet_A_10_Difference.txt'
  Total density matrix of state singlet_A_10 printed to ASCII file 'State_singlet_A_10_Total.txt'
  Properties ...  CPU 0.30 s  wall 0.50 s
  ISR TDMS ...  CPU 8.87 s  wall 3.16 s
  ISR transition properties ...  CPU 0.17 s  wall 0.08 s
  Sum-over-states TPA ...  CPU 0.00 s  wall 0.00 s

--------------------------------------------------------------------------------
                   State-averaged natural transition orbitals
--------------------------------------------------------------------------------
--------------------------------------------------------------------------------
  SA-NTO decomposition ...  CPU 0.01 s  wall 0.02 s

--------------------------------------------------------------------------------
                             Excited State Summary
--------------------------------------------------------------------------------
--------------------------------------------------------------------------------

  Excited state 1 (singlet, A)                                     [converged]
  ----------------------------------------------------------------------------
  Term symbol:  2 (1) A                                     R^2 =  4.55976e-13

  Total energy:                                            -78.0007529924 a.u.
  Excitation energy:                                               8.674117 eV

  Osc. strength:                                                      0.442351
  Trans. dip. moment [a.u.]:           [   1.047188,   -0.992390,   -0.009711]
  <i|r^2|0> [a.u.]:                    [   6.166253,   -0.252527,    0.000232]
  Two-photon absorption cross-section (SoS) [a.u.]:                   0.003297
  Two-photon absorption matrix (SoS) [a.u.]:
                                       |    0.021416    0.007119    0.001161 |
                                       |    0.007119    0.001167    0.000811 |
                                       |    0.001161    0.000811    0.000168 |
  Two-photon absorption cross-section [a.u.]:                         0.002244
  Two-photon absorption matrix [a.u.]:
                                       |    0.006370    0.000334    0.000749 |
                                       |    0.000334   -0.019352    0.001658 |
                                       |    0.000749    0.001658   -0.003108 |

  Dip. moment [a.u.]:                  [  -0.000119,    0.001033,    0.000939]
  Total dipole [Debye]:                                               0.003561
  <r^2> [a.u.]:                        [ 175.644969,   35.653892,   11.867297]
  Total <r^2> [a.u.]:                                               223.166158

  V1^2 = 0.9715, V2^2 = 0.0285

  Important amplitudes:
      occ i     occ j     vir a      vir b          v   
    -----------------------------------------------------
     8 (A) A              9 (A) A                 0.6810
     6 (A) A             14 (A) A                -0.0638
     4 (A) A             10 (A) A                 0.0600
     7 (A) A             16 (A) A                 0.0563
     5 (A) A             13 (A) A                -0.0508
     6 (A) A             23 (A) A                -0.0486
     8 (A) A             20 (A) A                 0.0352
     6 (A) A             19 (A) A                 0.0321
     3 (A) A             12 (A) A                -0.0282
     7 (A) A             11 (A) A                 0.0216
     5 (A) A             22 (A) A                 0.0212
     4 (A) A             24 (A) A                 0.0186
     3 (A) A             26 (A) A                -0.0184
     8 (A) A   8 (A) B   17 (A) A   20 (A) B     -0.0184
     8 (A) A   8 (A) B    9 (A) A   28 (A) B     -0.0168
     6 (A) A             26 (A) A                -0.0161
     7 (A) A             21 (A) A                 0.0148
     3 (A) A             14 (A) A                -0.0140
     3 (A) A   4 (A) B    9 (A) A    9 (A) B     -0.0129
     3 (A) A             19 (A) A                 0.0121
     6 (A) A             12 (A) A                 0.0118
     8 (A) A   8 (A) B   18 (A) A   19 (A) B     -0.0113
     7 (A) A             32 (A) A                 0.0095
     7 (A) A             36 (A) A                 0.0085
     3 (A) A             23 (A) A                -0.0080
     8 (A) A   8 (A) B   25 (A) A   29 (A) B      0.0076
     6 (A) A             35 (A) A                -0.0070
     6 (A) A             40 (A) A                -0.0068
     3 (A) A   6 (A) B    9 (A) A   28 (A) B     -0.0065
     6 (A) A   8 (A) A   19 (A) A   28 (A) A      0.0062
     5 (A) A   7 (A) B    9 (A) A    9 (A) B     -0.0060
     5 (A) A   8 (A) B   11 (A) A   20 (A) B     -0.0059
     7 (A) A   8 (A) B   13 (A) A   20 (A) B      0.0059
     5 (A) A   8 (A) B   16 (A) A    9 (A) B     -0.0059
     3 (A) A   5 (A) B    9 (A) A   25 (A) B     -0.0058
     6 (A) A   8 (A) A    9 (A) A   18 (A) A     -0.0057
     5 (A) A   8 (A) B   11 (A) A    9 (A) B      0.0057
     7 (A) A   8 (A) B   22 (A) A   20 (A) B     -0.0057
     3 (A) A             40 (A) A                -0.0057
     8 (A) A   8 (A) B   19 (A) A   30 (A) B     -0.0056
    -----------------------------------------------------

  Density matrix analysis:
  ------------------------
  NOs
    Occupation of frontier NOs:
       0.9494   1.0217
    Number of electrons: 16.000000
    Number of unpaired electrons: n_u =  2.31366, n_u,nl =  2.03287
    NO participation ratio (PR_NO):  2.864941
  
  
  Mulliken Population Analysis
  Atom      Charge (e)              h+              e-           Del q
  --------------------------------------------------------------------
   1 H        0.057077        0.019975       -0.012534        0.007441
   2 C       -0.112195        0.490480       -0.504811       -0.014331
   3 H        0.058529        0.019840       -0.012651        0.007189
   4 C       -0.119958        0.490154       -0.505406       -0.015252
   5 H        0.057589        0.019851       -0.012562        0.007289
   6 H        0.058959        0.020103       -0.012439        0.007664
  --------------------------------------------------------------------
  Sum:        0.000000        1.060404       -1.060404       -0.000000
  
  Multipole moment analysis of the density matrix
    Molecular charge:                      0.000000
    Number of electrons:                   16.000000
      Center of electronic charge [Ang]: [ -1.556822,  -0.065636,   0.001947]
    Total nuclear charge:                  16.000000
      Center of nuclear charge [Ang]:    [ -1.556826,  -0.065602,   0.001978]
    Dipole moment [D]:                     0.003561
      Cartesian components [D]:          [ -0.000303,   0.002626,   0.002386]
    RMS size of the density [Ang]:         1.215647
      Cartesian components [Ang]:        [  0.806477,   0.787209,   0.455736]
  
  Exciton analysis of the difference density matrix
    <r_h> [Ang]:                  [ -1.555629,  -0.065863,   0.001633]
    <r_e> [Ang]:                  [ -1.555644,  -0.065599,   0.001560]
    |<r_e - r_h>| [Ang]:            0.000275
    Hole size [Ang]:                1.286370
      Cartesian components [Ang]: [  0.730138,   0.711847,   0.784167]
    Electron size [Ang]:            1.462876
      Cartesian components [Ang]: [  0.856429,   0.828343,   0.848754]

  Transition density matrix analysis:
  -----------------------------------
  
  CT numbers (Mulliken)
    omega =     0.9535
    <Phe> =    -0.1626
  
  Exciton analysis of the transition density matrix
    Trans. dipole moment [D]:             1.833555
      Cartesian components [D]:         [  1.330843,  -1.261201,  -0.012341]
    <r_h> [Ang]:                        [ -1.555036,  -0.066148,   0.001717]
    <r_e> [Ang]:                        [ -1.555746,  -0.065586,   0.001503]
    |<r_e - r_h>| [Ang]:                  0.000930
    Hole size [Ang]:                      1.216901
      Cartesian components [Ang]:       [  0.652797,   0.637222,   0.805389]
    Electron size [Ang]:                  1.484798
      Cartesian components [Ang]:       [  0.866523,   0.836681,   0.868175]
    RMS electron-hole separation [Ang]:   1.938730
      Cartesian components [Ang]:       [  1.111983,   1.073797,   1.170097]
    Covariance(r_h, r_e) [Ang^2]:        -0.036600
    Correlation coefficient:             -0.020256
    Center-of-mass size [Ang]:            0.950299
      Cartesian components [Ang]:       [  0.528561,   0.514571,   0.599089]

  Decomposition into state-averaged NTOs
    H- 0 -> L+ 0:  0.6698 ( 89.7%)
    H- 2 -> L+ 5:  0.0851 (  1.4%)
    H- 5 -> L+ 6:  0.0711 (  1.0%)
                   omega =  95.4%
  ----------------------------------------------------------------------------


  Excited state 2 (singlet, A)                                     [converged]
  ----------------------------------------------------------------------------
  Term symbol:  3 (1) A                                     R^2 =  3.61171e-13

  Total energy:                                            -77.9868135121 a.u.
  Excitation energy:                                               9.053429 eV

  Osc. strength:                                                      0.000181
  Trans. dip. moment [a.u.]:           [  -0.001192,    0.004746,   -0.028160]
  <i|r^2|0> [a.u.]:                    [   0.052694,    0.091621,   -0.149995]
  Two-photon absorption cross-section (SoS) [a.u.]:                   5.060395
  Two-photon absorption matrix (SoS) [a.u.]:
                                       |    0.050670    0.059282   -0.529443 |
                                       |    0.059282    0.069468   -0.581279 |
                                       |   -0.529443   -0.581279   -0.119530 |
  Two-photon absorption cross-section [a.u.]:                         0.090874
  Two-photon absorption matrix [a.u.]:
                                       |   -0.002588   -0.006325    0.021976 |
                                       |   -0.006325   -0.011342    0.103249 |
                                       |    0.021976    0.103249    0.014708 |

  Dip. moment [a.u.]:                  [   0.010699,    0.058241,    0.005580]
  Total dipole [Debye]:                                               0.151178
  <r^2> [a.u.]:                        [ 174.298014,   33.919344,   13.162560]
  Total <r^2> [a.u.]:                                               221.379918

  V1^2 = 0.9540, V2^2 = 0.0460

  Important amplitudes:
      occ i     occ j     vir a      vir b          v   
    -----------------------------------------------------
     7 (A) A              9 (A) A                -0.6670
     8 (A) A             11 (A) A                -0.1477
     7 (A) A             20 (A) A                -0.0755
     8 (A) A             10 (A) A                 0.0545
     5 (A) A   8 (A) B    9 (A) A    9 (A) B      0.0318
     8 (A) A             16 (A) A                 0.0272
     8 (A) A             21 (A) A                -0.0177
     5 (A) A             28 (A) A                 0.0149
     4 (A) A   7 (A) B    9 (A) A   19 (A) B      0.0135
     5 (A) A   7 (A) B    9 (A) A   16 (A) B     -0.0133
     7 (A) A   8 (A) B   20 (A) A   17 (A) B      0.0105
     7 (A) A   8 (A) A    9 (A) A   28 (A) A     -0.0097
     5 (A) A   8 (A) B    9 (A) A   20 (A) B      0.0095
     6 (A) A              9 (A) A                 0.0091
     5 (A) A   6 (A) A    9 (A) A   23 (A) A      0.0091
     4 (A) A   6 (A) B    9 (A) A   16 (A) B      0.0091
     5 (A) A   6 (A) A    9 (A) A   14 (A) A      0.0090
     5 (A) A   6 (A) B    9 (A) A   19 (A) B     -0.0088
     8 (A) A   7 (A) B    9 (A) A   28 (A) B      0.0085
     4 (A) A   5 (A) A    9 (A) A   10 (A) A      0.0084
     6 (A) A   7 (A) B    9 (A) A   18 (A) B      0.0081
     5 (A) A   6 (A) B    9 (A) A   23 (A) B      0.0080
     3 (A) A   7 (A) B    9 (A) A   18 (A) B     -0.0079
     5 (A) A   7 (A) A    9 (A) A   16 (A) A     -0.0079
     4 (A) A   8 (A) B    9 (A) A   25 (A) B      0.0076
     8 (A) A             12 (A) A                 0.0076
     7 (A) A   8 (A) B   17 (A) A   20 (A) B      0.0074
     4 (A) A   7 (A) B   19 (A) A    9 (A) B      0.0073
     7 (A) A   8 (A) B   19 (A) A   18 (A) B      0.0071
     5 (A) A   5 (A) B    9 (A) A   13 (A) B      0.0071
     5 (A) A   8 (A) A    9 (A) A   20 (A) A      0.0069
     4 (A) A   5 (A) B    9 (A) A   18 (A) B     -0.0067
     7 (A) A   8 (A) B   17 (A) A    9 (A) B      0.0066
     5 (A) A   6 (A) B    9 (A) A   14 (A) B      0.0065
     7 (A) A   7 (A) B   20 (A) A   22 (A) B      0.0065
     4 (A) A   7 (A) A    9 (A) A   19 (A) A      0.0061
     4 (A) A   5 (A) B   10 (A) A    9 (A) B     -0.0061
     5 (A) A   7 (A) B   11 (A) A   20 (A) B      0.0060
     4 (A) A   7 (A) B    9 (A) A   14 (A) B      0.0059
     6 (A) A   7 (A) A   19 (A) A   28 (A) A     -0.0057
    -----------------------------------------------------

  Density matrix analysis:
  ------------------------
  NOs
    Occupation of frontier NOs:
       0.9524   1.0596
    Number of electrons: 16.000000
    Number of unpaired electrons: n_u =  2.35603, n_u,nl =  2.06705
    NO participation ratio (PR_NO):  3.062587
  
  
  Mulliken Population Analysis
  Atom      Charge (e)              h+              e-           Del q
  --------------------------------------------------------------------
   1 H        0.144233        0.110469       -0.015873        0.094596
   2 C       -0.294394        0.268709       -0.465239       -0.196530
   3 H        0.147249        0.132454       -0.036544        0.095910
   4 C       -0.300729        0.276555       -0.472578       -0.196023
   5 H        0.165900        0.132352       -0.016752        0.115600
   6 H        0.137742        0.120455       -0.034008        0.086447
  --------------------------------------------------------------------
  Sum:        0.000000        1.040995       -1.040995       -0.000000
  
  Multipole moment analysis of the density matrix
    Molecular charge:                      0.000000
    Number of electrons:                   16.000000
      Center of electronic charge [Ang]: [ -1.557180,  -0.067529,   0.001794]
    Total nuclear charge:                  16.000000
      Center of nuclear charge [Ang]:    [ -1.556826,  -0.065602,   0.001978]
    Dipole moment [D]:                     0.151178
      Cartesian components [D]:          [  0.027194,   0.148034,   0.014184]
    RMS size of the density [Ang]:         1.202152
      Cartesian components [Ang]:        [  0.791022,   0.767521,   0.479964]
  
  Exciton analysis of the difference density matrix
    <r_h> [Ang]:                  [ -1.577233,  -0.061513,   0.001350]
    <r_e> [Ang]:                  [ -1.582748,  -0.090325,  -0.001083]
    |<r_e - r_h>| [Ang]:            0.029435
    Hole size [Ang]:                1.485468
      Cartesian components [Ang]: [  0.979433,   1.018602,   0.458014]
    Electron size [Ang]:            1.482779
      Cartesian components [Ang]: [  0.885259,   0.865630,   0.815864]

  Transition density matrix analysis:
  -----------------------------------
  
  CT numbers (Mulliken)
    omega =     0.9213
    <Phe> =    -0.0123
  
  Exciton analysis of the transition density matrix
    Trans. dipole moment [D]:             0.036324
      Cartesian components [D]:         [ -0.001514,   0.006031,  -0.035788]
    <r_h> [Ang]:                        [ -1.578975,  -0.059254,   0.001497]
    <r_e> [Ang]:                        [ -1.582382,  -0.093795,  -0.001379]
    |<r_e - r_h>| [Ang]:                  0.034827
    Hole size [Ang]:                      1.511822
      Cartesian components [Ang]:       [  0.998434,   1.043469,   0.447108]
    Electron size [Ang]:                  1.480313
      Cartesian components [Ang]:       [  0.877339,   0.855071,   0.830937]
    RMS electron-hole separation [Ang]:   2.096676
      Cartesian components [Ang]:       [  1.313888,   1.334465,   0.942841]
    Covariance(r_h, r_e) [Ang^2]:         0.041048
    Correlation coefficient:              0.018342
    Center-of-mass size [Ang]:            1.067594
      Cartesian components [Ang]:       [  0.672105,   0.681973,   0.472171]

  Decomposition into state-averaged NTOs
    H- 1 -> L+ 0: -0.6593 ( 86.9%)
    H- 0 -> L+ 2:  0.1483 (  4.4%)
                   omega =  92.1%
  ----------------------------------------------------------------------------


  Excited state 3 (singlet, A)                                     [converged]
  ----------------------------------------------------------------------------
  Term symbol:  4 (1) A                                     R^2 =  3.83209e-13

  Total energy:                                            -77.9836371428 a.u.
  Excitation energy:                                               9.139863 eV

  Osc. strength:                                                      0.025171
  Trans. dip. moment [a.u.]:           [  -0.016222,   -0.019465,    0.334317]
  <i|r^2|0> [a.u.]:                    [  -0.092454,    0.004413,   -0.013916]
  Two-photon absorption cross-section (SoS) [a.u.]:                   0.009556
  Two-photon absorption matrix (SoS) [a.u.]:
                                       |   -0.014426   -0.002766    0.031362 |
                                       |   -0.002766    0.009433    0.005874 |
                                       |    0.031362    0.005874   -0.002966 |
  Two-photon absorption cross-section [a.u.]:                         0.032706
  Two-photon absorption matrix [a.u.]:
                                       |   -0.015971   -0.004268    0.053199 |
                                       |   -0.004268    0.001059    0.032784 |
                                       |    0.053199    0.032784    0.004842 |

  Dip. moment [a.u.]:                  [   0.050048,    0.025860,    0.002966]
  Total dipole [Debye]:                                               0.143385
  <r^2> [a.u.]:                        [ 180.599014,   40.605951,   11.048896]
  Total <r^2> [a.u.]:                                               232.253861

  V1^2 = 0.9589, V2^2 = 0.0411

  Important amplitudes:
      occ i     occ j     vir a      vir b          v   
    -----------------------------------------------------
     8 (A) A             10 (A) A                -0.6869
     7 (A) A              9 (A) A                -0.0552
     8 (A) A             24 (A) A                -0.0504
     8 (A) A             18 (A) A                 0.0310
     4 (A) A              9 (A) A                -0.0237
     8 (A) A   8 (A) B    9 (A) A   12 (A) B      0.0220
     8 (A) A             15 (A) A                -0.0173
     8 (A) A   8 (A) B   10 (A) A   17 (A) B     -0.0171
     5 (A) A   8 (A) B   11 (A) A   10 (A) B     -0.0163
     7 (A) A   8 (A) B   13 (A) A   10 (A) B      0.0140
     4 (A) A   8 (A) B   12 (A) A   10 (A) B      0.0110
     6 (A) A   8 (A) A   10 (A) A   15 (A) A      0.0108
     7 (A) A   8 (A) B   22 (A) A   10 (A) B     -0.0107
     6 (A) A   8 (A) B   15 (A) A   10 (A) B     -0.0106
     4 (A) A   8 (A) A   10 (A) A   12 (A) A     -0.0105
     7 (A) A   8 (A) A   10 (A) A   22 (A) A      0.0098
     7 (A) A   8 (A) A   10 (A) A   13 (A) A     -0.0096
     5 (A) A   8 (A) B   21 (A) A   10 (A) B     -0.0094
     5 (A) A   8 (A) A   10 (A) A   11 (A) A      0.0092
     6 (A) A   8 (A) A   10 (A) A   18 (A) A      0.0089
     6 (A) A   8 (A) B   10 (A) A   10 (A) B      0.0086
     7 (A) A   8 (A) A   12 (A) A   16 (A) A      0.0081
     3 (A) A   4 (A) B   10 (A) A    9 (A) B      0.0079
     5 (A) A   8 (A) A   10 (A) A   21 (A) A      0.0079
     8 (A) A   8 (A) B    9 (A) A   23 (A) B     -0.0076
     4 (A) A   8 (A) B   19 (A) A   10 (A) B     -0.0074
     8 (A) A   8 (A) B   10 (A) A   28 (A) B      0.0073
     3 (A) A   8 (A) B   10 (A) A   10 (A) B     -0.0072
     3 (A) A   8 (A) A   10 (A) A   24 (A) A      0.0071
     5 (A) A   8 (A) B   10 (A) A   11 (A) B     -0.0071
     7 (A) A   8 (A) B   16 (A) A   12 (A) B     -0.0070
     3 (A) A   8 (A) B   10 (A) A   18 (A) B      0.0068
     6 (A) A   8 (A) B   18 (A) A   10 (A) B     -0.0067
     8 (A) A   8 (A) B    9 (A) A   19 (A) B     -0.0067
     3 (A) A   6 (A) B   10 (A) A   28 (A) B      0.0062
     7 (A) A             20 (A) A                -0.0061
     7 (A) A   8 (A) B   12 (A) A   11 (A) B      0.0057
     6 (A) A             28 (A) A                -0.0056
     3 (A) A   5 (A) B   10 (A) A   25 (A) B      0.0056
     3 (A) A   8 (A) A   10 (A) A   18 (A) A      0.0055
    -----------------------------------------------------

  Density matrix analysis:
  ------------------------
  NOs
    Occupation of frontier NOs:
       0.9787   0.9875
    Number of electrons: 16.000000
    Number of unpaired electrons: n_u =  2.29818, n_u,nl =  2.02741
    NO participation ratio (PR_NO):  2.721960
  
  
  Mulliken Population Analysis
  Atom      Charge (e)              h+              e-           Del q
  --------------------------------------------------------------------
   1 H       -0.154964        0.054436       -0.259036       -0.204601
   2 C        0.325731        0.531133       -0.107538        0.423595
   3 H       -0.166092        0.053378       -0.270810       -0.217432
   4 C        0.321917        0.532447       -0.105823        0.426624
   5 H       -0.159728        0.055044       -0.265071       -0.210028
   6 H       -0.166864        0.053271       -0.271430       -0.218158
  --------------------------------------------------------------------
  Sum:        0.000000        1.279709       -1.279709       -0.000000
  
  Multipole moment analysis of the density matrix
    Molecular charge:                      0.000000
    Number of electrons:                   16.000000
      Center of electronic charge [Ang]: [ -1.558481,  -0.066458,   0.001880]
    Total nuclear charge:                  16.000000
      Center of nuclear charge [Ang]:    [ -1.556826,  -0.065602,   0.001978]
    Dipole moment [D]:                     0.143385
      Cartesian components [D]:          [  0.127209,   0.065729,   0.007540]
    RMS size of the density [Ang]:         1.277330
      Cartesian components [Ang]:        [  0.855535,   0.840393,   0.439741]
  
  Exciton analysis of the difference density matrix
    <r_h> [Ang]:                  [ -1.556636,  -0.064155,   0.001856]
    <r_e> [Ang]:                  [ -1.577393,  -0.074202,   0.000958]
    |<r_e - r_h>| [Ang]:            0.023078
    Hole size [Ang]:                1.413553
      Cartesian components [Ang]: [  0.837065,   0.821928,   0.788599]
    Electron size [Ang]:            2.079035
      Cartesian components [Ang]: [  1.373226,   1.380740,   0.728146]

  Transition density matrix analysis:
  -----------------------------------
  
  CT numbers (Mulliken)
    omega =     0.9258
    <Phe> =    -0.0110
  
  Exciton analysis of the transition density matrix
    Trans. dipole moment [D]:             0.426092
      Cartesian components [D]:         [ -0.020616,  -0.024738,   0.424874]
    <r_h> [Ang]:                        [ -1.552808,  -0.062941,   0.001919]
    <r_e> [Ang]:                        [ -1.583369,  -0.076597,   0.000704]
    |<r_e - r_h>| [Ang]:                  0.033495
    Hole size [Ang]:                      1.218222
      Cartesian components [Ang]:       [  0.643139,   0.628136,   0.822121]
    Electron size [Ang]:                  2.291783
      Cartesian components [Ang]:       [  1.511654,   1.523507,   0.803802]
    RMS electron-hole separation [Ang]:   2.585529
      Cartesian components [Ang]:       [  1.635323,   1.640872,   1.148136]
    Covariance(r_h, r_e) [Ang^2]:         0.026248
    Correlation coefficient:              0.009401
    Center-of-mass size [Ang]:            1.302769
      Cartesian components [Ang]:       [  0.825242,   0.827494,   0.575705]

  Decomposition into state-averaged NTOs
    H- 0 -> L+ 1:  0.6775 ( 91.8%)
                   omega =  92.6%
  ----------------------------------------------------------------------------


  Excited state 4 (singlet, A)                                     [converged]
  ----------------------------------------------------------------------------
  Term symbol:  5 (1) A                                     R^2 =  2.44802e-13

  Total energy:                                            -77.9582504815 a.u.
  Excitation energy:                                               9.830669 eV

  Osc. strength:                                                      0.000050
  Trans. dip. moment [a.u.]:           [   0.000462,   -0.002023,    0.014197]
  <i|r^2|0> [a.u.]:                    [   0.021855,    0.017585,   -0.037290]
  Two-photon absorption cross-section (SoS) [a.u.]:                 154.177849
  Two-photon absorption matrix (SoS) [a.u.]:
                                       |    0.288793    0.329405   -3.059374 |
                                       |    0.329405    0.371151   -3.078255 |
                                       |   -3.059374   -3.078255   -0.659883 |
  Two-photon absorption cross-section [a.u.]:                        96.091746
  Two-photon absorption matrix [a.u.]:
                                       |    0.223542    0.259581   -2.379458 |
                                       |    0.259581    0.297999   -2.465115 |
                                       |   -2.379458   -2.465115   -0.521701 |

  Dip. moment [a.u.]:                  [  -0.079492,   -0.090845,   -0.010211]
  Total dipole [Debye]:                                               0.307919
  <r^2> [a.u.]:                        [ 180.259527,   40.671170,   10.777692]
  Total <r^2> [a.u.]:                                               231.708390

  V1^2 = 0.9635, V2^2 = 0.0365

  Important amplitudes:
      occ i     occ j     vir a      vir b          v   
    -----------------------------------------------------
     8 (A) A             11 (A) A                -0.6698
     7 (A) A              9 (A) A                 0.1493
     8 (A) A             21 (A) A                -0.0781
     8 (A) A             16 (A) A                 0.0637
     8 (A) A   8 (A) B    9 (A) A   13 (A) B      0.0169
     6 (A) A              9 (A) A                -0.0155
     5 (A) A   8 (A) B   11 (A) A   11 (A) B     -0.0155
     8 (A) A   8 (A) B   11 (A) A   17 (A) B     -0.0140
     7 (A) A             20 (A) A                 0.0136
     7 (A) A   8 (A) B   13 (A) A   11 (A) B      0.0127
     5 (A) A   8 (A) A   11 (A) A   21 (A) A      0.0110
     4 (A) A   8 (A) B   12 (A) A   11 (A) B      0.0110
     8 (A) A             12 (A) A                 0.0109
     8 (A) A   8 (A) B    9 (A) A   22 (A) B     -0.0108
     8 (A) A             10 (A) A                -0.0102
     7 (A) A   8 (A) A   11 (A) A   22 (A) A      0.0096
     6 (A) A   8 (A) B   15 (A) A   11 (A) B     -0.0089
     6 (A) A   8 (A) B   10 (A) A   11 (A) B      0.0089
     7 (A) A   8 (A) B   22 (A) A   11 (A) B     -0.0089
     3 (A) A   4 (A) B   11 (A) A    9 (A) B      0.0083
     3 (A) A   8 (A) B   11 (A) A   18 (A) B      0.0081
     6 (A) A   8 (A) A   11 (A) A   15 (A) A      0.0080
     7 (A) A   8 (A) A   13 (A) A   16 (A) A      0.0078
     7 (A) A   8 (A) A   11 (A) A   13 (A) A     -0.0077
     5 (A) A   8 (A) B   21 (A) A   11 (A) B     -0.0071
     4 (A) A   8 (A) B   19 (A) A   11 (A) B     -0.0069
     5 (A) A   8 (A) B    9 (A) A    9 (A) B     -0.0067
     6 (A) A   8 (A) A   11 (A) A   18 (A) A      0.0063
     4 (A) A   8 (A) A   11 (A) A   12 (A) A     -0.0063
     3 (A) A   6 (A) B   11 (A) A   28 (A) B      0.0061
     6 (A) A   8 (A) B   18 (A) A   11 (A) B     -0.0060
     7 (A) A   8 (A) B   16 (A) A   13 (A) B     -0.0057
     3 (A) A   8 (A) A   11 (A) A   18 (A) A      0.0056
     5 (A) A   8 (A) B   10 (A) A   10 (A) B     -0.0056
     3 (A) A   8 (A) B   11 (A) A   30 (A) B      0.0055
     3 (A) A   5 (A) B   11 (A) A   25 (A) B      0.0054
     6 (A) A   8 (A) B   11 (A) A   10 (A) B      0.0054
     7 (A) A   8 (A) B   12 (A) A   10 (A) B      0.0054
     8 (A) A   8 (A) B   20 (A) A   22 (A) B     -0.0053
     3 (A) A   8 (A) A   11 (A) A   24 (A) A      0.0053
    -----------------------------------------------------

  Density matrix analysis:
  ------------------------
  NOs
    Occupation of frontier NOs:
       0.9409   1.0275
    Number of electrons: 16.000000
    Number of unpaired electrons: n_u =  2.31960, n_u,nl =  2.04911
    NO participation ratio (PR_NO):  2.914172
  
  
  Mulliken Population Analysis
  Atom      Charge (e)              h+              e-           Del q
  --------------------------------------------------------------------
   1 H       -0.159938        0.045117       -0.254692       -0.209575
   2 C        0.281104        0.496690       -0.117722        0.378968
   3 H       -0.118061        0.047421       -0.216822       -0.169401
   4 C        0.271806        0.497571       -0.121059        0.376512
   5 H       -0.150709        0.047852       -0.248860       -0.201008
   6 H       -0.124202        0.045066       -0.220563       -0.175496
  --------------------------------------------------------------------
  Sum:        0.000000        1.179717       -1.179717       -0.000000
  
  Multipole moment analysis of the density matrix
    Molecular charge:                      0.000000
    Number of electrons:                   16.000000
      Center of electronic charge [Ang]: [ -1.554197,  -0.062598,   0.002316]
    Total nuclear charge:                  16.000000
      Center of nuclear charge [Ang]:    [ -1.556826,  -0.065602,   0.001978]
    Dipole moment [D]:                     0.307919
      Cartesian components [D]:          [ -0.202047,  -0.230906,  -0.025954]
    RMS size of the density [Ang]:         1.279006
      Cartesian components [Ang]:        [  0.859845,   0.841368,   0.434308]
  
  Exciton analysis of the difference density matrix
    <r_h> [Ang]:                  [ -1.554385,  -0.062696,   0.002016]
    <r_e> [Ang]:                  [ -1.518795,  -0.021245,   0.006953]
    |<r_e - r_h>| [Ang]:            0.054856
    Hole size [Ang]:                1.397177
      Cartesian components [Ang]: [  0.818142,   0.810130,   0.791477]
    Electron size [Ang]:            2.128090
      Cartesian components [Ang]: [  1.433259,   1.418444,   0.680111]

  Transition density matrix analysis:
  -----------------------------------
  
  CT numbers (Mulliken)
    omega =     0.9296
    <Phe> =    -0.0132
  
  Exciton analysis of the transition density matrix
    Trans. dipole moment [D]:             0.018235
      Cartesian components [D]:         [  0.000587,  -0.002571,   0.018043]
    <r_h> [Ang]:                        [ -1.556117,  -0.065533,   0.001632]
    <r_e> [Ang]:                        [ -1.512232,  -0.012338,   0.007904]
    |<r_e - r_h>| [Ang]:                  0.069245
    Hole size [Ang]:                      1.230500
      Cartesian components [Ang]:       [  0.657641,   0.653903,   0.808734]
    Electron size [Ang]:                  2.266438
      Cartesian components [Ang]:       [  1.526311,   1.511538,   0.722752]
    RMS electron-hole separation [Ang]:   2.569138
      Cartesian components [Ang]:       [  1.654019,   1.639897,   1.084172]
    Covariance(r_h, r_e) [Ang^2]:         0.027599
    Correlation coefficient:              0.009896
    Center-of-mass size [Ang]:            1.294804
      Cartesian components [Ang]:       [  0.835221,   0.827382,   0.542552]

  Decomposition into state-averaged NTOs
    H- 0 -> L+ 2:  0.6644 ( 88.3%)
    H- 1 -> L+ 0:  0.1472 (  4.3%)
                   omega =  93.0%
  ----------------------------------------------------------------------------


  Excited state 5 (singlet, A)                                     [converged]
  ----------------------------------------------------------------------------
  Term symbol:  6 (1) A                                     R^2 =  2.41203e-13

  Total energy:                                            -77.9460565457 a.u.
  Excitation energy:                                              10.162483 eV

  Osc. strength:                                                      0.000003
  Trans. dip. moment [a.u.]:           [   0.000089,   -0.000140,    0.003413]
  <i|r^2|0> [a.u.]:                    [   0.091870,   -0.103230,    0.011753]
  Two-photon absorption cross-section (SoS) [a.u.]:                 150.230726
  Two-photon absorption matrix (SoS) [a.u.]:
                                       |    0.291795    0.042729   -3.099875 |
                                       |    0.042729   -0.360050    3.009693 |
[...]
    16   -1.538027240817e-03
    17   -1.719813287250e-03
    18   -6.928418097363e-04
    19   -3.445816625840e-03
    20    1.181136273710e-02
    21    9.371899074190e-01
    22   -1.750402986834e-04
    23    1.395472399633e-02
    24    8.090127648594e-04
    25    7.091267159840e-02
    26   -5.342543500524e-02
    27   -1.403014335521e+00
    28    9.941956034873e-02
    29   -9.068473283098e-02
    30   -7.542580765590e-04
    31    3.942056319478e-01
    32   -3.564189491571e-01
    33   -2.796577621308e-03
    34    1.579956832131e-02
    35   -1.494183600366e-03
    36   -1.803919498894e-03
    37   -5.500094030214e-05
    38   -3.207907575205e-03
    39    8.954855430215e-03
    40    9.222013492769e-01
    41    2.332343904909e-04
    42   -1.378566497805e-02
    43   -8.180143059295e-04
    44    1.140032687817e-02
    45    9.615169827506e-01
    46    1.441286043698e-02
    47    4.695101512972e-04
    48    7.076641945054e-04
Sym=X
Ene= 0.233544
Spin=Alpha
Occup=0
     1    2.393610509971e-02
     2    1.252885129708e+00
     3   -1.463115908476e-02
     4   -4.077396506954e-03
     5   -9.319030328670e-04
     6    3.110841889845e-03
     7   -3.957748088889e-03
     8   -5.647616228336e-02
     9   -1.534450717322e-01
    10   -1.579718242850e-01
    11   -1.656656062179e-02
    12   -5.709257291588e-01
    13   -5.558715158113e-01
    14   -5.970118660717e-02
    15    5.512381575145e-04
    16   -1.124852836311e-04
    17   -6.241619871721e-05
    18   -5.999730897333e-04
    19   -4.627262247921e-04
    20   -2.523133372130e-02
    21   -1.162754219647e+00
    22   -2.443160070456e-03
    23   -1.364410045507e-02
    24   -9.200158234564e-04
    25   -9.890697342472e-04
    26    2.467600805719e-03
    27   -5.802812531651e-03
    28   -1.513409943993e-01
    29   -1.617580888039e-01
    30   -1.688242879077e-02
    31   -5.439311565984e-01
    32   -5.610373855368e-01
    33   -5.951872026557e-02
    34    2.955566020955e-04
    35    3.885841580748e-05
    36   -1.135557124972e-04
    37    1.275214256153e-03
    38    5.786167030422e-05
    39    2.402395023186e-02
    40    1.184217396678e+00
    41   -2.525053104551e-03
    42   -1.431845453721e-02
    43   -9.776246202971e-04
    44   -2.480416859275e-02
    45   -1.196744692659e+00
    46   -1.379918433702e-02
    47   -3.787569273292e-03
    48   -8.833526716742e-04
Sym=X
Ene= 0.239588
Spin=Alpha
Occup=0
     1    1.611922877608e-02
     2    1.079146844869e+00
     3   -1.717654276747e-02
     4   -9.011978779781e-03
     5   -1.368780946658e-03
     6    8.716038745877e-02
     7   -8.029491336032e-02
     8   -1.614371597831e+00
     9   -5.302665717464e-02
    10    5.932669758372e-02
    11    7.129329187128e-04
    12   -2.117657349453e-01
    13    2.242307925913e-01
    14    2.046266981552e-03
    15    2.281306367484e-02
    16   -2.678060301190e-03
    17   -2.965557775020e-03
    18    1.325149811182e-04
    19   -1.307347398218e-02
    20    1.637897803418e-02
    21    1.111373118482e+00
    22    8.560284458845e-03
    23    1.758894664856e-02
    24    1.428884121352e-03
    25   -8.623237925528e-02
    26    7.869976297867e-02
    27    1.596357221805e+00
    28   -5.438218173024e-02
    29    5.858403990297e-02
    30    1.178664982121e-03
    31   -2.085433459149e-01
    32    2.299275271519e-01
    33    4.955232857740e-03
    34   -2.247070812522e-02
    35    2.560637817075e-03
    36    3.005010839825e-03
    37   -6.267461934982e-04
    38    1.274163608497e-02
    39   -1.713048412197e-02
    40   -1.112910155520e+00
    41    8.608066285589e-03
    42    1.767771172803e-02
    43    1.478690973101e-03
    44   -1.557705245753e-02
    45   -1.054253001025e+00
    46   -1.643727305643e-02
    47   -9.354606109927e-03
    48   -1.318558568389e-03
Sym=X
Ene= 0.302823
Spin=Alpha
Occup=0
     1   -2.252305794941e-02
     2    1.709304799253e+00
     3   -2.285708793115e-02
     4   -7.000560478788e-05
     5   -1.094102584979e-03
     6   -3.250502641548e-04
     7    4.442622082780e-04
     8   -1.769158705511e-02
     9   -1.337481954297e-01
    10   -1.391069508753e-01
    11   -1.454472665719e-02
    12   -1.146299163144e+00
    13   -1.188837851537e+00
    14   -1.247714968213e-01
    15    1.511303301881e-04
    16   -1.734007170382e-03
    17    1.776529411025e-03
    18   -3.272845876501e-02
    19   -2.087396906955e-03
    20    1.847732933575e-02
    21   -1.682834658712e+00
    22    1.413662077650e-03
    23   -2.277411956218e-02
    24   -1.270045802553e-03
    25    2.041339118841e-04
    26    3.513310311587e-04
    27   -1.876910456352e-02
    28    1.353105713926e-01
    29    1.401476812123e-01
    30    1.480085957462e-02
    31    1.130820794210e+00
    32    1.193515443076e+00
    33    1.247270328653e-01
    34    1.489035805961e-04
    35   -1.600015714358e-03
    36    1.850972100479e-03
    37   -3.202888675583e-02
    38   -1.966424334954e-03
    39    1.778528073421e-02
    40   -1.685726929892e+00
    41   -1.647077670739e-03
    42    2.266554053985e-02
    43    1.290994022454e-03
    44   -1.932325846758e-02
    45    1.699864547598e+00
    46    2.299376704836e-02
    47   -1.296107093102e-04
    48    1.068664045493e-03
Sym=X
Ene= 0.460294
Spin=Alpha
Occup=0
     1   -1.125441202116e-01
     2   -7.338014583580e-01
     3   -1.506860603948e-02
     4   -1.117093525166e-02
     5   -1.362847601317e-03
     6    6.065629417161e-02
     7    1.685843120867e-02
     8   -3.490269832455e+00
     9    1.033177837857e-01
    10   -1.001937811597e-01
    11   -8.602573118743e-04
    12    2.414398488081e+00
    13   -2.258204850437e+00
    14   -1.965643274045e-02
    15    5.302993638960e-02
    16   -3.357226720605e-03
    17   -4.707222808091e-03
    18   -9.349923351768e-05
    19    1.637873816240e-02
    20   -1.292216161062e-01
    21   -6.750405128684e-01
    22    8.286811798256e-03
    23    1.627499956197e-02
    24    1.361659620724e-03
    25   -6.119010865682e-02
    26   -1.424935132376e-02
    27    3.498533444606e+00
    28    1.088133228331e-01
    29   -1.037579955553e-01
    30   -1.163072263410e-03
    31    2.395339183294e+00
    32   -2.255207231292e+00
    33   -2.196035296563e-02
    34   -5.107251767469e-02
    35    3.124974460232e-03
    36    4.378890551801e-03
    37    2.980533254402e-04
    38   -1.896066589253e-02
    39    1.153169774691e-01
    40    7.025657400922e-01
    41    8.051298645729e-03
    42    1.582118494497e-02
    43    1.323160761820e-03
    44    1.038078972174e-01
    45    7.205665931403e-01
    46   -1.451383828711e-02
    47   -1.035675605113e-02
    48   -1.315680577667e-03
Sym=X
Ene= 0.578477
Spin=Alpha
Occup=0
     1    2.523559612190e-01
     2    4.260047481149e-02
     3   -1.693579209163e-02
     4    2.457425185605e-02
     5    6.420691254193e-04
     6   -2.806567811778e-03
     7   -1.497681941879e-01
     8   -5.150646497602e-01
     9    2.975615186198e-01
    10   -2.894764362761e-01
    11   -3.196429507651e-03
    12   -6.902532463134e-01
    13    6.649071117929e-01
    14    6.698923070504e-03
    15   -6.682151575881e-03
    16    3.965197794509e-03
    17    4.020979447480e-03
    18   -6.319131209443e-03
    19    6.209651493299e-02
    20    2.648941646245e-01
    21    2.458228224803e-03
    22   -2.663219941838e-02
    23    1.547645138585e-02
    24   -3.551048176775e-04
    25   -5.756667368634e-03
    26   -1.519120418080e-01
    27   -3.771458921279e-01
    28   -2.932068864036e-01
    29    2.837383626800e-01
    30    3.027267304536e-03
    31    7.812010025033e-01
    32   -7.577572534707e-01
    33   -8.316035802581e-03
    34   -6.827092191374e-03
    35    3.956100408595e-03
    36    4.051840286970e-03
    37   -6.553646364802e-03
    38    6.191766392366e-02
    39    2.612511810634e-01
    40    5.081979615455e-02
    41    2.787214746530e-02
    42   -1.596119679392e-02
    43    3.551813281593e-04
    44    2.493774015120e-01
    45    7.191705360127e-02
    46    1.859865744079e-02
    47   -2.634490491355e-02
    48   -7.052780473744e-04
Sym=X
Ene= 0.615438
Spin=Alpha
Occup=0
     1   -5.194869911168e-01
     2    1.602968747692e-01
     3   -6.123795310746e-02
     4    3.727727597302e-02
     5   -7.294776520950e-04
     6   -1.240542816413e-03
     7   -3.531076757065e-03
     8   -3.496255941605e-02
     9   -4.499062651450e-02
    10   -3.921697569680e-02
    11   -4.488859801262e-03
    12    3.501272375037e-01
    13    2.596735068325e-01
    14    3.178868716278e-02
    15    2.506365725810e-03
    16   -7.525268227235e-03
    17    8.088607044628e-03
    18   -1.463041357684e-01
    19   -4.551248971934e-03
    20    5.020002914060e-01
    21   -2.013761408317e-01
    22    4.268776599765e-02
    23   -5.754392563543e-02
    24   -1.364879659704e-03
    25    9.917819919898e-04
    26   -2.133552900877e-03
    27    6.016384244951e-02
    28   -4.369258502179e-02
    29   -3.914497463372e-02
    30   -4.372644061737e-03
    31    3.402956388869e-01
    32    2.652135476388e-01
    33    3.210797014850e-02
    34   -3.890938994363e-03
    35    7.673169512101e-03
    36   -8.360619259006e-03
    37    1.499659514297e-01
    38    6.441952243547e-03
    39   -5.079491306069e-01
    40    2.112272584047e-01
    41    4.163175805221e-02
    42   -5.770444786956e-02
    43   -1.501996808071e-03
    44    5.324658915142e-01
    45   -1.962646165336e-01
    46   -6.216068372933e-02
    47    3.676025618682e-02
    48   -7.042836188944e-04
Sym=X
Ene= 0.690699
Spin=Alpha
Occup=0
     1    2.928824381702e-04
     2   -3.246940639219e-04
     3    1.229239926755e-03
     4    1.380178479790e-03
     5   -2.296838852972e-02
     6    2.186172219924e-05
     7    6.035537662548e-04
     8   -4.436140322705e-04
     9    3.157649222037e-02
    10    3.999269131985e-02
    11   -6.720792042507e-01
    12   -2.861279286852e-02
    13   -3.670785503815e-02
    14    6.143188277332e-01
    15   -1.403676251713e-03
    16    8.310726782438e-02
    17   -7.766009280849e-02
    18   -8.589375754235e-03
    19   -1.223180550841e-03
    20    3.378792232533e-04
    21   -5.337039235098e-04
    22    9.342331340032e-04
    23    1.069889618571e-03
    24   -2.068492444743e-02
    25    3.011958590229e-05
    26    5.314431596363e-04
    27   -2.203877013684e-04
    28    3.199312984902e-02
    29    4.000952058949e-02
    30   -6.719503669636e-01
    31   -2.904251459706e-02
    32   -3.674847274844e-02
    33    6.131511662374e-01
    34    1.062439264568e-03
    35   -8.301460439016e-02
    36    7.787082305613e-02
    37    8.521613015787e-03
    38    1.341373458532e-03
    39    4.685560733934e-04
    40   -3.269253944491e-04
    41    1.066512314518e-03
    42    1.420382526958e-03
    43   -2.133578008833e-02
    44    4.198056072436e-04
    45   -1.326054174093e-04
    46    8.833373578270e-04
    47    1.242620231773e-03
    48   -2.136255320215e-02
Sym=X
Ene= 0.709564
Spin=Alpha
Occup=0
     1   -4.647636472116e-01
     2    1.434278009871e-01
     3   -8.135120406581e-02
     4   -4.356782590518e-02
     5   -6.448952994916e-03
     6   -4.777982198915e-02
     7   -3.252910482659e-01
     8    5.267577671481e-01
     9    2.063126094730e-01
    10   -2.007703722568e-01
    11   -2.859768447538e-03
    12   -1.116506219631e-01
    13    1.089782767161e-01
    14    2.136716198654e-03
    15    1.928460647763e-01
    16   -2.036306146132e-02
    17   -2.378441577231e-02
    18    2.590471366480e-03
    19   -7.740422596147e-02
    20   -4.713748797662e-01
    21    1.603239435978e-01
    22    4.155109166104e-02
    23    8.107602815050e-02
    24    6.755628102143e-03
    25   -4.712037647563e-02
    26   -3.205404978222e-01
    27    4.349274172023e-01
    28   -2.106009268443e-01
    29    1.933504047024e-01
    30    9.209972088293e-04
    31    7.162121264984e-02
    32   -4.144576395677e-02
    33    1.549927868841e-03
    34    1.961230884421e-01
    35   -2.047802165091e-02
    36   -2.404720230468e-02
    37    2.265128398906e-03
    38   -7.371019727612e-02
    39   -4.766599307417e-01
    40    1.326280738692e-01
    41   -4.005995873274e-02
    42   -8.217424844992e-02
    43   -6.836769724638e-03
    44   -4.706028827508e-01
    45    1.534539304602e-01
    46    8.239249998157e-02
    47    4.422740335288e-02
    48    6.509115543200e-03
Sym=X
Ene= 0.782930
Spin=Alpha
Occup=0
     1   -5.160283704220e-01
     2    4.254954850061e-01
     3   -1.077705928478e-01
     4   -2.484495554620e-02
     5   -6.576569884111e-03
     6   -9.148603884187e-02
     7    2.079546405147e-01
     8    6.131674108370e-01
     9   -1.265501107216e-01
    10    1.017605758974e-01
    11   -9.760364006578e-04
    12   -2.705435072957e-01
    13    2.868718122064e-01
    14    6.475969243626e-03
    15    2.085216942366e-01
    16   -1.751057845810e-02
    17   -2.201845495269e-02
    18    4.640286258971e-03
    19   -7.753444538117e-03
    20   -5.449389910237e-01
    21    4.817999802873e-01
    22    1.983970720820e-02
    23    1.149656006280e-01
    24    7.724745240115e-03
    25    9.092020616072e-02
    26   -2.187436760874e-01
    27   -6.151795834864e-01
    28   -1.240176720241e-01
    29    1.138383395115e-01
    30    2.049118583668e-03
    31   -2.793722515329e-01
    32    2.509496114968e-01
    33   -4.544164879712e-04
    34   -2.056511956671e-01
    35    1.697520787585e-02
    36    2.206371823553e-02
    37   -4.463006523290e-03
    38    5.204467094909e-03
    39    5.418007165030e-01
    40   -4.556427883636e-01
    41    1.946300926425e-02
    42    1.121031431650e-01
    43    7.649799525625e-03
    44    5.245526164040e-01
    45   -4.480672590534e-01
    46   -1.067831033452e-01
    47   -2.560194319015e-02
    48   -6.571486806187e-03
Sym=X
Ene= 0.807203
Spin=Alpha
Occup=0
     1    6.683301374608e-04
     2   -1.026067425267e-03
     3    1.946802973632e-03
     4    2.067272328749e-03
     5   -3.511624615694e-02
     6    1.291703595334e-04
     7   -2.003754051535e-04
     8   -1.288052633109e-04
     9    3.635278803805e-02
    10    4.480326632067e-02
    11   -7.625877411987e-01
    12   -5.275954639545e-02
    13   -6.673885874938e-02
    14    1.123509144937e+00
    15    5.475812965259e-04
    16   -6.353804166348e-02
    17    5.971248824948e-02
    18    6.623917382078e-03
    19    8.788675497400e-04
    20    6.962640718699e-04
    21   -6.171448120688e-04
    22    1.705708085220e-03
    23    1.807045808702e-03
    24   -3.457764392253e-02
    25   -1.319171716332e-04
    26    3.452997437205e-04
    27    4.934412831521e-05
    28   -3.578173844812e-02
    29   -4.608218242769e-02
    30    7.632639485343e-01
    31    5.346707283759e-02
    32    6.714472053309e-02
    33   -1.123290678401e+00
    34    1.344629253127e-03
    35   -6.358738012839e-02
    36    5.953945733592e-02
    37    6.484832492737e-03
    38    1.074444100974e-03
    39   -6.809778342981e-04
    40    5.316597613584e-04
    41   -1.559327654317e-03
    42   -2.258392637560e-03
    43    3.437538798677e-02
    44   -6.631256790169e-04
    45    1.036747355405e-03
    46   -1.314049124664e-03
    47   -1.992393528214e-03
    48    3.317943569072e-02
Sym=X
Ene= 0.863846
Spin=Alpha
Occup=0
     1    1.945884328647e-02
     2   -1.087742147008e+00
     3    1.484542654066e-01
     4    5.663694523952e-02
     5    1.042871248001e-02
     6    2.233073799664e-03
     7    6.980815909992e-03
     8    2.909530228852e-03
     9   -3.931411787267e-01
    10   -4.312541328908e-01
    11   -4.396343647970e-02
    12    9.248532348230e-01
    13    1.001469221257e+00
    14    1.026606886201e-01
    15   -7.219827931467e-03
    16    1.213245216168e-02
    17   -1.296074050142e-02
    18    2.356460485206e-01
    19    6.183928588279e-03
    20   -8.390703760401e-03
    21    1.102705681172e+00
    22    5.270505458087e-02
    23    1.494081767050e-01
    24    1.129943942776e-02
    25   -1.232447178045e-03
    26    1.320704644505e-02
    27   -1.921285632665e-02
    28   -4.043346862985e-01
    29   -4.419004205659e-01
    30   -4.571823375810e-02
    31    9.432576033197e-01
    32    1.025453708796e+00
    33    1.063284852963e-01
    34    2.721915474687e-03
    35   -1.197663382620e-02
    36    1.366845057303e-02
    37   -2.397179418111e-01
    38   -7.411431898775e-03
    39    1.273425984566e-02
    40   -1.113296975119e+00
    41    4.917381498461e-02
    42    1.532709317955e-01
    43    1.150943896001e-02
    44   -1.923926847723e-02
    45    1.102207953811e+00
    46    1.520986970104e-01
    47    5.524022197560e-02
    48    1.046995844188e-02
Sym=X
Ene= 0.935626
Spin=Alpha
Occup=0
     1   -1.108570625050e-01
     2    1.258191064391e+00
     3   -1.782318784478e-01
     4    9.107582482061e-03
     5   -7.915015610031e-03
     6   -2.255993772858e-03
     7   -3.304369962393e-02
     8    8.883627702861e-03
     9    4.522143131374e-01
    10    5.223074189885e-01
    11    5.235325775661e-02
    12   -1.420804669592e+00
    13   -1.605415514574e+00
    14   -1.624030330292e-01
    15    4.658198355522e-03
    16   -5.642374254162e-03
    17    7.301898677982e-03
    18   -1.244536108753e-01
    19    1.202844467087e-02
    20    1.158157328256e-01
    21   -1.340087064121e+00
    22    5.107488875407e-03
    23   -1.887026635601e-01
    24   -1.088168955753e-02
    25    1.302812442381e-03
    26   -1.779195657641e-02
    27    5.739307178022e-02
    28   -4.840433830699e-01
    29   -4.792232534845e-01
    30   -5.150844352770e-02
    31    1.502543616090e+00
    32    1.480335793619e+00
    33    1.594279282867e-01
    34   -4.206304351910e-03
    35   -5.781393845043e-03
    36    7.117644502613e-03
    37   -1.175664598199e-01
    38   -1.162963667000e-02
    39    1.171115515246e-01
    40   -1.257088036162e+00
    41   -1.531904479139e-02
    42    1.805399528415e-01
    43    1.014545776628e-02
    44   -1.113728674150e-01
    45    1.292668970442e+00
    46    1.791555096647e-01
    47   -3.895596679285e-03
    48    8.179950072001e-03
Sym=X
Ene= 0.968920
Spin=Alpha
Occup=0
     1   -7.546691893008e-02
     2    1.000728139755e+00
     3   -1.005919290747e-01
     4   -9.795280348876e-02
     5   -1.068052024546e-02
     6    2.261450318086e-02
     7    2.340573786631e-01
     8    5.754897721164e-01
     9    5.002958661262e-01
    10   -4.296289448959e-01
    11   -1.468174318252e-03
    12   -1.587084063989e+00
    13    1.333819906189e+00
    14    3.171870778165e-03
    15   -4.923879629819e-02
    16   -1.382137589710e-02
    17   -9.555894019922e-03
    18    5.423170702227e-03
    19   -3.021965580210e-01
    20   -6.884333091172e-02
    21    8.358018534888e-01
    22    9.533186594166e-02
    23    8.317080751288e-02
    24    9.350622280992e-03
    25   -2.268991683427e-02
    26   -2.326921175323e-01
    27   -5.782413903448e-01
    28    4.667399282884e-01
    29   -4.691301081863e-01
    30   -6.294568879747e-03
    31   -1.456450485026e+00
    32    1.487684988996e+00
    33    2.090722138491e-02
    34    4.842689478146e-02
    35    1.314716566374e-02
    36    1.021353443184e-02
    37   -1.640455077833e-02
    38    2.993641114657e-01
    39    7.112164755245e-02
    40   -9.563887709972e-01
    41    9.389321181966e-02
    42    9.937498162724e-02
    43    1.043278256136e-02
    44    7.912036920775e-02
    45   -8.834129504102e-01
    46   -8.635551605115e-02
    47   -9.762569186900e-02
    48   -9.837753016917e-03
[5D]

======= END OF MOLDEN-FORMATTED INPUT FILE =======


        *************************************************************
        *                                                           *
        *  Thank you very much for using Q-Chem.  Have a nice day.  *
        *                                                           *
        *************************************************************


