                  Welcome to Q-Chem
     A Quantum Leap Into The Future Of Chemistry


 Q-Chem 5.4 (devel), Q-Chem, Inc., Pleasanton, CA (2021)

 E. Epifanovsky,  A. T. B. Gilbert,  Xintian Feng,  Joonho Lee,  Yuezhi Mao,  
 N. Mardirossian,  P. Pokhilko,  A. White,  M. Wormit,  M. P. Coons,  
 A. L. Dempwolff,  Zhengting Gan,  D. Hait,  P. R. Horn,  L. D. Jacobson,  
 I. Kaliman,  J. Kussmann,  A. W. Lange,  Ka Un Lao,  D. S. Levine,  Jie Liu,  
 S. C. McKenzie,  A. F. Morrison,  K. Nanda,  F. Plasser,  D. R. Rehn,  
 M. L. Vidal,  Zhi-Qiang You,  Ying Zhu,  B. Alam,  B. Albrecht,  
 A. Aldossary,  E. Alguire,  J. H. Andersen,  D. Barton,  K. Begam,  A. Behn,  
 Y. A. Bernard,  E. J. Berquist,  H. Burton,  A. Carreras,  K. Carter-Fenk,  
 R. Chakraborty,  A. D. Chien,  K. D. Closser,  V. Cofer-Shabica,  
 S. Dasgupta,  Jia Deng,  M. de Wergifosse,  M. Diedenhofen,  Hainam Do,  
 S. Ehlert,  Po-Tung Fang,  S. Fatehi,  Qingguo Feng,  T. Friedhoff,  
 J. Gayvert,  Qinghui Ge,  G. Gidofalvi,  M. Goldey,  J. Gomes,  
 C. Gonzalez-Espinoza,  S. Gulania,  A. Gunina,  M. W. D. Hanson-Heine,  
 P. H. P. Harbach,  A. W. Hauser,  M. F. Herbst,  M. Hernandez Vera,  
 M. Hodecker,  Z. C. Holden,  S. Houck,  Xunkun Huang,  Kerwin Hui,  
 B. C. Huynh,  M. Ivanov,  Hyunjun Ji,  Hanjie Jiang,  B. Kaduk,  S. Kaehler,  
 K. Khistyaev,  Jaehoon Kim,  P. Klunzinger,  Z. Koczor-Benda,  
 Joong Hoon Koh,  D. Kosenkov,  L. Koulias,  T. Kowalczyk,  C. M. Krauter,  
 K. Kue,  A. Kunitsa,  T. Kus,  A. Landau,  K. V. Lawler,  D. Lefrancois,  
 S. Lehtola,  Rain Li,  Yi-Pei Li,  Jiashu Liang,  M. Liebenthal,  
 Hung-Hsuan Lin,  You-Sheng Lin,  Fenglai Liu,  Kuan-Yu Liu,  
 M. Loipersberger,  A. Luenser,  A. Manjanath,  P. Manohar,  E. Mansoor,  
 S. F. Manzer,  Shan-Ping Mao,  A. V. Marenich,  T. Markovich,  S. Mason,  
 S. A. Maurer,  P. F. McLaughlin,  M. F. S. J. Menger,  J.-M. Mewes,  
 S. A. Mewes,  P. Morgante,  J. W. Mullinax,  K. J. Oosterbaan,  G. Paran,  
 Alexander C. Paul,  Suranjan K. Paul,  F. Pavosevic,  Zheng Pei,  S. Prager,  
 E. I. Proynov,  E. Ramos,  B. Rana,  A. E. Rask,  A. Rettig,  R. M. Richard,  
 F. Rob,  E. Rossomme,  T. Scheele,  M. Scheurer,  M. Schneider,  
 N. Sergueev,  S. M. Sharada,  W. Skomorowski,  D. W. Small,  C. J. Stein,  
 Yu-Chuan Su,  E. J. Sundstrom,  Zhen Tao,  J. Thirman,  T. Tsuchimochi,  
 N. M. Tubman,  S. P. Veccham,  O. Vydrov,  J. Wenzel,  J. Witte,  A. Yamada,  
 Kun Yao,  S. Yeganeh,  S. R. Yost,  A. Zech,  Igor Ying Zhang,  Xing Zhang,  
 Yu Zhang,  D. Zuev,  A. Aspuru-Guzik,  A. T. Bell,  N. A. Besley,  
 K. B. Bravaya,  B. R. Brooks,  D. Casanova,  Jeng-Da Chai,  S. Coriani,  
 C. J. Cramer,  A. E. DePrince, III,  R. A. DiStasio Jr.,  A. Dreuw,  
 B. D. Dunietz,  T. R. Furlani,  W. A. Goddard III,  S. Grimme,  
 S. Hammes-Schiffer,  T. Head-Gordon,  W. J. Hehre,  Chao-Ping Hsu,  
 T.-C. Jagau,  Yousung Jung,  A. Klamt,  Jing Kong,  D. S. Lambrecht,  
 WanZhen Liang,  N. J. Mayhall,  C. W. McCurdy,  J. B. Neaton,  
 C. Ochsenfeld,  J. A. Parkhill,  R. Peverati,  V. A. Rassolov,  Yihan Shao,  
 L. V. Slipchenko,  T. Stauch,  R. P. Steele,  J. E. Subotnik,  
 A. J. W. Thom,  A. Tkatchenko,  D. G. Truhlar,  T. Van Voorhis,  
 T. A. Wesolowski,  K. B. Whaley,  H. L. Woodcock III,  P. M. Zimmerman,  
 S. Faraji,  P. M. W. Gill,  M. Head-Gordon,  J. M. Herbert,  A. I. Krylov

 Additional authors for Version 5.4.1: 
 S. Kotaru,  Shaozhi Li,  Xiangyuan Li,  F. Matz,  A. Molle,  Haisheng Ren,  
 Yingli Su,  Hung-Yi Tsai,  C. Utku,  Fang Wang

 Contributors to earlier versions of Q-Chem not listed above: 
 R. D. Adamson,  B. Austin,  R. Baer,  J. Baker,  G. J. O. Beran,  
 K. Brandhorst,  S. T. Brown,  E. F. C. Byrd,  A. K. Chakraborty,  
 G. K. L. Chan,  Chun-Min Chang,  Yunqing Chen,  C.-L. Cheng,  
 Siu Hung Chien,  D. M. Chipman,  D. L. Crittenden,  H. Dachsel,  
 R. J. Doerksen,  A. D. Dutoi,  R. G. Edgar,  J. Fosso-Tande,  
 L. Fusti-Molnar,  D. Ghosh,  A. Ghysels,  A. Golubeva-Zadorozhnaya,  
 J. Gonthier,  M. S. Gordon,  S. R. Gwaltney,  G. Hawkins,  J. E. Herr,  
 A. Heyden,  S. Hirata,  E. G. Hohenstein,  G. Kedziora,  F. J. Keil,  
 C. Kelley,  Jihan Kim,  R. A. King,  R. Z. Khaliullin,  P. P. Korambath,  
 W. Kurlancheek,  A. Laurent,  A. M. Lee,  M. S. Lee,  S. V. Levchenko,  
 Ching Yeh Lin,  D. Liotard,  E. Livshits,  R. C. Lochan,  I. Lotan,  
 L. A. Martinez-Martinez,  P. E. Maslen,  N. Nair,  D. P. O'Neill,  
 D. Neuhauser,  E. Neuscamman,  C. M. Oana,  R. Olivares-Amaya,  R. Olson,  
 T. M. Perrine,  B. Peters,  P. A. Pieniazek,  A. Prociuk,  Y. M. Rhee,  
 J. Ritchie,  M. A. Rohrdanz,  E. Rosta,  N. J. Russ,  H. F. Schaefer III,  
 M. W. Schmidt,  N. E. Schultz,  S. Sharma,  N. Shenvi,  C. D. Sherrill,  
 A. C. Simmonett,  A. Sodt,  T. Stein,  D. Stuck,  K. S. Thanthiriwatte,  
 V. Vanovschi,  L. Vogt,  Tao Wang,  A. Warshel,  M. A. Watson,  
 C. F. Williams,  Q. Wu,  X. Xu,  Jun Yang,  W. Zhang,  Yan Zhao

 Please cite Q-Chem as follows:
 Y. Shao et al., Mol. Phys. 113, 184-215 (2015)
 DOI: 10.1080/00268976.2014.952696

 Q-Chem 5.4.1 for Intel X86 EM64T Linux

 Parts of Q-Chem use Armadillo 9.800.1 (Horizon Scraper).
 http://arma.sourceforge.net/

 Q-Chem begins on Mon Mar 20 18:09:02 2023  

 Host: cpu186.baobab
0

     Scratch files written to /scratch/fum/qchem69395//
 Processing $rem in /home/share/wesolowski/qc5.aug2021.FDE/config/preferences:
 Processing $rem in /home/fum/.qchemrc:

 Checking the input file for inconsistencies... 	...done.

--------------------------------------------------------------
User input:
--------------------------------------------------------------
$comment
generated from CCJob.Templates
$end

$rem
sym_ignore = true
method = adc(2)
ee_states = 10
basis = cc-pVDZ
mem_static = 1024
mem_total = 40000
adc_davidson_maxiter = 900
adc_davidson_conv = 6
adc_print = 3
adc_prop_es = true
adc_prop_es2es = true
adc_prop_tpa = true
molden_format = True
state_analysis = true
print_orbitals = 15
gen_scfman = false
fde_export_density = true
fde_details = 3
$end

$molecule
0 1
H -0.013149655361555027 -0.2629666663540441 0.06060690517165233
C -1.061125866323369 -0.5369841756567997 -0.002319740398771043
H -1.3094507809342197 -1.5944482722399353 -0.07052081829625888
C -1.9896082792339473 0.42177647919318856 -0.0038796403978574485
H -1.7924118470738022 1.4683384014664134 0.07172028371029773
H -3.088683874746458 0.13685631598052897 -0.05930878795761574                     
$end
--------------------------------------------------------------
 ----------------------------------------------------------------
             Standard Nuclear Orientation (Angstroms)
    I     Atom           X                Y                Z
 ----------------------------------------------------------------
    1      H      -0.0131496554    -0.2629666664     0.0606069052
    2      C      -1.0611258663    -0.5369841757    -0.0023197404
    3      H      -1.3094507809    -1.5944482722    -0.0705208183
    4      C      -1.9896082792     0.4217764792    -0.0038796404
    5      H      -1.7924118471     1.4683384015     0.0717202837
    6      H      -3.0886838747     0.1368563160    -0.0593087880
 ----------------------------------------------------------------
 Nuclear Repulsion Energy =          33.20022324 hartrees
 There are        8 alpha and        8 beta electrons
 Requested basis set is cc-pVDZ
 There are 24 shells and 48 basis functions
 Total memory of 40000 MB is distributed as follows: 
   MEM_STATIC is set to 1024 MB
   QALLOC/CCMAN JOB total memory use is  38976 MB
 Warning: actual memory use might exceed 40000 MB

 Total QAlloc Memory Limit  40000 MB
 Mega-Array Size      1001 MB
 MEM_STATIC part      1024 MB

                       Distance Matrix (Angstroms)
             H (  1)   C (  2)   H (  3)   C (  4)   H (  5)
   C (  2)  1.085034
   H (  3)  1.862910  1.088369
   C (  4)  2.092706  1.334655  2.128901
   H (  5)  2.482602  2.135786  3.103892  1.067658
   H (  6)  3.103731  2.137358  2.482582  1.136758  1.862883

 A cutoff of  1.0D-11 yielded    300 shell pairs
 There are      1220 function pairs (      1329 Cartesian)
 Smallest overlap matrix eigenvalue = 4.82E-03

 Scale SEOQF with 1.000000e-01/1.000000e-01/1.000000e+00

 Standard Electronic Orientation quadrupole field applied
 Nucleus-field energy     =     0.0000000021 hartrees
 Guess from superposition of atomic densities
 Warning:  Energy on first SCF cycle will be non-variational
 SAD guess density has 16.000000 electrons
 A restricted Hartree-Fock SCF calculation will be
 performed using Pulay DIIS extrapolation
 SCF converges when DIIS error is below 1.0E-08
 using 10 threads for integral computing
 -------------------------------------------------------
 OpenMP Integral computing Module                
 Release: version 1.0, May 2013, Q-Chem Inc. Pittsburgh 
 -------------------------------------------------------
 ---------------------------------------
  Cycle       Energy         DIIS Error
 ---------------------------------------
    1     -78.3953488996      9.92E-02
    2     -78.0153671558      7.13E-03
    3     -78.0358537200      1.83E-03
    4     -78.0373329606      5.64E-04
    5     -78.0374506642      6.11E-05
    6     -78.0374526198      1.32E-05
    7     -78.0374527125      6.03E-06
    8     -78.0374527257      1.20E-06
    9     -78.0374527271      3.93E-07
   10     -78.0374527272      9.06E-08
   11     -78.0374527272      6.63E-09 Convergence criterion met
 ---------------------------------------
 SCF time:  CPU 2.17 s  wall 3.67 s
 SCF   energy in the final basis set = -78.03745273
 Total energy in the final basis set = -78.03745273
Exporting Density Matrix to file 'Densmat_SCF.txt'.
Export successful
================================================================================
|                                                                              |
|                                 A D C  M A N                                 |
|                                                                              |
 ------------------------------------------------------------------------------ 
|                                                                              |
| Components:                                                                  |
|                                                                              |
| - libvmm - 1.3-trunk                                                         |
|   Authors:                                                                   |
|   Evgeny Epifanovsky, Ilya Kaliman                                           |
|                                                                              |
| - libtensor - 2.5-trunk                                                      |
|   Authors:                                                                   |
|   Evgeny Epifanovsky, Michael Wormit, Dmitry Zuev, Sam Manzer,               |
|   Ilya Kaliman                                                               |
|                                                                              |
| - libwfa - 1.1-trunk                                                         |
|   Authors:                                                                   |
|   Felix Plasser, Stefanie Mewes (Baeppler), Benjamin Thomitzni,              |
|   Michael Wormit, Feng Chen, Anna I. Krylov, Pavel Pokhilko                  |
|                                                                              |
| - libadc - 1.1-trunk                                                         |
|   Authors:                                                                   |
|   Michael Wormit, Adrian L. Dempwolff, Philipp H. P. Harbach,                |
|   Caroline Krauter, Dirk Rehn, Matthias Schneider, Jan Wenzel                |
|                                                                              |
| - adcman - 2.6-trunk                                                         |
|   Authors:                                                                   |
|   Michael Wormit, Adrian L. Dempwolff, Philipp H. P. Harbach,                |
|   Caroline Krauter, Daniel Lefrancois, Jan-Michael Mewes, Dirk Rehn,         |
|   Matthias Schneider, Jan Wenzel, Andreas Dreuw                              |
|                                                                              |
| Authors of earlier versions of ADCMAN:                                       |
| Andreas Dreuw, Jan Hendrik Starcke, Dirk Rehn, Michael Wormit                |
|                                                                              |
================================================================================

 Created directory /scratch/fum/qchem69395/plots
  Import QC data ...  CPU 0.00 s  wall 0.00 s

 Alpha MOs, Restricted
 -- Occupied --                  
-11.240 -11.237  -1.030  -0.787  -0.635  -0.584  -0.497  -0.374
  1 A     2 A     3 A     4 A     5 A     6 A     7 A     8 A                  
 -- Virtual --                   
  0.167   0.202   0.231   0.236   0.302   0.462   0.580   0.609
  9 A    10 A    11 A    12 A    13 A    14 A    15 A    16 A                  
  0.689   0.705   0.775   0.807   0.859   0.926   0.972   1.007
 17 A    18 A    19 A    20 A    21 A    22 A    23 A    24 A                  
  1.129   1.233   1.243   1.261   1.293   1.592   1.725   1.746
 25 A    26 A    27 A    28 A    29 A    30 A    31 A    32 A                  
  1.810   1.844   1.858   1.904   1.954   1.979   2.225   2.247
 33 A    34 A    35 A    36 A    37 A    38 A    39 A    40 A                  
  2.356   2.422   2.494   2.616   2.670   2.815   3.099   3.376
 41 A    42 A    43 A    44 A    45 A    46 A    47 A    48 A                  

 Beta MOs, Restricted
 -- Occupied --                  
-11.240 -11.237  -1.030  -0.787  -0.635  -0.584  -0.497  -0.374
  1 A     2 A     3 A     4 A     5 A     6 A     7 A     8 A                  
 -- Virtual --                   
  0.167   0.202   0.231   0.236   0.302   0.462   0.580   0.609
  9 A    10 A    11 A    12 A    13 A    14 A    15 A    16 A                  
  0.689   0.705   0.775   0.807   0.859   0.926   0.972   1.007
 17 A    18 A    19 A    20 A    21 A    22 A    23 A    24 A                  
  1.129   1.233   1.243   1.261   1.293   1.592   1.725   1.746
 25 A    26 A    27 A    28 A    29 A    30 A    31 A    32 A                  
  1.810   1.844   1.858   1.904   1.954   1.979   2.225   2.247
 33 A    34 A    35 A    36 A    37 A    38 A    39 A    40 A                  
  2.356   2.422   2.494   2.616   2.670   2.815   3.099   3.376
 41 A    42 A    43 A    44 A    45 A    46 A    47 A    48 A                  
  Import AO data ...  CPU 0.00 s  wall 0.00 s
  Using point group: C1
  Irreducible representations in point group: A
  Molecular orbitals: 
  Occupied MOs:
  Block   0:   1 (  A) A   2 (  A) A   3 (  A) A   4 (  A) A   5 (  A) A
                  -11.24      -11.24       -1.03     -0.7869     -0.6352
               6 (  A) A   7 (  A) A   8 (  A) A
                 -0.5836     -0.4975     -0.3743
  Block   1:   1 (  A) B   2 (  A) B   3 (  A) B   4 (  A) B   5 (  A) B
                  -11.24      -11.24       -1.03     -0.7869     -0.6352
               6 (  A) B   7 (  A) B   8 (  A) B
                 -0.5836     -0.4975     -0.3743
  Virtual MOs:
  Block   0:   9 (  A) A  10 (  A) A  11 (  A) A  12 (  A) A  13 (  A) A
                  0.1675      0.2022      0.2311      0.2364      0.3025
              14 (  A) A  15 (  A) A  16 (  A) A  17 (  A) A  18 (  A) A
                   0.462      0.5803      0.6089      0.6887      0.7049
              19 (  A) A  20 (  A) A  21 (  A) A  22 (  A) A
                  0.7748      0.8071      0.8587      0.9264
  Block   1:  23 (  A) A  24 (  A) A  25 (  A) A  26 (  A) A  27 (  A) A
                  0.9715       1.007       1.129       1.233       1.243
              28 (  A) A  29 (  A) A  30 (  A) A  31 (  A) A  32 (  A) A
                   1.261       1.293       1.592       1.725       1.746
              33 (  A) A  34 (  A) A  35 (  A) A  36 (  A) A
                    1.81       1.844       1.858       1.904
  Block   2:  37 (  A) A  38 (  A) A  39 (  A) A  40 (  A) A  41 (  A) A
                   1.954       1.979       2.225       2.247       2.356
              42 (  A) A  43 (  A) A  44 (  A) A  45 (  A) A  46 (  A) A
                   2.422       2.494       2.616        2.67       2.815
              47 (  A) A  48 (  A) A
                   3.099       3.376
  Block   3:   9 (  A) B  10 (  A) B  11 (  A) B  12 (  A) B  13 (  A) B
                  0.1675      0.2022      0.2311      0.2364      0.3025
              14 (  A) B  15 (  A) B  16 (  A) B  17 (  A) B  18 (  A) B
                   0.462      0.5803      0.6089      0.6887      0.7049
              19 (  A) B  20 (  A) B  21 (  A) B  22 (  A) B
                  0.7748      0.8071      0.8587      0.9264
  Block   4:  23 (  A) B  24 (  A) B  25 (  A) B  26 (  A) B  27 (  A) B
                  0.9715       1.007       1.129       1.233       1.243
              28 (  A) B  29 (  A) B  30 (  A) B  31 (  A) B  32 (  A) B
                   1.261       1.293       1.592       1.725       1.746
              33 (  A) B  34 (  A) B  35 (  A) B  36 (  A) B
                    1.81       1.844       1.858       1.904
  Block   5:  37 (  A) B  38 (  A) B  39 (  A) B  40 (  A) B  41 (  A) B
                   1.954       1.979       2.225       2.247       2.356
              42 (  A) B  43 (  A) B  44 (  A) B  45 (  A) B  46 (  A) B
                   2.422       2.494       2.616        2.67       2.815
              47 (  A) B  48 (  A) B
                   3.099       3.376
  Import MO data ...  CPU 0.06 s  wall 0.02 s
  Import HF data ...  CPU 0.33 s  wall 0.14 s
  Import 2e integrals ...  CPU 1.09 s  wall 0.23 s

--------------------------------------------------------------------------------
                                   HF Summary                                   
--------------------------------------------------------------------------------
  Energy:                                                  -78.0374527272 a.u.
  Dip. moment [a.u.]:                  [   0.009660,    0.006822,    0.006510]
  Total dipole [Debye]:                                               0.034311
  <r^2> [a.u.]:                        [ 169.908927,   36.064317,   11.673685]
  Total <r^2> [a.u.]:                                               217.646929
--------------------------------------------------------------------------------
  HF properties ...  CPU 0.04 s  wall 0.09 s
  MP(1) calculation ...  CPU 0.01 s  wall 0.06 s
  N^6 prerequesite intermediates ...  CPU 0.79 s  wall 0.27 s
  Difference density matrix of state mp2_gs printed to ASCII file 'State_mp2_gs_Difference.txt'
Exporting MP density matrix to file 'Densmat_MP.txt'.
Export successful
  Total density matrix of state mp2_gs printed to ASCII file 'State_mp2_gs_Total.txt'
Exporting MP density matrix to file 'Densmat_MP.txt'.
Export successful

--------------------------------------------------------------------------------
                                 MP(2) Summary                                  
--------------------------------------------------------------------------------
  MP energy contribution:                                   -0.2806189696 a.u.
  Total energy:                                            -78.3180716969 a.u.
  Dip. moment [a.u.]:                  [   0.007756,    0.005106,    0.006257]
  Total dipole [Debye]:                                               0.028461
  <r^2> [a.u.]:                        [ 169.922221,   36.113379,   11.499907]
  Total <r^2> [a.u.]:                                               217.535508

  Density matrix analysis:
  ------------------------
  NOs
    Occupation of frontier NOs:
       0.0456   1.9379
    Number of electrons: 16.000000
    Number of unpaired electrons: n_u =  0.40786, n_u,nl =  0.04599
    NO participation ratio (PR_NO): 13.880265
  
  
  Mulliken Population Analysis
  Atom      Charge (e)              h+              e-           Del q
  --------------------------------------------------------------------
   1 H        0.052081        0.014129       -0.011223        0.002906
   2 C       -0.097850        0.093797       -0.099292       -0.005495
   3 H        0.056199        0.013754       -0.011318        0.002436
   4 C       -0.119756        0.095646       -0.100788       -0.005143
   5 H        0.050935        0.014082       -0.011368        0.002714
   6 H        0.058391        0.013934       -0.011353        0.002582
  --------------------------------------------------------------------
  Sum:        0.000000        0.245342       -0.245342       -0.000000
  
  Multipole moment analysis of the density matrix
    Molecular charge:                      0.000000
    Number of electrons:                   16.000000
      Center of electronic charge [Ang]: [ -1.532013,  -0.059136,  -0.002376]
    Total nuclear charge:                  16.000000
      Center of nuclear charge [Ang]:    [ -1.531756,  -0.058967,  -0.002169]
    Dipole moment [D]:                     0.028461
      Cartesian components [D]:          [  0.019714,   0.012979,   0.015904]
    RMS size of the density [Ang]:         1.206935
      Cartesian components [Ang]:        [  0.791757,   0.792812,   0.448624]
  
  Exciton analysis of the difference density matrix
    <r_h> [Ang]:                  [ -1.540119,  -0.060209,  -0.003746]
    <r_e> [Ang]:                  [ -1.536012,  -0.056510,  -0.003202]
    |<r_e - r_h>| [Ang]:            0.005554
    Hole size [Ang]:                1.402986
      Cartesian components [Ang]: [  0.853473,   0.841441,   0.729336]
    Electron size [Ang]:            1.361714
      Cartesian components [Ang]: [  0.869611,   0.874330,   0.577571]
--------------------------------------------------------------------------------
  MP(2) calculation ...  CPU 0.33 s  wall 0.37 s
  Start ADC(2)-s ...  CPU 0.02 s  wall 0.02 s
  ADC(2) intermediates ...  CPU 0.04 s  wall 0.01 s
  Starting Davidson for singlet states of irrep A ... 
--------------------------------------------------------------------------------
   It NVec Conv  Avg. Norm  Max. Norm  Conv. states           Remark
--------------------------------------------------------------------------------
        10    0  1.329e-01  4.694e-01  0.4107 n n n n n n n n Guess.
    1   20    0  2.543e-02  1.305e-01  0.3257 n n n n n n n n 
    2   30    0  6.573e-03  3.200e-02  0.3209 n n n n n n n n 
    3   40    0  2.426e-03  1.529e-02  0.3205 n n n n n n n n 
    4   50    0  8.294e-04  5.854e-03  0.3205 n n n n n n n n 
    5   20    0  6.139e-04  4.538e-03  0.3205 n n n n n n n n Subspace collapsed.
    6   30    0  9.917e-04  8.717e-03  0.3205 n n n n n n n n 
    7   40    0  7.604e-04  7.059e-03  0.3205 n n n n n n n n 
    8   50    0  3.729e-04  3.505e-03  0.3205 n n n n n n n n 
    9   20    0  1.933e-04  1.808e-03  0.3205 n n n n n n n n Subspace collapsed.
   10   30    2  9.673e-05  8.937e-04  0.3205 n n y y n n n n 
   11   40    5  4.452e-05  4.217e-04  0.3205 y y y y y n n n 
   12   50    5  3.130e-05  2.992e-04  0.3205 y y y y y n n n 
   13   20    6  1.813e-05  1.748e-04  0.3205 y y y y y y n n Subspace collapsed.
   14   30    6  3.205e-05  3.116e-04  0.3205 y y y y y y n n 
   15   40    6  3.614e-05  3.545e-04  0.3205 y y y y y y n n 
   16   50    6  2.694e-05  2.660e-04  0.3205 y y y y y y n n 
   17   20    6  1.410e-05  1.392e-04  0.3205 y y y y y y n n Subspace collapsed.
   18   30    6  7.390e-06  7.295e-05  0.3205 y y y y y y n n 
   19   40    6  4.058e-06  4.013e-05  0.3205 y y y y y y n n 
   20   50    7  5.870e-06  5.824e-05  0.3205 y y y y y y y n 
   21   20    7  3.145e-06  3.123e-05  0.3205 y y y y y y y n Subspace collapsed.
   22   30    7  3.661e-06  3.637e-05  0.3205 y y y y y y y n 
   23   40    8  4.033e-06  4.013e-05  0.3205 y y y y y y y y 
   24   49    8  4.913e-06  4.896e-05  0.3205 y y y y y y y y 
   25   49    8  4.913e-06  4.896e-05  0.3205 y y y y y y y y 
   26   50    8  4.719e-06  4.704e-05  0.3205 y y y y y y y y 
   27   17    8  2.169e-06  2.162e-05  0.3205 y y y y y y y y Subspace collapsed.
   28   24    8  1.944e-06  1.937e-05  0.3205 y y y y y y y y 
   29   31    9  1.174e-06  1.170e-05  0.3205 y y y y y y y y 
   30   37    8  1.534e-06  1.530e-05  0.3205 y y y y y y y y 
   31   42    9  1.684e-06  1.682e-05  0.3205 y y y y y y y y 
   32   47    9  1.195e-06  1.194e-05  0.3205 y y y y y y y y 
   33   50    9  6.508e-07  6.502e-06  0.3205 y y y y y y y y 
   34   14    9  3.422e-07  3.419e-06  0.3205 y y y y y y y y Subspace collapsed.
   35   18    9  2.902e-07  2.900e-06  0.3205 y y y y y y y y 
   36   22    9  1.661e-07  1.660e-06  0.3205 y y y y y y y y 
   37   26   10  9.780e-08  9.772e-07  0.3205 y y y y y y y y Converged.
--------------------------------------------------------------------------------
  Davidson Summary: 
 ------------------------------------------------------------
  State  0: excitation energy =   0.3205 a.u.   (converged)
  State  1: excitation energy =   0.3267 a.u.   (converged)
  State  2: excitation energy =   0.3350 a.u.   (converged)
  State  3: excitation energy =   0.3582 a.u.   (converged)
  State  4: excitation energy =   0.3736 a.u.   (converged)
  State  5: excitation energy =   0.3873 a.u.   (converged)
  State  6: excitation energy =   0.4183 a.u.   (converged)
  State  7: excitation energy =   0.4430 a.u.   (converged)
  State  8: excitation energy =   0.4531 a.u.   (converged)
  State  9: excitation energy =   0.4572 a.u.   (converged)
 ------------------------------------------------------------

  Singlet states of irrep A ...  CPU 226.75 s  wall 72.01 s
  TDMs ...  CPU 2.40 s  wall 0.85 s
  SDMs ...  CPU 5.10 s  wall 1.62 s
  Starting TPA DIIS iterations ... 
------------------------------------ 
   It     Res. Norm  Remark
------------------------------------
                       Guess.
    1     4.202e+00  
    2     5.596e+00  
    3     1.077e+00  
    4     2.778e-01  
    5     6.611e-02  
    6     2.936e-02  
    7     8.607e-03  
    8     1.718e-03  
    9     6.395e-04  
   10     1.061e-04  
   11     3.668e-05  
   12     5.848e-06  
   13     2.172e-06  
   14     5.926e-07  Converged.
   ... Converged in 14 steps (norm: 5.92649e-07)
------------------------------------
  Starting TPA DIIS iterations ... 
------------------------------------ 
   It     Res. Norm  Remark
------------------------------------
                       Guess.
    1     4.412e+00  
    2     5.831e+00  
    3     1.052e+00  
    4     2.501e-01  
    5     6.541e-02  
    6     2.630e-02  
    7     8.238e-03  
    8     1.422e-03  
    9     5.514e-04  
   10     9.174e-05  
   11     2.953e-05  
   12     4.788e-06  
   13     2.195e-06  
   14     6.547e-07  Converged.
   ... Converged in 14 steps (norm: 6.54696e-07)
------------------------------------
  Starting TPA DIIS iterations ... 
------------------------------------ 
   It     Res. Norm  Remark
------------------------------------
                       Guess.
    1     6.874e-01  
    2     4.834e-01  
    3     1.698e-01  
    4     7.473e-02  
    5     1.880e-02  
    6     6.814e-03  
    7     1.395e-03  
    8     4.446e-04  
    9     2.591e-04  
   10     7.086e-05  
   11     3.836e-05  
   12     1.113e-05  
   13     6.223e-06  
   14     2.867e-06  
   15     7.879e-07  Converged.
   ... Converged in 15 steps (norm: 7.87879e-07)
------------------------------------
  Starting TPA DIIS iterations ... 
------------------------------------ 
   It     Res. Norm  Remark
------------------------------------
                       Guess.
    1     4.344e+00  
    2     5.851e+00  
    3     1.119e+00  
    4     2.937e-01  
    5     7.042e-02  
    6     3.147e-02  
    7     9.213e-03  
    8     1.840e-03  
    9     6.873e-04  
   10     1.144e-04  
   11     3.980e-05  
   12     6.381e-06  
   13     2.397e-06  
   14     6.466e-07  Converged.
   ... Converged in 14 steps (norm: 6.466e-07)
------------------------------------
  Starting TPA DIIS iterations ... 
------------------------------------ 
   It     Res. Norm  Remark
------------------------------------
                       Guess.
    1     4.561e+00  
    2     6.097e+00  
    3     1.093e+00  
    4     2.643e-01  
    5     6.968e-02  
    6     2.814e-02  
    7     8.807e-03  
    8     1.519e-03  
    9     5.921e-04  
   10     9.875e-05  
   11     3.203e-05  
   12     5.220e-06  
   13     2.445e-06  
   14     7.342e-07  Converged.
   ... Converged in 14 steps (norm: 7.34178e-07)
------------------------------------
  Starting TPA DIIS iterations ... 
------------------------------------ 
   It     Res. Norm  Remark
------------------------------------
                       Guess.
    1     6.938e-01  
    2     4.925e-01  
    3     1.749e-01  
    4     7.973e-02  
    5     1.956e-02  
    6     7.151e-03  
    7     1.490e-03  
    8     4.722e-04  
    9     2.792e-04  
   10     7.879e-05  
   11     4.209e-05  
   12     1.233e-05  
   13     7.025e-06  
   14     3.298e-06  
   15     8.982e-07  Converged.
   ... Converged in 15 steps (norm: 8.98235e-07)
------------------------------------
  Starting TPA DIIS iterations ... 
------------------------------------ 
   It     Res. Norm  Remark
------------------------------------
                       Guess.
    1     4.546e+00  
    2     6.221e+00  
    3     1.178e+00  
    4     3.172e-01  
    5     7.677e-02  
    6     3.459e-02  
    7     1.011e-02  
    8     2.020e-03  
    9     7.581e-04  
   10     1.266e-04  
   11     4.449e-05  
   12     7.183e-06  
   13     2.742e-06  
   14     7.280e-07  Converged.
   ... Converged in 14 steps (norm: 7.28018e-07)
------------------------------------
  Starting TPA DIIS iterations ... 
------------------------------------ 
   It     Res. Norm  Remark
------------------------------------
                       Guess.
    1     4.774e+00  
    2     6.482e+00  
    3     1.152e+00  
    4     2.852e-01  
    5     7.596e-02  
    6     3.086e-02  
    7     9.644e-03  
    8     1.663e-03  
    9     6.523e-04  
   10     1.091e-04  
   11     3.578e-05  
   12     5.870e-06  
   13     2.836e-06  
   14     8.618e-07  Converged.
   ... Converged in 14 steps (norm: 8.61795e-07)
------------------------------------
  Starting TPA DIIS iterations ... 
------------------------------------ 
   It     Res. Norm  Remark
------------------------------------
                       Guess.
    1     7.026e-01  
    2     5.054e-01  
    3     1.822e-01  
    4     8.712e-02  
    5     2.065e-02  
    6     7.643e-03  
    7     1.630e-03  
    8     5.123e-04  
    9     3.089e-04  
   10     9.095e-05  
   11     4.779e-05  
   12     1.420e-05  
   13     8.311e-06  
   14     3.993e-06  
   15     1.066e-06  
   16     3.005e-07  Converged.
   ... Converged in 16 steps (norm: 3.00457e-07)
------------------------------------
  Starting TPA DIIS iterations ... 
------------------------------------ 
   It     Res. Norm  Remark
------------------------------------
                       Guess.
    1     5.205e+00  
    2     7.453e+00  
    3     1.371e+00  
    4     3.982e-01  
    5     9.872e-02  
    6     4.552e-02  
    7     1.321e-02  
    8     2.645e-03  
    9     1.006e-03  
   10     1.695e-04  
   11     6.139e-05  
   12     1.009e-05  
   13     4.065e-06  
   14     1.031e-06  
   15     4.795e-07  Converged.
   ... Converged in 15 steps (norm: 4.79513e-07)
------------------------------------
  Starting TPA DIIS iterations ... 
------------------------------------ 
   It     Res. Norm  Remark
------------------------------------
                       Guess.
    1     5.466e+00  
    2     7.766e+00  
    3     1.342e+00  
    4     3.573e-01  
    5     9.765e-02  
    6     4.033e-02  
    7     1.254e-02  
    8     2.158e-03  
    9     8.634e-04  
   10     1.455e-04  
   11     4.942e-05  
   12     8.233e-06  
   13     4.382e-06  
   14     1.411e-06  
   15     8.902e-07  Converged.
   ... Converged in 15 steps (norm: 8.90187e-07)
------------------------------------
  Starting TPA DIIS iterations ... 
------------------------------------ 
   It     Res. Norm  Remark
------------------------------------
                       Guess.
    1     7.285e-01  
    2     5.448e-01  
    3     2.051e-01  
    4     1.129e-01  
    5     2.425e-02  
    6     9.321e-03  
    7     2.123e-03  
    8     6.469e-04  
    9     4.125e-04  
   10     1.369e-04  
   11     6.931e-05  
   12     2.177e-05  
   13     1.382e-05  
   14     6.887e-06  
   15     1.689e-06  
   16     4.697e-07  Converged.
   ... Converged in 16 steps (norm: 4.69748e-07)
------------------------------------
  Starting TPA DIIS iterations ... 
------------------------------------ 
   It     Res. Norm  Remark
------------------------------------
                       Guess.
    1     5.733e+00  
    2     8.476e+00  
    3     1.524e+00  
    4     4.683e-01  
    5     1.177e-01  
    6     5.513e-02  
    7     1.590e-02  
    8     3.187e-03  
    9     1.225e-03  
   10     2.072e-04  
   11     7.668e-05  
   12     1.272e-05  
   13     5.351e-06  
   14     1.327e-06  
   15     6.661e-07  Converged.
   ... Converged in 15 steps (norm: 6.66054e-07)
------------------------------------
  Starting TPA DIIS iterations ... 
------------------------------------ 
   It     Res. Norm  Remark
------------------------------------
                       Guess.
    1     6.021e+00  
    2     8.833e+00  
    3     1.493e+00  
    4     4.194e-01  
    5     1.164e-01  
    6     4.862e-02  
    7     1.504e-02  
    8     2.586e-03  
    9     1.049e-03  
   10     1.773e-04  
   11     6.193e-05  
   12     1.039e-05  
   13     5.951e-06  
   14     2.033e-06  
   15     1.258e-06  
   16     5.078e-07  Converged.
   ... Converged in 16 steps (norm: 5.07818e-07)
------------------------------------
  Starting TPA DIIS iterations ... 
------------------------------------ 
   It     Res. Norm  Remark
------------------------------------
                       Guess.
    1     7.468e-01  
    2     5.743e-01  
    3     2.229e-01  
    4     1.353e-01  
    5     2.721e-02  
    6     1.075e-02  
    7     2.556e-03  
    8     7.612e-04  
    9     5.032e-04  
   10     1.809e-04  
   11     9.007e-05  
   12     2.969e-05  
   13     2.004e-05  
   14     9.888e-06  
   15     2.293e-06  
   16     6.572e-07  Converged.
   ... Converged in 16 steps (norm: 6.57209e-07)
------------------------------------
  Starting TPA DIIS iterations ... 
------------------------------------ 
   It     Res. Norm  Remark
------------------------------------
                       Guess.
    1     6.280e+00  
    2     9.565e+00  
    3     1.681e+00  
    4     5.453e-01  
    5     1.385e-01  
    6     6.579e-02  
    7     1.886e-02  
    8     3.784e-03  
    9     1.468e-03  
   10     2.490e-04  
   11     9.391e-05  
   12     1.568e-05  
   13     6.881e-06  
   14     1.697e-06  
   15     9.018e-07  Converged.
   ... Converged in 15 steps (norm: 9.01759e-07)
------------------------------------
  Starting TPA DIIS iterations ... 
------------------------------------ 
   It     Res. Norm  Remark
------------------------------------
                       Guess.
    1     6.595e+00  
    2     9.967e+00  
    3     1.649e+00  
    4     4.874e-01  
    5     1.369e-01  
    6     5.779e-02  
    7     1.778e-02  
    8     3.056e-03  
    9     1.256e-03  
   10     2.126e-04  
   11     7.628e-05  
   12     1.284e-05  
   13     7.898e-06  
   14     2.879e-06  
   15     1.720e-06  
   16     7.099e-07  Converged.
   ... Converged in 16 steps (norm: 7.09867e-07)
------------------------------------
  Starting TPA DIIS iterations ... 
------------------------------------ 
   It     Res. Norm  Remark
------------------------------------
                       Guess.
    1     7.639e-01  
    2     6.032e-01  
    3     2.408e-01  
    4     1.595e-01  
    5     3.037e-02  
    6     1.229e-02  
    7     3.035e-03  
    8     8.878e-04  
    9     6.034e-04  
   10     2.329e-04  
   11     1.149e-04  
   12     3.981e-05  
   13     2.838e-05  
   14     1.359e-05  
   15     3.050e-06  
   16     9.044e-07  Converged.
   ... Converged in 16 steps (norm: 9.04383e-07)
------------------------------------
  Starting TPA DIIS iterations ... 
------------------------------------ 
   It     Res. Norm  Remark
------------------------------------
                       Guess.
    1     7.883e+00  
    2     1.292e+01  
    3     2.134e+00  
    4     7.924e-01  
    5     2.054e-01  
    6     1.008e-01  
    7     2.840e-02  
    8     5.718e-03  
    9     2.270e-03  
   10     3.856e-04  
   11     1.508e-04  
   12     2.549e-05  
   13     1.239e-05  
   14     3.268e-06  
   15     1.894e-06  
   16     7.060e-07  Converged.
   ... Converged in 16 steps (norm: 7.06001e-07)
------------------------------------
  Starting TPA DIIS iterations ... 
------------------------------------ 
   It     Res. Norm  Remark
------------------------------------
                       Guess.
    1     8.274e+00  
    2     1.346e+01  
    3     2.097e+00  
    4     7.046e-01  
    5     2.026e-01  
    6     8.773e-02  
    7     2.659e-02  
    8     4.565e-03  
    9     1.936e-03  
   10     3.275e-04  
   11     1.257e-04  
   12     2.115e-05  
   13     1.557e-05  
   14     6.710e-06  
   15     3.580e-06  
   16     1.487e-06  
   17     5.453e-07  Converged.
   ... Converged in 17 steps (norm: 5.45264e-07)
------------------------------------
  Starting TPA DIIS iterations ... 
------------------------------------ 
   It     Res. Norm  Remark
------------------------------------
                       Guess.
    1     8.059e-01  
    2     6.807e-01  
    3     2.907e-01  
    4     2.335e-01  
    5     4.012e-02  
    6     1.702e-02  
    7     4.578e-03  
    8     1.327e-03  
    9     9.313e-04  
   10     4.203e-04  
   11     2.070e-04  
   12     8.085e-05  
   13     6.303e-05  
   14     2.773e-05  
   15     6.219e-06  
   16     2.048e-06  
   17     6.580e-07  Converged.
   ... Converged in 17 steps (norm: 6.57979e-07)
------------------------------------
  Starting TPA DIIS iterations ... 
------------------------------------ 
   It     Res. Norm  Remark
------------------------------------
                       Guess.
    1     9.691e+00  
    2     1.695e+01  
    3     2.632e+00  
    4     1.101e+00  
    5     2.899e-01  
    6     1.461e-01  
    7     4.048e-02  
    8     8.190e-03  
    9     3.318e-03  
   10     5.603e-04  
   11     2.232e-04  
   12     3.857e-05  
   13     2.000e-05  
   14     6.107e-06  
   15     3.774e-06  
   16     1.505e-06  
   17     7.600e-07  Converged.
   ... Converged in 17 steps (norm: 7.59985e-07)
------------------------------------
  Starting TPA DIIS iterations ... 
------------------------------------ 
   It     Res. Norm  Remark
------------------------------------
                       Guess.
    1     1.016e+01  
    2     1.765e+01  
    3     2.591e+00  
    4     9.752e-01  
    5     2.854e-01  
    6     1.263e-01  
    7     3.768e-02  
    8     6.478e-03  
    9     2.823e-03  
   10     4.736e-04  
   11     1.926e-04  
   12     3.238e-05  
   13     2.769e-05  
   14     1.358e-05  
   15     6.699e-06  
   16     2.724e-06  
   17     9.183e-07  Converged.
   ... Converged in 17 steps (norm: 9.18322e-07)
------------------------------------
  Starting TPA DIIS iterations ... 
------------------------------------ 
   It     Res. Norm  Remark
------------------------------------
                       Guess.
    1     8.435e-01  
    2     7.586e-01  
    3     3.431e-01  
    4     3.137e-01  
    5     5.181e-02  
    6     2.242e-02  
    7     6.487e-03  
    8     1.961e-03  
    9     1.355e-03  
   10     6.846e-04  
   11     3.425e-04  
   12     1.440e-04  
   13     1.128e-04  
   14     4.936e-05  
   15     1.160e-05  
   16     4.249e-06  
   17     1.143e-06  
   18     3.790e-07  Converged.
   ... Converged in 18 steps (norm: 3.78966e-07)
------------------------------------
  Starting TPA DIIS iterations ... 
------------------------------------ 
   It     Res. Norm  Remark
------------------------------------
                       Guess.
    1     1.063e+01  
    2     1.914e+01  
    3     2.885e+00  
    4     1.270e+00  
    5     3.369e-01  
    6     1.718e-01  
    7     4.721e-02  
    8     9.582e-03  
    9     3.915e-03  
   10     6.579e-04  
   11     2.640e-04  
   12     4.644e-05  
   13     2.443e-05  
   14     8.068e-06  
   15     5.141e-06  
   16     2.080e-06  
   17     9.890e-07  Converged.
   ... Converged in 17 steps (norm: 9.88958e-07)
------------------------------------
  Starting TPA DIIS iterations ... 
------------------------------------ 
   It     Res. Norm  Remark
------------------------------------
                       Guess.
    1     1.114e+01  
    2     1.993e+01  
    3     2.842e+00  
    4     1.124e+00  
    5     3.313e-01  
    6     1.480e-01  
    7     4.385e-02  
    8     7.548e-03  
    9     3.328e-03  
   10     5.551e-04  
   11     2.313e-04  
   12     3.910e-05  
   13     3.532e-05  
   14     1.816e-05  
   15     8.837e-06  
   16     3.601e-06  
   17     1.200e-06  
   18     6.373e-07  Converged.
   ... Converged in 18 steps (norm: 6.37344e-07)
------------------------------------
  Starting TPA DIIS iterations ... 
------------------------------------ 
   It     Res. Norm  Remark
------------------------------------
                       Guess.
    1     8.603e-01  
    2     7.962e-01  
    3     3.690e-01  
    4     3.515e-01  
    5     5.809e-02  
    6     2.512e-02  
    7     7.518e-03  
    8     2.342e-03  
    9     1.594e-03  
   10     8.390e-04  
   11     4.247e-04  
   12     1.820e-04  
   13     1.394e-04  
   14     6.289e-05  
   15     1.515e-05  
   16     5.779e-06  
   17     1.468e-06  
   18     4.905e-07  Converged.
   ... Converged in 18 steps (norm: 4.90493e-07)
------------------------------------
  Starting TPA DIIS iterations ... 
------------------------------------ 
   It     Res. Norm  Remark
------------------------------------
                       Guess.
    1     1.105e+01  
    2     2.014e+01  
    3     2.997e+00  
    4     1.347e+00  
    5     3.586e-01  
    6     1.837e-01  
    7     5.032e-02  
    8     1.023e-02  
    9     4.194e-03  
   10     7.030e-04  
   11     2.830e-04  
   12     5.027e-05  
   13     2.653e-05  
   14     9.056e-06  
   15     5.838e-06  
   16     2.377e-06  
   17     1.107e-06  
   18     5.449e-07  Converged.
   ... Converged in 18 steps (norm: 5.44855e-07)
------------------------------------
  Starting TPA DIIS iterations ... 
------------------------------------ 
   It     Res. Norm  Remark
------------------------------------
                       Guess.
    1     1.158e+01  
    2     2.097e+01  
    3     2.954e+00  
    4     1.192e+00  
    5     3.525e-01  
    6     1.581e-01  
    7     4.670e-02  
    8     8.045e-03  
    9     3.563e-03  
   10     5.927e-04  
   11     2.495e-04  
   12     4.236e-05  
   13     3.901e-05  
   14     2.041e-05  
   15     9.927e-06  
   16     4.069e-06  
   17     1.351e-06  
   18     6.589e-07  Converged.
   ... Converged in 18 steps (norm: 6.58861e-07)
------------------------------------
  Starting TPA DIIS iterations ... 
------------------------------------ 
   It     Res. Norm  Remark
------------------------------------
                       Guess.
    1     8.673e-01  
    2     8.126e-01  
    3     3.803e-01  
    4     3.674e-01  
    5     6.095e-02  
    6     2.629e-02  
    7     7.986e-03  
    8     2.523e-03  
    9     1.706e-03  
   10     9.114e-04  
   11     4.640e-04  
   12     2.001e-04  
   13     1.509e-04  
   14     6.947e-05  
   15     1.692e-05  
   16     6.546e-06  
   17     1.635e-06  
   18     5.453e-07  Converged.
   ... Converged in 18 steps (norm: 5.45306e-07)
------------------------------------
  Two-photon absorbption ...  CPU 174.55 s  wall 46.10 s
  Transition density matrix of state singlet_A_1 printed to ASCII file 'State_singlet_A_1_Transition.txt'
  Transition density matrix of state singlet_A_2 printed to ASCII file 'State_singlet_A_2_Transition.txt'
  Transition density matrix of state singlet_A_3 printed to ASCII file 'State_singlet_A_3_Transition.txt'
  Transition density matrix of state singlet_A_4 printed to ASCII file 'State_singlet_A_4_Transition.txt'
  Transition density matrix of state singlet_A_5 printed to ASCII file 'State_singlet_A_5_Transition.txt'
  Transition density matrix of state singlet_A_6 printed to ASCII file 'State_singlet_A_6_Transition.txt'
  Transition density matrix of state singlet_A_7 printed to ASCII file 'State_singlet_A_7_Transition.txt'
  Transition density matrix of state singlet_A_8 printed to ASCII file 'State_singlet_A_8_Transition.txt'
  Transition density matrix of state singlet_A_9 printed to ASCII file 'State_singlet_A_9_Transition.txt'
  Transition density matrix of state singlet_A_10 printed to ASCII file 'State_singlet_A_10_Transition.txt'
  Transition properties ...  CPU 0.33 s  wall 0.71 s
  Difference density matrix of state singlet_A_1 printed to ASCII file 'State_singlet_A_1_Difference.txt'
  Total density matrix of state singlet_A_1 printed to ASCII file 'State_singlet_A_1_Total.txt'
  Difference density matrix of state singlet_A_2 printed to ASCII file 'State_singlet_A_2_Difference.txt'
  Total density matrix of state singlet_A_2 printed to ASCII file 'State_singlet_A_2_Total.txt'
  Difference density matrix of state singlet_A_3 printed to ASCII file 'State_singlet_A_3_Difference.txt'
  Total density matrix of state singlet_A_3 printed to ASCII file 'State_singlet_A_3_Total.txt'
  Difference density matrix of state singlet_A_4 printed to ASCII file 'State_singlet_A_4_Difference.txt'
  Total density matrix of state singlet_A_4 printed to ASCII file 'State_singlet_A_4_Total.txt'
  Difference density matrix of state singlet_A_5 printed to ASCII file 'State_singlet_A_5_Difference.txt'
  Total density matrix of state singlet_A_5 printed to ASCII file 'State_singlet_A_5_Total.txt'
  Difference density matrix of state singlet_A_6 printed to ASCII file 'State_singlet_A_6_Difference.txt'
  Total density matrix of state singlet_A_6 printed to ASCII file 'State_singlet_A_6_Total.txt'
  Difference density matrix of state singlet_A_7 printed to ASCII file 'State_singlet_A_7_Difference.txt'
  Total density matrix of state singlet_A_7 printed to ASCII file 'State_singlet_A_7_Total.txt'
  Difference density matrix of state singlet_A_8 printed to ASCII file 'State_singlet_A_8_Difference.txt'
  Total density matrix of state singlet_A_8 printed to ASCII file 'State_singlet_A_8_Total.txt'
  Difference density matrix of state singlet_A_9 printed to ASCII file 'State_singlet_A_9_Difference.txt'
  Total density matrix of state singlet_A_9 printed to ASCII file 'State_singlet_A_9_Total.txt'
  Difference density matrix of state singlet_A_10 printed to ASCII file 'State_singlet_A_10_Difference.txt'
  Total density matrix of state singlet_A_10 printed to ASCII file 'State_singlet_A_10_Total.txt'
  Properties ...  CPU 0.62 s  wall 0.98 s
  ISR TDMS ...  CPU 32.24 s  wall 10.77 s
  ISR transition properties ...  CPU 0.81 s  wall 0.35 s
  Sum-over-states TPA ...  CPU 0.00 s  wall 0.00 s

--------------------------------------------------------------------------------
                   State-averaged natural transition orbitals
--------------------------------------------------------------------------------
--------------------------------------------------------------------------------
  SA-NTO decomposition ...  CPU 0.02 s  wall 0.06 s

--------------------------------------------------------------------------------
                             Excited State Summary
--------------------------------------------------------------------------------
--------------------------------------------------------------------------------

  Excited state 1 (singlet, A)                                     [converged]
  ----------------------------------------------------------------------------
  Term symbol:  2 (1) A                                     R^2 =  2.75233e-13

  Total energy:                                            -77.9975771905 a.u.
  Excitation energy:                                               8.721099 eV

  Osc. strength:                                                      0.445913
  Trans. dip. moment [a.u.]:           [  -1.025709,    1.017298,   -0.004472]
  <i|r^2|0> [a.u.]:                    [  -5.977931,    0.255114,   -0.001047]
  Two-photon absorption cross-section (SoS) [a.u.]:                   0.075499
  Two-photon absorption matrix (SoS) [a.u.]:
                                       |   -0.099813   -0.047259    0.004780 |
                                       |   -0.047259   -0.004566   -0.003626 |
                                       |    0.004780   -0.003626    0.012873 |
  Two-photon absorption cross-section [a.u.]:                         0.042285
  Two-photon absorption matrix [a.u.]:
                                       |   -0.053583   -0.023538    0.010405 |
                                       |   -0.023538    0.070145   -0.006697 |
                                       |    0.010405   -0.006697    0.023622 |

  Dip. moment [a.u.]:                  [   0.007378,    0.003078,    0.007236]
  Total dipole [Debye]:                                               0.027407
  <r^2> [a.u.]:                        [ 170.609546,   36.860087,   11.908553]
  Total <r^2> [a.u.]:                                               219.378187

  V1^2 = 0.9713, V2^2 = 0.0287

  Important amplitudes:
      occ i     occ j     vir a      vir b          v   
    -----------------------------------------------------
     8 (A) A              9 (A) A                -0.6808
     6 (A) A             14 (A) A                 0.0615
     4 (A) A             10 (A) A                -0.0608
     7 (A) A             16 (A) A                 0.0566
     5 (A) A             13 (A) A                -0.0525
     6 (A) A             23 (A) A                -0.0466
     8 (A) A             20 (A) A                -0.0349
     6 (A) A             19 (A) A                -0.0293
     3 (A) A             12 (A) A                 0.0284
     5 (A) A             22 (A) A                 0.0206
     7 (A) A             11 (A) A                 0.0193
     4 (A) A             24 (A) A                -0.0186
     8 (A) A   8 (A) B   17 (A) A   20 (A) B      0.0184
     8 (A) A   8 (A) B    9 (A) A   28 (A) B     -0.0165
     7 (A) A             21 (A) A                 0.0160
     3 (A) A             26 (A) A                -0.0157
     3 (A) A             14 (A) A                 0.0143
     6 (A) A             26 (A) A                -0.0143
     6 (A) A             12 (A) A                -0.0132
     3 (A) A   4 (A) B    9 (A) A    9 (A) B      0.0129
     3 (A) A             19 (A) A                -0.0119
     8 (A) A   8 (A) B   18 (A) A   19 (A) B      0.0109
     6 (A) A             22 (A) A                 0.0102
     3 (A) A             27 (A) A                -0.0100
     7 (A) A             32 (A) A                 0.0091
     6 (A) A             16 (A) A                 0.0085
     7 (A) A             36 (A) A                 0.0084
     5 (A) A             10 (A) A                 0.0080
     3 (A) A             23 (A) A                -0.0080
     6 (A) A             27 (A) A                -0.0076
     8 (A) A   8 (A) B   25 (A) A   29 (A) B      0.0074
     5 (A) A             23 (A) A                 0.0074
     7 (A) A             23 (A) A                 0.0072
     7 (A) A             10 (A) A                -0.0069
     8 (A) A             10 (A) A                -0.0068
     6 (A) A             13 (A) A                -0.0068
     6 (A) A             40 (A) A                 0.0065
     3 (A) A   6 (A) B    9 (A) A   28 (A) B     -0.0064
     7 (A) A             14 (A) A                -0.0062
     5 (A) A   8 (A) B   11 (A) A    9 (A) B     -0.0061
    -----------------------------------------------------

  Density matrix analysis:
  ------------------------
  NOs
    Occupation of frontier NOs:
       0.9488   1.0222
    Number of electrons: 16.000000
    Number of unpaired electrons: n_u =  2.31704, n_u,nl =  2.03346
    NO participation ratio (PR_NO):  2.876051
  
  
  Mulliken Population Analysis
  Atom      Charge (e)              h+              e-           Del q
  --------------------------------------------------------------------
   1 H        0.059187        0.019935       -0.012829        0.007106
   2 C       -0.112588        0.490698       -0.505436       -0.014738
   3 H        0.064561        0.020703       -0.012341        0.008362
   4 C       -0.136324        0.490286       -0.506854       -0.016568
   5 H        0.059069        0.020505       -0.012371        0.008134
   6 H        0.066095        0.020496       -0.012793        0.007704
  --------------------------------------------------------------------
  Sum:        0.000000        1.062623       -1.062623        0.000000
  
  Multipole moment analysis of the density matrix
    Molecular charge:                      0.000000
    Number of electrons:                   16.000000
      Center of electronic charge [Ang]: [ -1.532000,  -0.059068,  -0.002408]
    Total nuclear charge:                  16.000000
      Center of nuclear charge [Ang]:    [ -1.531756,  -0.058967,  -0.002169]
    Dipole moment [D]:                     0.027407
      Cartesian components [D]:          [  0.018753,   0.007824,   0.018392]
    RMS size of the density [Ang]:         1.220242
      Cartesian components [Ang]:        [  0.799341,   0.801017,   0.456525]
  
  Exciton analysis of the difference density matrix
    <r_h> [Ang]:                  [ -1.527712,  -0.058224,  -0.004873]
    <r_e> [Ang]:                  [ -1.527524,  -0.057214,  -0.005360]
    |<r_e - r_h>| [Ang]:            0.001137
    Hole size [Ang]:                1.287528
      Cartesian components [Ang]: [  0.720074,   0.725216,   0.783124]
    Electron size [Ang]:            1.464243
      Cartesian components [Ang]: [  0.836786,   0.850195,   0.849098]

  Transition density matrix analysis:
  -----------------------------------
  
  CT numbers (Mulliken)
    omega =     0.9531
    <Phe> =    -0.1604
  
  Exciton analysis of the transition density matrix
    Trans. dipole moment [D]:             1.835958
      Cartesian components [D]:         [ -1.303546,   1.292856,  -0.005684]
    <r_h> [Ang]:                        [ -1.525784,  -0.058497,  -0.004193]
    <r_e> [Ang]:                        [ -1.528033,  -0.057282,  -0.005901]
    |<r_e - r_h>| [Ang]:                  0.003075
    Hole size [Ang]:                      1.214858
      Cartesian components [Ang]:       [  0.640809,   0.646851,   0.804256]
    Electron size [Ang]:                  1.486980
      Cartesian components [Ang]:       [  0.846234,   0.859956,   0.869180]
    RMS electron-hole separation [Ang]:   1.937537
      Cartesian components [Ang]:       [  1.081770,   1.102102,   1.170126]
    Covariance(r_h, r_e) [Ang^2]:        -0.033525
    Correlation coefficient:             -0.018559
    Center-of-mass size [Ang]:            0.951307
      Cartesian components [Ang]:       [  0.520403,   0.524703,   0.599043]

  Decomposition into state-averaged NTOs
    H- 0 -> L+ 0: -0.6694 ( 89.6%)
    H- 2 -> L+ 5: -0.0829 (  1.4%)
                   omega =  95.3%
  ----------------------------------------------------------------------------


  Excited state 2 (singlet, A)                                     [converged]
  ----------------------------------------------------------------------------
  Term symbol:  3 (1) A                                     R^2 =  5.10263e-13

  Total energy:                                            -77.9913810394 a.u.
  Excitation energy:                                               8.889705 eV

  Osc. strength:                                                      0.000922
  Trans. dip. moment [a.u.]:           [  -0.003422,   -0.009414,    0.064280]
  <i|r^2|0> [a.u.]:                    [  -0.121242,   -0.036998,    0.135929]
  Two-photon absorption cross-section (SoS) [a.u.]:                   4.695334
  Two-photon absorption matrix (SoS) [a.u.]:
                                       |   -0.122301   -0.051524    0.568284 |
                                       |   -0.051524   -0.043530    0.496846 |
                                       |    0.568284    0.496846    0.099234 |
  Two-photon absorption cross-section [a.u.]:                         0.650699
  Two-photon absorption matrix [a.u.]:
                                       |   -0.091164    0.011352   -0.267280 |
                                       |    0.011352    0.081789    0.041764 |
                                       |   -0.267280    0.041764   -0.022966 |

  Dip. moment [a.u.]:                  [  -0.017815,    0.107986,    0.016898]
  Total dipole [Debye]:                                               0.281478
  <r^2> [a.u.]:                        [ 168.465378,   35.945332,   13.128536]
  Total <r^2> [a.u.]:                                               217.539246

  V1^2 = 0.9544, V2^2 = 0.0456

  Important amplitudes:
      occ i     occ j     vir a      vir b          v   
    -----------------------------------------------------
     7 (A) A              9 (A) A                -0.6582
     8 (A) A             11 (A) A                 0.1452
     8 (A) A             10 (A) A                -0.1231
     7 (A) A             20 (A) A                -0.0747
     5 (A) A   8 (A) B    9 (A) A    9 (A) B     -0.0304
     8 (A) A             16 (A) A                -0.0281
     6 (A) A              9 (A) A                 0.0181
     8 (A) A             21 (A) A                 0.0181
     5 (A) A             28 (A) A                 0.0141
     4 (A) A   7 (A) B    9 (A) A   19 (A) B      0.0131
     5 (A) A   7 (A) B    9 (A) A   16 (A) B     -0.0128
     7 (A) A   8 (A) B   20 (A) A   17 (A) B      0.0104
     7 (A) A   8 (A) A    9 (A) A   28 (A) A      0.0093
     5 (A) A   8 (A) B    9 (A) A   20 (A) B     -0.0091
     5 (A) A   6 (A) A    9 (A) A   14 (A) A     -0.0086
     5 (A) A   6 (A) A    9 (A) A   23 (A) A      0.0086
     4 (A) A   6 (A) B    9 (A) A   16 (A) B     -0.0085
     8 (A) A   7 (A) B    9 (A) A   28 (A) B     -0.0084
     3 (A) A              9 (A) A                 0.0083
     4 (A) A   5 (A) A    9 (A) A   10 (A) A     -0.0081
     5 (A) A   6 (A) B    9 (A) A   19 (A) B      0.0079
     3 (A) A   7 (A) B    9 (A) A   18 (A) B     -0.0078
     6 (A) A   7 (A) B    9 (A) A   18 (A) B      0.0078
     5 (A) A   7 (A) A    9 (A) A   16 (A) A     -0.0076
     5 (A) A   6 (A) B    9 (A) A   23 (A) B      0.0074
     4 (A) A   8 (A) B    9 (A) A   25 (A) B     -0.0073
     7 (A) A   8 (A) B   17 (A) A   20 (A) B      0.0073
     4 (A) A   7 (A) B   19 (A) A    9 (A) B      0.0071
     7 (A) A   8 (A) B   19 (A) A   18 (A) B      0.0069
     8 (A) A             24 (A) A                -0.0069
     5 (A) A   5 (A) B    9 (A) A   13 (A) B      0.0069
     8 (A) A             18 (A) A                 0.0066
     5 (A) A   8 (A) A    9 (A) A   20 (A) A     -0.0066
     4 (A) A   5 (A) B    9 (A) A   18 (A) B      0.0065
     7 (A) A   8 (A) B   17 (A) A    9 (A) B      0.0064
     7 (A) A   7 (A) B   20 (A) A   22 (A) B      0.0063
     8 (A) A             12 (A) A                 0.0062
     5 (A) A   6 (A) B    9 (A) A   14 (A) B     -0.0062
     8 (A) A             19 (A) A                -0.0061
     5 (A) A   7 (A) B   11 (A) A   20 (A) B      0.0060
    -----------------------------------------------------

  Density matrix analysis:
  ------------------------
  NOs
    Occupation of frontier NOs:
       0.9279   1.0817
    Number of electrons: 16.000000
    Number of unpaired electrons: n_u =  2.35719, n_u,nl =  2.08561
    NO participation ratio (PR_NO):  3.203861
  
  
  Mulliken Population Analysis
  Atom      Charge (e)              h+              e-           Del q
  --------------------------------------------------------------------
   1 H        0.167635        0.127978       -0.012425        0.115554
   2 C       -0.282868        0.260478       -0.445496       -0.185018
   3 H        0.106506        0.093714       -0.043407        0.050307
   4 C       -0.294390        0.293451       -0.468084       -0.174633
   5 H        0.134487        0.092605       -0.009053        0.083552
   6 H        0.168629        0.166213       -0.055975        0.110238
  --------------------------------------------------------------------
  Sum:        0.000000        1.034439       -1.034439       -0.000000
  
  Multipole moment analysis of the density matrix
    Molecular charge:                      0.000000
    Number of electrons:                   16.000000
      Center of electronic charge [Ang]: [ -1.531167,  -0.062538,  -0.002728]
    Total nuclear charge:                  16.000000
      Center of nuclear charge [Ang]:    [ -1.531756,  -0.058967,  -0.002169]
    Dipole moment [D]:                     0.281478
      Cartesian components [D]:          [ -0.045281,   0.274472,   0.042950]
    RMS size of the density [Ang]:         1.207863
      Cartesian components [Ang]:        [  0.777156,   0.790694,   0.479338]
  
  Exciton analysis of the difference density matrix
    <r_h> [Ang]:                  [ -1.616420,  -0.043299,  -0.004889]
    <r_e> [Ang]:                  [ -1.603339,  -0.095928,  -0.010332]
    |<r_e - r_h>| [Ang]:            0.054503
    Hole size [Ang]:                1.491811
      Cartesian components [Ang]: [  1.081791,   0.911499,   0.473707]
    Electron size [Ang]:            1.503736
      Cartesian components [Ang]: [  0.904441,   0.882050,   0.815595]

  Transition density matrix analysis:
  -----------------------------------
  
  CT numbers (Mulliken)
    omega =     0.9214
    <Phe> =    -0.0112
  
  Exciton analysis of the transition density matrix
    Trans. dipole moment [D]:             0.082678
      Cartesian components [D]:         [ -0.004349,  -0.011965,   0.081692]
    <r_h> [Ang]:                        [ -1.624930,  -0.038940,  -0.004291]
    <r_e> [Ang]:                        [ -1.598684,  -0.101728,  -0.011137]
    |<r_e - r_h>| [Ang]:                  0.068396
    Hole size [Ang]:                      1.512636
      Cartesian components [Ang]:       [  1.108278,   0.919270,   0.463388]
    Electron size [Ang]:                  1.501792
      Cartesian components [Ang]:       [  0.895360,   0.875697,   0.828773]
    RMS electron-hole separation [Ang]:   2.116294
      Cartesian components [Ang]:       [  1.414741,   1.255864,   0.948689]
    Covariance(r_h, r_e) [Ang^2]:         0.034712
    Correlation coefficient:              0.015280
    Center-of-mass size [Ang]:            1.073879
      Cartesian components [Ang]:       [  0.717477,   0.642369,   0.475190]

  Decomposition into state-averaged NTOs
    H- 1 -> L+ 0:  0.6504 ( 84.6%)
    H- 0 -> L+ 2:  0.1641 (  5.4%)
    H- 0 -> L+ 1:  0.0941 (  1.8%)
                   omega =  92.1%
  ----------------------------------------------------------------------------


  Excited state 3 (singlet, A)                                     [converged]
  ----------------------------------------------------------------------------
  Term symbol:  4 (1) A                                     R^2 =  2.06159e-13

  Total energy:                                            -77.9830751877 a.u.
  Excitation energy:                                               9.115719 eV

  Osc. strength:                                                      0.021351
  Trans. dip. moment [a.u.]:           [   0.005669,   -0.035489,    0.307103]
  <i|r^2|0> [a.u.]:                    [   0.052680,    0.000942,   -0.020137]
  Two-photon absorption cross-section (SoS) [a.u.]:                   1.097011
  Two-photon absorption matrix (SoS) [a.u.]:
                                       |   -0.059854   -0.017797    0.271943 |
                                       |   -0.017797   -0.015653    0.244231 |
                                       |    0.271943    0.244231    0.003764 |
  Two-photon absorption cross-section [a.u.]:                         0.984623
  Two-photon absorption matrix [a.u.]:
                                       |   -0.078126   -0.008809    0.300155 |
                                       |   -0.008809   -0.033165    0.164111 |
                                       |    0.300155    0.164111    0.016816 |

  Dip. moment [a.u.]:                  [   0.482956,    0.308408,    0.032173]
  Total dipole [Debye]:                                               1.458789
  <r^2> [a.u.]:                        [ 178.137324,   41.341002,   11.107746]
  Total <r^2> [a.u.]:                                               230.586072

  V1^2 = 0.9580, V2^2 = 0.0420

  Important amplitudes:
      occ i     occ j     vir a      vir b          v   
    -----------------------------------------------------
     8 (A) A             10 (A) A                -0.6738
     7 (A) A              9 (A) A                 0.1343
     8 (A) A             24 (A) A                -0.0482
     8 (A) A             11 (A) A                 0.0403
     8 (A) A             18 (A) A                 0.0323
     4 (A) A              9 (A) A                -0.0248
     8 (A) A   8 (A) B    9 (A) A   12 (A) B      0.0215
     8 (A) A   8 (A) B   10 (A) A   17 (A) B     -0.0167
     5 (A) A   8 (A) B   11 (A) A   10 (A) B     -0.0161
     8 (A) A             13 (A) A                 0.0158
     7 (A) A             20 (A) A                 0.0145
     8 (A) A             15 (A) A                -0.0144
     7 (A) A   8 (A) B   13 (A) A   10 (A) B      0.0138
     8 (A) A             21 (A) A                 0.0134
     8 (A) A             16 (A) A                -0.0110
     4 (A) A   8 (A) B   12 (A) A   10 (A) B      0.0109
     6 (A) A   8 (A) A   10 (A) A   15 (A) A      0.0106
     4 (A) A   8 (A) A   10 (A) A   12 (A) A     -0.0104
     6 (A) A   8 (A) B   15 (A) A   10 (A) B     -0.0103
     7 (A) A   8 (A) B   22 (A) A   10 (A) B     -0.0103
     7 (A) A   8 (A) A   10 (A) A   22 (A) A      0.0095
     7 (A) A   8 (A) A   10 (A) A   13 (A) A     -0.0094
     5 (A) A   8 (A) A   10 (A) A   11 (A) A      0.0094
     6 (A) A   8 (A) B   10 (A) A   10 (A) B      0.0089
     5 (A) A   8 (A) B   21 (A) A   10 (A) B     -0.0089
     6 (A) A   8 (A) A   10 (A) A   18 (A) A      0.0083
     7 (A) A   8 (A) A   12 (A) A   16 (A) A     -0.0080
     3 (A) A   4 (A) B   10 (A) A    9 (A) B      0.0078
     8 (A) A             22 (A) A                -0.0078
     5 (A) A   8 (A) A   10 (A) A   21 (A) A      0.0076
     4 (A) A   8 (A) B   19 (A) A   10 (A) B     -0.0072
     8 (A) A   8 (A) B    9 (A) A   23 (A) B      0.0071
     8 (A) A   8 (A) B   10 (A) A   28 (A) B     -0.0070
     3 (A) A   8 (A) B   10 (A) A   10 (A) B     -0.0069
     3 (A) A   8 (A) A   10 (A) A   24 (A) A      0.0069
     8 (A) A   8 (A) B    9 (A) A   19 (A) B     -0.0069
     7 (A) A   8 (A) B   16 (A) A   12 (A) B      0.0068
     5 (A) A   8 (A) B   10 (A) A   11 (A) B     -0.0068
     8 (A) A              9 (A) A                 0.0066
     3 (A) A   8 (A) B   10 (A) A   18 (A) B      0.0066
    -----------------------------------------------------

  Density matrix analysis:
  ------------------------
  NOs
    Occupation of frontier NOs:
       0.9474   1.0183
    Number of electrons: 16.000000
    Number of unpaired electrons: n_u =  2.32841, n_u,nl =  2.04635
    NO participation ratio (PR_NO):  2.891255
  
  
  Mulliken Population Analysis
  Atom      Charge (e)              h+              e-           Del q
  --------------------------------------------------------------------
   1 H       -0.073252        0.059070       -0.184403       -0.125333
   2 C        0.288711        0.502910       -0.116350        0.386561
   3 H       -0.185255        0.053532       -0.294987       -0.241455
   4 C        0.272642        0.515258       -0.122859        0.392398
   5 H       -0.087655        0.056103       -0.194692       -0.138589
   6 H       -0.215191        0.057561       -0.331143       -0.273582
  --------------------------------------------------------------------
  Sum:        0.000000        1.244434       -1.244434       -0.000000
  
  Multipole moment analysis of the density matrix
    Molecular charge:                      0.000000
    Number of electrons:                   16.000000
      Center of electronic charge [Ang]: [ -1.547729,  -0.069167,  -0.003233]
    Total nuclear charge:                  16.000000
      Center of nuclear charge [Ang]:    [ -1.531756,  -0.058967,  -0.002169]
    Dipole moment [D]:                     1.458789
      Cartesian components [D]:          [  1.227552,   0.783896,   0.081775]
    RMS size of the density [Ang]:         1.278830
      Cartesian components [Ang]:        [  0.849856,   0.847795,   0.440902]
  
  Exciton analysis of the difference density matrix
    <r_h> [Ang]:                  [ -1.541198,  -0.058552,  -0.004273]
    <r_e> [Ang]:                  [ -1.743270,  -0.187526,  -0.015293]
    |<r_e - r_h>| [Ang]:            0.239977
    Hole size [Ang]:                1.424851
      Cartesian components [Ang]: [  0.843443,   0.837001,   0.786279]
    Electron size [Ang]:            2.066700
      Cartesian components [Ang]: [  1.377062,   1.358373,   0.727855]

  Transition density matrix analysis:
  -----------------------------------
  
  CT numbers (Mulliken)
    omega =     0.9248
    <Phe> =    -0.0122
  
  Exciton analysis of the transition density matrix
    Trans. dipole moment [D]:             0.392953
      Cartesian components [D]:         [  0.007205,  -0.045102,   0.390289]
    <r_h> [Ang]:                        [ -1.520521,  -0.052029,  -0.004350]
    <r_e> [Ang]:                        [ -1.804734,  -0.225858,  -0.018984]
    |<r_e - r_h>| [Ang]:                  0.333478
    Hole size [Ang]:                      1.226947
      Cartesian components [Ang]:       [  0.652737,   0.649121,   0.811157]
    Electron size [Ang]:                  2.244630
      Cartesian components [Ang]:       [  1.495316,   1.473738,   0.794034]
    RMS electron-hole separation [Ang]:   2.568324
      Cartesian components [Ang]:       [  1.647742,   1.611221,   1.133668]
    Covariance(r_h, r_e) [Ang^2]:         0.029340
    Correlation coefficient:              0.010653
    Center-of-mass size [Ang]:            1.284761
      Cartesian components [Ang]:       [  0.820029,   0.809430,   0.568318]

  Decomposition into state-averaged NTOs
    H- 0 -> L+ 1:  0.6473 ( 83.8%)
    H- 0 -> L+ 2:  0.1561 (  4.9%)
    H- 1 -> L+ 0: -0.1328 (  3.5%)
                   omega =  92.5%
  ----------------------------------------------------------------------------


  Excited state 4 (singlet, A)                                     [converged]
  ----------------------------------------------------------------------------
  Term symbol:  5 (1) A                                     R^2 =  6.35381e-13

  Total energy:                                            -77.9598583128 a.u.
  Excitation energy:                                               9.747482 eV

  Osc. strength:                                                      0.001706
  Trans. dip. moment [a.u.]:           [   0.004970,    0.004405,   -0.084262]
  <i|r^2|0> [a.u.]:                    [   0.012003,   -0.016816,    0.032415]
  Two-photon absorption cross-section (SoS) [a.u.]:                 130.176728
  Two-photon absorption matrix (SoS) [a.u.]:
                                       |   -0.409813   -0.272144    2.871175 |
                                       |   -0.272144   -0.190954    2.771980 |
                                       |    2.871175    2.771980    0.579997 |
  Two-photon absorption cross-section [a.u.]:                        79.205512
  Two-photon absorption matrix [a.u.]:
                                       |   -0.397414   -0.223955    2.327832 |
                                       |   -0.223955   -0.062310    2.061543 |
                                       |    2.327832    2.061543    0.449068 |

  Dip. moment [a.u.]:                  [  -0.531938,   -0.507570,   -0.059634]
  Total dipole [Debye]:                                               1.874943
  <r^2> [a.u.]:                        [ 173.337439,   40.927716,   10.771925]
  Total <r^2> [a.u.]:                                               225.037080

  V1^2 = 0.9632, V2^2 = 0.0368

  Important amplitudes:
      occ i     occ j     vir a      vir b          v   
    -----------------------------------------------------
     8 (A) A             11 (A) A                 0.6687
     7 (A) A              9 (A) A                 0.1365
     8 (A) A             21 (A) A                 0.0758
     8 (A) A             10 (A) A                 0.0686
     8 (A) A             16 (A) A                -0.0656
     6 (A) A              9 (A) A                -0.0172
     8 (A) A   8 (A) B    9 (A) A   13 (A) B      0.0164
     5 (A) A   8 (A) B   11 (A) A   11 (A) B      0.0159
     8 (A) A   8 (A) B   11 (A) A   17 (A) B      0.0138
     7 (A) A   8 (A) B   13 (A) A   11 (A) B     -0.0126
     7 (A) A             20 (A) A                 0.0123
     8 (A) A             24 (A) A                 0.0122
     8 (A) A             14 (A) A                -0.0120
     4 (A) A   8 (A) B   12 (A) A   11 (A) B     -0.0110
     5 (A) A   8 (A) A   11 (A) A   21 (A) A     -0.0107
     8 (A) A   8 (A) B    9 (A) A   22 (A) B     -0.0106
     8 (A) A             19 (A) A                -0.0102
     7 (A) A   8 (A) A   11 (A) A   22 (A) A     -0.0093
     6 (A) A   8 (A) B   15 (A) A   11 (A) B      0.0089
     7 (A) A   8 (A) B   22 (A) A   11 (A) B      0.0087
     6 (A) A   8 (A) B   10 (A) A   11 (A) B     -0.0086
     3 (A) A   4 (A) B   11 (A) A    9 (A) B     -0.0083
     6 (A) A   8 (A) A   11 (A) A   15 (A) A     -0.0080
     3 (A) A   8 (A) B   11 (A) A   18 (A) B     -0.0079
     7 (A) A   8 (A) A   13 (A) A   16 (A) A     -0.0076
     7 (A) A   8 (A) A   11 (A) A   13 (A) A      0.0074
     4 (A) A   8 (A) B   19 (A) A   11 (A) B      0.0069
     5 (A) A   8 (A) B   21 (A) A   11 (A) B      0.0069
     4 (A) A   8 (A) A   11 (A) A   12 (A) A      0.0063
     3 (A) A   6 (A) B   11 (A) A   28 (A) B      0.0059
     5 (A) A   8 (A) B    9 (A) A    9 (A) B      0.0058
     6 (A) A   8 (A) A   11 (A) A   18 (A) A     -0.0058
     8 (A) A             13 (A) A                 0.0057
     6 (A) A   8 (A) B   18 (A) A   11 (A) B      0.0056
     3 (A) A   8 (A) B   11 (A) A   30 (A) B     -0.0056
     7 (A) A   8 (A) B   16 (A) A   13 (A) B      0.0055
     3 (A) A   8 (A) A   11 (A) A   18 (A) A     -0.0054
     3 (A) A   5 (A) B   11 (A) A   25 (A) B     -0.0054
     8 (A) A   8 (A) B   20 (A) A   22 (A) B     -0.0053
     3 (A) A   8 (A) A   11 (A) A   24 (A) A     -0.0053
    -----------------------------------------------------

  Density matrix analysis:
  ------------------------
  NOs
    Occupation of frontier NOs:
       0.9484   1.0200
    Number of electrons: 16.000000
    Number of unpaired electrons: n_u =  2.32181, n_u,nl =  2.04490
    NO participation ratio (PR_NO):  2.877771
  
  
  Mulliken Population Analysis
  Atom      Charge (e)              h+              e-           Del q
  --------------------------------------------------------------------
   1 H       -0.267809        0.047331       -0.367222       -0.319891
   2 C        0.279824        0.502846       -0.125172        0.377674
   3 H       -0.009590        0.042456       -0.108245       -0.065789
   4 C        0.249044        0.501733       -0.132932        0.368801
   5 H       -0.199771        0.044753       -0.295458       -0.250706
   6 H       -0.051698        0.047228       -0.157317       -0.110089
  --------------------------------------------------------------------
  Sum:        0.000000        1.186346       -1.186346       -0.000000
  
  Multipole moment analysis of the density matrix
    Molecular charge:                      0.000000
    Number of electrons:                   16.000000
      Center of electronic charge [Ang]: [ -1.514163,  -0.042179,  -0.000196]
    Total nuclear charge:                  16.000000
      Center of nuclear charge [Ang]:    [ -1.531756,  -0.058967,  -0.002169]
    Dipole moment [D]:                     1.874943
      Cartesian components [D]:          [ -1.352051,  -1.290114,  -0.151575]
    RMS size of the density [Ang]:         1.282217
      Cartesian components [Ang]:        [  0.860827,   0.845298,   0.434198]
  
  Exciton analysis of the difference density matrix
    <r_h> [Ang]:                  [ -1.515720,  -0.043459,  -0.002580]
    <r_e> [Ang]:                  [ -1.274986,   0.185223,   0.026812]
    |<r_e - r_h>| [Ang]:            0.333335
    Hole size [Ang]:                1.394746
      Cartesian components [Ang]: [  0.819992,   0.804580,   0.790937]
    Electron size [Ang]:            2.086791
      Cartesian components [Ang]: [  1.466405,   1.323374,   0.673078]

  Transition density matrix analysis:
  -----------------------------------
  
  CT numbers (Mulliken)
    omega =     0.9291
    <Phe> =    -0.0135
  
  Exciton analysis of the transition density matrix
    Trans. dipole moment [D]:             0.107418
      Cartesian components [D]:         [  0.006316,   0.005598,  -0.107086]
    <r_h> [Ang]:                        [ -1.530282,  -0.056601,  -0.005035]
    <r_e> [Ang]:                        [ -1.225653,   0.234764,   0.032629]
    |<r_e - r_h>| [Ang]:                  0.423214
    Hole size [Ang]:                      1.225450
      Cartesian components [Ang]:       [  0.655439,   0.644966,   0.810028]
    Electron size [Ang]:                  2.219284
      Cartesian components [Ang]:       [  1.564390,   1.401817,   0.716112]
    RMS electron-hole separation [Ang]:   2.558752
      Cartesian components [Ang]:       [  1.713391,   1.562805,   1.081270]
    Covariance(r_h, r_e) [Ang^2]:         0.029424
    Correlation coefficient:              0.010819
    Center-of-mass size [Ang]:            1.273362
      Cartesian components [Ang]:       [  0.853072,   0.775351,   0.540878]

  Decomposition into state-averaged NTOs
    H- 0 -> L+ 2:  0.6358 ( 80.9%)
    H- 0 -> L+ 1: -0.1830 (  6.7%)
    H- 1 -> L+ 0: -0.1346 (  3.6%)
    H- 0 -> L+ 4:  0.0708 (  1.0%)
                   omega =  92.9%
  ----------------------------------------------------------------------------


  Excited state 5 (singlet, A)                                     [converged]
  ----------------------------------------------------------------------------
  Term symbol:  6 (1) A                                     R^2 =  1.15028e-13

  Total energy:                                            -77.9444446749 a.u.
  Excitation energy:                                              10.166908 eV

  Osc. strength:                                                      0.000069
  Trans. dip. moment [a.u.]:           [  -0.004227,    0.002257,    0.015953]
  <i|r^2|0> [a.u.]:                    [   0.044180,   -0.084666,    0.025888]
[...]
    16   -1.137455081448e-03
    17   -1.746621043605e-03
    18   -2.926307065701e-04
    19   -2.835306351674e-03
    20    1.913575291638e-02
    21    9.979565310304e-01
    22   -2.779012205435e-04
    23    1.483927604426e-02
    24    9.184597153849e-04
    25    7.243673703202e-02
    26   -5.543540312787e-02
    27   -1.387998260185e+00
    28    1.223921593719e-01
    29   -7.571492046626e-02
    30   -3.208354152273e-03
    31    4.405241234335e-01
    32   -3.399806584841e-01
    33   -1.603408665627e-02
    34    1.510716332888e-02
    35   -7.377306774177e-04
    36   -2.188431964100e-03
    37    3.882979622494e-03
    38   -2.591680150827e-03
    39    6.328527628989e-03
    40    8.938618764926e-01
    41    1.305697526116e-03
    42   -1.411232581811e-02
    43   -9.717720885722e-04
    44    1.913782235375e-02
    45    1.000013950360e+00
    46    1.303195368989e-02
    47    1.200029781292e-03
    48    4.497504438081e-04
Sym=X
Ene= 0.231059
Spin=Alpha
Occup=0
     1    3.137978413143e-02
     2    1.354461473688e+00
     3   -1.671299232897e-02
     4   -3.812827734673e-03
     5   -9.456698847177e-04
     6    1.251932598129e-02
     7   -6.117824437559e-03
     8   -3.136721207722e-01
     9   -1.706480148565e-01
    10   -1.394030897057e-01
    11   -1.555261029813e-02
    12   -5.783942543475e-01
    13   -5.189832606127e-01
    14   -5.427062583714e-02
    15    5.089553138532e-03
    16   -1.830326007179e-04
    17   -4.061478731360e-04
    18    2.415650755839e-03
    19   -2.285716985185e-03
    20   -2.826494861877e-02
    21   -9.964949353759e-01
    22   -2.845092239961e-03
    23   -9.331266192693e-03
    24   -7.067127342143e-04
    25    2.746100421527e-04
    26   -2.142806603223e-03
    27   -4.199127298824e-02
    28   -1.596289304150e-01
    29   -1.606238332670e-01
    30   -1.577286077292e-02
    31   -4.745817946891e-01
    32   -5.944257162818e-01
    33   -5.375083866600e-02
    34    2.282228762445e-04
    35   -3.981827411139e-04
    36   -4.431282603435e-04
    37   -2.904886713096e-04
    38   -5.142532175569e-04
    39    2.218890235263e-02
    40    1.192209079836e+00
    41   -3.516018875608e-03
    42   -1.375374583824e-02
    43   -9.570848212493e-04
    44   -3.658820646380e-02
    45   -1.103668024160e+00
    46   -1.185928829981e-02
    47   -2.451135269647e-03
    48   -5.956613656467e-04
Sym=X
Ene= 0.236371
Spin=Alpha
Occup=0
     1    1.883592446787e-02
     2    1.007641043085e+00
     3   -1.567294932517e-02
     4   -8.553680033349e-03
     5   -1.226535104069e-03
     6    8.844865160955e-02
     7   -8.489249623713e-02
     8   -1.570731928012e+00
     9   -4.432105648682e-02
    10    6.958851605539e-02
    11    6.036399997848e-04
    12   -2.084037988724e-01
    13    2.733475991392e-01
    14   -8.495475226440e-04
    15    2.175219311855e-02
    16   -2.673252966876e-03
    17   -2.413080540174e-03
    18    6.537270261005e-04
    19   -1.277450032733e-02
    20    1.805766240745e-02
    21    1.179297473991e+00
    22    8.858650567505e-03
    23    1.742431614144e-02
    24    1.295097115764e-03
    25   -8.508155558061e-02
    26    8.038445793266e-02
    27    1.500793406156e+00
    28   -5.142756586495e-02
    29    6.241207097410e-02
    30    5.010850199314e-03
    31   -1.959925213432e-01
    32    2.806135636641e-01
    33    2.046809119609e-02
    34   -2.031403463362e-02
    35    2.002133227578e-03
    36    2.851123456214e-03
    37   -2.532846557015e-03
    38    1.187502647135e-02
    39   -2.281131190497e-02
    40   -1.186132579201e+00
    41    8.481695151901e-03
    42    1.810880506319e-02
    43    1.692508879890e-03
    44   -1.702771389800e-02
    45   -9.085764801549e-01
    46   -1.256801828964e-02
    47   -9.449345777387e-03
    48   -8.602687724500e-04
Sym=X
Ene= 0.302463
Spin=Alpha
Occup=0
     1    2.136817864744e-02
     2   -1.654482627601e+00
     3    2.319549789792e-02
     4   -1.240528994706e-03
     5    1.183048373188e-03
     6    8.465173612872e-04
     7    7.838037336149e-04
     8   -6.030143998135e-02
     9    1.344706858662e-01
    10    1.431975122616e-01
    11    1.378193826472e-02
    12    1.165576286784e+00
    13    1.161355378040e+00
    14    1.163772847108e-01
    15    4.564542434047e-04
    16    1.750496253648e-03
    17   -1.774898252690e-03
    18    3.520803758489e-02
    19   -7.872623906970e-04
    20   -2.638271649058e-02
    21    1.696519000951e+00
    22   -4.009623453741e-04
    23    2.399633283832e-02
    24    1.063156494912e-03
    25   -5.911175210438e-04
    26    1.492490700721e-03
    27   -1.059976026242e-01
    28   -1.371624268221e-01
    29   -1.427184157351e-01
    30   -1.394792762106e-02
    31   -1.099557426290e+00
    32   -1.176474069938e+00
    33   -1.144018475793e-01
    34    1.512529619180e-03
    35    7.568174415412e-04
    36   -2.598590461407e-03
    37    3.244729926777e-02
    38   -1.980800864427e-03
    39   -2.578491894739e-02
    40    1.703091986785e+00
    41    4.668577345178e-04
    42   -2.346165866308e-02
    43   -1.263754102798e-03
    44    8.168657243195e-03
    45   -1.562938622727e+00
    46   -2.258625152345e-02
    47    1.948375489453e-03
    48   -8.799533797111e-04
Sym=X
Ene= 0.461989
Spin=Alpha
Occup=0
     1   -1.474347403750e-01
     2   -6.665358192914e-01
     3   -1.716241194124e-02
     4   -7.956833399115e-03
     5   -1.246363936865e-03
     6    6.191806629262e-02
     7    1.927066696387e-02
     8   -3.603058259620e+00
     9    9.649812363334e-02
    10   -9.607832050445e-02
    11   -2.187475453628e-03
    12    2.361512620005e+00
    13   -2.398406492173e+00
    14    8.747311582276e-03
    15    5.471764329397e-02
    16   -3.647362357023e-03
    17   -4.168031636942e-03
    18   -2.959576294839e-03
    19    1.663740765778e-02
    20   -1.044159381683e-01
    21   -7.186817588023e-01
    22    1.312803356285e-02
    23    1.415629554781e-02
    24    1.366464713681e-03
    25   -6.360865216230e-02
    26   -1.303371056706e-02
    27    3.640081963360e+00
    28    1.129094576265e-01
    29   -1.038795283611e-01
    30   -4.474447542635e-03
    31    2.279374567031e+00
    32   -2.413145398426e+00
    33   -7.681435322197e-03
    34   -5.069275453156e-02
    35    3.195205127500e-03
    36    3.132411265991e-03
    37    4.045072769056e-03
    38   -2.302153432462e-02
    39    6.697553236227e-02
    40    8.321177319361e-01
    41    1.316651639313e-02
    42    1.347271977227e-02
    43    1.244371492569e-03
    44    1.341493467562e-01
    45    5.666523309369e-01
    46   -1.624863917162e-02
    47   -5.554698609841e-03
    48   -1.155279639525e-03
Sym=X
Ene= 0.580330
Spin=Alpha
Occup=0
     1    2.589973457222e-01
     2   -2.935277008549e-02
     3   -1.793393624448e-02
     4    2.649357916241e-02
     5    4.942192021068e-04
     6   -2.355046559890e-03
     7   -1.660314264850e-01
     8   -5.930053938834e-01
     9    3.136419388700e-01
    10   -2.941505105873e-01
    11    8.856130863376e-04
    12   -6.454895061659e-01
    13    5.900058453148e-01
    14    2.618474561049e-03
    15   -1.707951928598e-03
    16    3.861513362914e-03
    17    2.378328789256e-03
    18    1.045526621746e-02
    19    5.955440598427e-02
    20    2.249910335267e-01
    21    3.821224392571e-02
    22   -2.419402369042e-02
    23    2.167767562782e-02
    24   -3.993709121519e-05
    25   -1.022219602134e-02
    26   -1.721991695506e-01
    27   -2.389745366393e-01
    28   -3.043984631281e-01
    29    2.783388288287e-01
    30   -2.739551222872e-03
    31    8.429913516315e-01
    32   -8.347242090108e-01
    33   -6.479239936795e-03
    34   -1.941032062339e-03
    35    3.820652100674e-03
    36    2.376737073743e-03
    37    1.256015375185e-02
    38    6.078813852868e-02
    39    2.081120730824e-01
    40    1.821483042491e-01
    41    2.734535095598e-02
    42   -2.285625578368e-02
    43   -1.664681376957e-04
    44    2.576842465052e-01
    45    1.069454456948e-04
    46    2.364669921897e-02
    47   -3.170801529894e-02
    48   -7.479889564752e-04
Sym=X
Ene= 0.608948
Spin=Alpha
Occup=0
     1   -4.608132234335e-01
     2    2.356955206422e-01
     3   -5.330197923517e-02
     4    4.187515579874e-02
     5   -4.897648533800e-04
     6    2.818587040476e-03
     7   -2.727914157545e-03
     8    2.466188743047e-01
     9   -3.448038974711e-02
    10   -4.408121310085e-02
    11   -3.292110198494e-03
    12    1.151026618521e-01
    13    4.525239293361e-01
    14    2.662774095683e-02
    15   -1.416487393989e-02
    16   -6.223887132467e-03
    17    8.438946160982e-03
    18   -1.440916108129e-01
    19   -4.738260801258e-03
    20    5.495959885729e-01
    21   -1.749609779762e-01
    22    3.598946262691e-02
    23   -6.212966794162e-02
    24   -1.408455158910e-03
    25   -2.838744260271e-03
    26   -1.693564810663e-02
    27   -1.247594386703e-01
    28   -1.572253488536e-02
    29   -5.334363058413e-02
    30   -2.872959510253e-03
    31    3.758935924808e-02
    32    4.795149273737e-01
    33    2.720210450295e-02
    34    2.978331515815e-03
    35    5.947163411982e-03
    36   -9.570639749040e-03
    37    1.531033971593e-01
    38    1.352665532490e-02
    39   -5.407433019376e-01
    40    1.634803384851e-01
    41    3.404326088810e-02
    42   -6.035790256984e-02
    43   -2.035022663775e-03
    44    5.172641849265e-01
    45   -3.785367679240e-01
    46   -5.820886364040e-02
    47    4.114644148894e-02
    48    2.550223465995e-06
Sym=X
Ene= 0.688693
Spin=Alpha
Occup=0
     1    9.480693297237e-03
     2    4.004386592567e-03
     3    1.944961493638e-03
     4    2.102698790257e-03
     5   -2.013421145726e-02
     6    6.672761909334e-04
     7    4.061848236238e-03
     8    2.842446501805e-03
     9    2.946511023308e-02
    10    3.743628325903e-02
    11   -6.704783790140e-01
    12   -4.110854801822e-02
    13   -2.012197049544e-02
    14    6.137868463911e-01
    15   -2.301118334410e-03
    16    7.937974752427e-02
    17   -8.157377927896e-02
    18   -8.219292049873e-03
    19    2.332844097270e-03
    20    9.751815336459e-03
    21    3.319339351250e-03
    22   -1.118533723242e-04
    23   -6.182401731008e-05
    24   -1.982956625254e-02
    25    3.038333110044e-04
    26    8.527315009493e-03
    27   -1.301228349608e-02
    28    3.411192380379e-02
    29    3.342475702506e-02
    30   -6.714155672071e-01
    31   -4.425711952302e-02
    32   -1.672914996442e-02
    33    6.122124927323e-01
    34   -2.736934670543e-03
    35   -7.861996442679e-02
    36    8.262994596412e-02
    37    7.870208275853e-03
    38   -5.698910029239e-04
    39    1.981471180395e-03
    40   -1.167909163694e-02
    41    1.039887753500e-03
    42    3.599435227289e-03
    43   -2.393597604860e-02
    44    2.629578194513e-03
    45   -1.080210529757e-02
    46   -1.458804817740e-03
    47    7.103471948823e-04
    48   -1.179415641501e-02
Sym=X
Ene= 0.704908
Spin=Alpha
Occup=0
     1   -4.894539532209e-01
     2    1.235753531850e-01
     3   -7.347989630316e-02
     4   -4.080533103122e-02
     5   -6.541256017415e-03
     6   -4.477579565699e-02
     7   -3.122984100816e-01
     8    5.710426683961e-01
     9    1.823647174479e-01
    10   -2.058875548966e-01
    11   -1.136755879833e-02
    12   -5.841449102701e-02
    13    1.645314246940e-01
    14    5.428501397309e-03
    15    1.830620766544e-01
    16   -1.932264652619e-02
    17   -2.051992796229e-02
    18    1.776541367441e-03
    19   -8.025693126870e-02
    20   -4.410317092630e-01
    21    1.864379363015e-01
    22    4.352661002240e-02
    23    7.827036833962e-02
    24    5.221444091430e-03
    25   -4.700800969976e-02
    26   -2.878876533088e-01
    27    3.584728603534e-01
    28   -2.080891205509e-01
    29    1.672107881036e-01
    30   -1.014639340645e-02
    31    4.614392496153e-02
    32    4.810501296161e-02
    33    2.409311202959e-02
    34    1.989699846638e-01
    35   -2.068994279462e-02
    36   -2.110932127012e-02
    37    5.784934745768e-03
    38   -7.259215357997e-02
    39   -4.983243905742e-01
    40    9.328369669023e-02
    41   -3.794070589532e-02
    42   -8.653426431089e-02
    43   -6.141278522861e-03
    44   -5.196482307332e-01
    45    2.464427809508e-01
    46    7.749922324064e-02
    47    4.717084401996e-02
    48    6.599786878825e-03
Sym=X
Ene= 0.774796
Spin=Alpha
Occup=0
     1   -5.572303891592e-01
     2    4.847516483076e-01
     3   -1.170827570825e-01
     4   -2.662386196421e-02
     5   -7.116809389529e-03
     6   -9.068312591331e-02
     7    1.917483785525e-01
     8    6.027848482953e-01
     9   -8.476142250037e-02
    10    9.536879206215e-02
    11   -6.585096269329e-03
    12   -2.811726736117e-01
    13    3.277704024681e-01
    14    1.426856551458e-02
    15    2.116117909132e-01
    16   -1.905475532024e-02
    17   -1.895805942441e-02
    18   -1.294512276449e-02
    19   -1.358348822432e-02
    20   -5.315384928525e-01
    21    4.728209228274e-01
    22    2.259297576934e-02
    23    1.071089145326e-01
    24    6.460920815403e-03
    25    8.575887148594e-02
    26   -2.612820032990e-01
    27   -5.364093152644e-01
    28   -5.143084869833e-02
    29    1.647816321569e-01
    30    8.428867110491e-03
    31   -3.932649804304e-01
    32    1.646324891697e-01
    33   -2.250782557672e-02
    34   -1.908055210147e-01
    35    1.484211902730e-02
    36    1.800094873593e-02
    37    1.929666196355e-02
    38    4.859775765925e-03
    39    4.723260577868e-01
    40   -3.253348457224e-01
    41    2.066448851319e-02
    42    8.904617238727e-02
    43    5.417390522925e-03
    44    5.831888393905e-01
    45   -6.434415126010e-01
    46   -1.168790763847e-01
    47   -2.637553024794e-02
    48   -6.802521714877e-03
Sym=X
Ene= 0.807061
Spin=Alpha
Occup=0
     1    3.485539588905e-03
     2   -3.706820849665e-03
     3    2.256069388990e-03
     4    1.792501791772e-03
     5   -3.554318939916e-02
     6    8.290986809844e-04
     7   -4.584564598546e-03
     8    2.368518264452e-03
     9    4.025137472034e-02
    10    3.598351490099e-02
    11   -7.641016154477e-01
    12   -5.635842521398e-02
    13   -5.707686295235e-02
    14    1.125155243421e+00
    15   -2.156102932868e-03
    16   -6.194274426519e-02
    17    6.474876464648e-02
    18    6.529690314350e-03
    19   -1.290263830654e-03
    20    3.279785504045e-03
    21   -3.404109263017e-03
    22    1.675371820496e-03
    23    1.101987701833e-03
    24   -3.102933806586e-02
    25   -3.563782918571e-04
    26   -2.380400822655e-03
    27    6.963062011408e-04
    28   -3.591105366108e-02
    29   -4.302291257465e-02
    30    7.645260599661e-01
    31    5.933808487335e-02
    32    5.885510253335e-02
    33   -1.123004137621e+00
    34    1.996444383358e-03
    35   -6.240667916803e-02
    36    6.438518953288e-02
    37    5.920989856520e-03
    38    3.343707914003e-04
    39   -2.356323311330e-03
    40    3.081860713449e-03
    41   -6.143034943488e-04
    42   -3.548967856277e-03
    43    3.286724238580e-02
    44   -2.851710980188e-03
    45    8.331416549438e-03
    46    1.361463444621e-03
    47   -2.019821165171e-03
    48    2.610063355689e-02
Sym=X
Ene= 0.858690
Spin=Alpha
Occup=0
     1   -1.723831283356e-02
     2   -1.048115591909e+00
     3    1.338501312050e-01
     4    5.885834996846e-02
     5    8.914800855753e-03
     6   -6.314103848399e-03
     7    6.519926430218e-02
     8   -8.944917875352e-02
     9   -4.282992128548e-01
    10   -3.703173997457e-01
    11   -3.897965041094e-02
    12    9.685037027767e-01
    13    8.734459496980e-01
    14    9.130211339574e-02
    15    1.317747217864e-02
    16    9.875325641705e-03
    17   -1.260843497221e-02
    18    2.251362750922e-01
    19    2.019397850235e-02
    20   -2.523922589513e-02
    21    1.042836434465e+00
    22    5.234276368721e-02
    23    1.466192122787e-01
    24    1.081790443027e-02
    25    1.104285010488e-02
    26    3.464922953103e-02
    27    1.666027765564e-02
    28   -4.791164097943e-01
    29   -4.054847629176e-01
    30   -4.428122689059e-02
    31    1.041345030319e+00
    32    9.433159073974e-01
    33    9.888829453948e-02
    34   -3.742961635356e-02
    35   -8.023696461200e-03
    36    1.561101677482e-02
    37   -2.324946100266e-01
    38   -2.205440749769e-02
    39    5.219489593523e-02
    40   -1.078212844390e+00
    41    4.094121579071e-02
    42    1.605318630784e-01
    43    1.165093678125e-02
    44    1.601052360268e-02
    45    1.093700471249e+00
    46    1.447136856708e-01
    47    5.652413595465e-02
    48    8.304735778631e-03
Sym=X
Ene= 0.926425
Spin=Alpha
Occup=0
     1    1.655890257435e-01
     2   -1.242259447231e+00
     3    1.969088869255e-01
     4   -9.874264914381e-03
     5    9.917227179971e-03
     6    6.669517183241e-03
     7   -8.282284457068e-02
     8    2.332457365267e-01
     9   -4.436011913820e-01
    10   -5.502502378532e-01
    11   -5.006901204136e-02
    12    1.289936352075e+00
    13    1.603821383537e+00
    14    1.443841161238e-01
    15   -1.970486926230e-02
    16    8.843408401712e-03
    17   -5.240143079692e-03
    18    1.391663273608e-01
    19   -1.892789196832e-02
    20   -1.267052603410e-01
    21    1.310329260737e+00
    22   -4.505518595244e-03
    23    1.806248041703e-01
    24    8.097246812533e-03
    25   -1.131295563548e-02
    26   -1.307196003646e-01
    27    6.004452577189e-02
    28    5.450324926415e-01
    29    3.764738288854e-01
    30    4.542858691166e-02
    31   -1.518218929320e+00
    32   -1.138997302787e+00
    33   -1.308609364881e-01
    34    2.934063814313e-02
    35    4.148290020728e-03
    36   -5.837641296951e-03
    37    1.012299245601e-01
    38    5.960920209804e-02
    39   -1.427283599653e-01
    40    9.940283407564e-01
    41    3.591825292453e-02
    42   -1.517733647084e-01
    43   -5.951029342025e-03
    44    1.297384191379e-01
    45   -1.260619885726e+00
    46   -1.823699174180e-01
    47   -9.175408926236e-03
    48   -8.461950739857e-03
Sym=X
Ene= 0.971513
Spin=Alpha
Occup=0
     1    4.539893784299e-02
     2   -1.047761949659e+00
     3    1.085824440042e-01
     4    9.996281912888e-02
     5    1.015844343763e-02
     6   -2.599208022955e-02
     7   -2.857736644955e-01
     8   -4.495263925869e-01
     9   -5.177193333784e-01
    10    4.159199747311e-01
    11   -6.165415350202e-03
    12    1.631089131386e+00
    13   -1.222330578117e+00
    14    2.468205403551e-02
    15    5.555520691343e-02
    16    9.832988357924e-03
    17    1.214311703125e-02
    18    3.077728715348e-03
    19    3.019257804198e-01
    20    7.784866924523e-02
    21   -7.773775158467e-01
    22   -9.448929992667e-02
    23   -7.820985604419e-02
    24   -9.538276505705e-03
    25    2.503989662894e-02
    26    2.129345561559e-01
    27    5.693083380853e-01
    28   -3.849754420392e-01
    29    5.422166726027e-01
    30    1.373137829648e-02
    31    1.128844136948e+00
    32   -1.736577801775e+00
    33   -4.506920589156e-02
    34   -5.304404210992e-02
    35   -5.762378887206e-03
    36   -1.329688122513e-02
    37    4.047474544251e-02
    38   -2.833950347197e-01
    39   -7.571775426457e-02
    40    1.170360465129e+00
    41   -8.540641271696e-02
    42   -1.270471094639e-01
    43   -1.237052351751e-02
    44   -5.165008550781e-02
    45    5.815751261857e-01
    46    4.643123114291e-02
    47    9.267080576147e-02
    48    4.992514989418e-03
[5D]

======= END OF MOLDEN-FORMATTED INPUT FILE =======


        *************************************************************
        *                                                           *
        *  Thank you very much for using Q-Chem.  Have a nice day.  *
        *                                                           *
        *************************************************************


