                  Welcome to Q-Chem
     A Quantum Leap Into The Future Of Chemistry


 Q-Chem 5.4 (devel), Q-Chem, Inc., Pleasanton, CA (2021)

 E. Epifanovsky,  A. T. B. Gilbert,  Xintian Feng,  Joonho Lee,  Yuezhi Mao,  
 N. Mardirossian,  P. Pokhilko,  A. White,  M. Wormit,  M. P. Coons,  
 A. L. Dempwolff,  Zhengting Gan,  D. Hait,  P. R. Horn,  L. D. Jacobson,  
 I. Kaliman,  J. Kussmann,  A. W. Lange,  Ka Un Lao,  D. S. Levine,  Jie Liu,  
 S. C. McKenzie,  A. F. Morrison,  K. Nanda,  F. Plasser,  D. R. Rehn,  
 M. L. Vidal,  Zhi-Qiang You,  Ying Zhu,  B. Alam,  B. Albrecht,  
 A. Aldossary,  E. Alguire,  J. H. Andersen,  D. Barton,  K. Begam,  A. Behn,  
 Y. A. Bernard,  E. J. Berquist,  H. Burton,  A. Carreras,  K. Carter-Fenk,  
 R. Chakraborty,  A. D. Chien,  K. D. Closser,  V. Cofer-Shabica,  
 S. Dasgupta,  Jia Deng,  M. de Wergifosse,  M. Diedenhofen,  Hainam Do,  
 S. Ehlert,  Po-Tung Fang,  S. Fatehi,  Qingguo Feng,  T. Friedhoff,  
 J. Gayvert,  Qinghui Ge,  G. Gidofalvi,  M. Goldey,  J. Gomes,  
 C. Gonzalez-Espinoza,  S. Gulania,  A. Gunina,  M. W. D. Hanson-Heine,  
 P. H. P. Harbach,  A. W. Hauser,  M. F. Herbst,  M. Hernandez Vera,  
 M. Hodecker,  Z. C. Holden,  S. Houck,  Xunkun Huang,  Kerwin Hui,  
 B. C. Huynh,  M. Ivanov,  Hyunjun Ji,  Hanjie Jiang,  B. Kaduk,  S. Kaehler,  
 K. Khistyaev,  Jaehoon Kim,  P. Klunzinger,  Z. Koczor-Benda,  
 Joong Hoon Koh,  D. Kosenkov,  L. Koulias,  T. Kowalczyk,  C. M. Krauter,  
 K. Kue,  A. Kunitsa,  T. Kus,  A. Landau,  K. V. Lawler,  D. Lefrancois,  
 S. Lehtola,  Rain Li,  Yi-Pei Li,  Jiashu Liang,  M. Liebenthal,  
 Hung-Hsuan Lin,  You-Sheng Lin,  Fenglai Liu,  Kuan-Yu Liu,  
 M. Loipersberger,  A. Luenser,  A. Manjanath,  P. Manohar,  E. Mansoor,  
 S. F. Manzer,  Shan-Ping Mao,  A. V. Marenich,  T. Markovich,  S. Mason,  
 S. A. Maurer,  P. F. McLaughlin,  M. F. S. J. Menger,  J.-M. Mewes,  
 S. A. Mewes,  P. Morgante,  J. W. Mullinax,  K. J. Oosterbaan,  G. Paran,  
 Alexander C. Paul,  Suranjan K. Paul,  F. Pavosevic,  Zheng Pei,  S. Prager,  
 E. I. Proynov,  E. Ramos,  B. Rana,  A. E. Rask,  A. Rettig,  R. M. Richard,  
 F. Rob,  E. Rossomme,  T. Scheele,  M. Scheurer,  M. Schneider,  
 N. Sergueev,  S. M. Sharada,  W. Skomorowski,  D. W. Small,  C. J. Stein,  
 Yu-Chuan Su,  E. J. Sundstrom,  Zhen Tao,  J. Thirman,  T. Tsuchimochi,  
 N. M. Tubman,  S. P. Veccham,  O. Vydrov,  J. Wenzel,  J. Witte,  A. Yamada,  
 Kun Yao,  S. Yeganeh,  S. R. Yost,  A. Zech,  Igor Ying Zhang,  Xing Zhang,  
 Yu Zhang,  D. Zuev,  A. Aspuru-Guzik,  A. T. Bell,  N. A. Besley,  
 K. B. Bravaya,  B. R. Brooks,  D. Casanova,  Jeng-Da Chai,  S. Coriani,  
 C. J. Cramer,  A. E. DePrince, III,  R. A. DiStasio Jr.,  A. Dreuw,  
 B. D. Dunietz,  T. R. Furlani,  W. A. Goddard III,  S. Grimme,  
 S. Hammes-Schiffer,  T. Head-Gordon,  W. J. Hehre,  Chao-Ping Hsu,  
 T.-C. Jagau,  Yousung Jung,  A. Klamt,  Jing Kong,  D. S. Lambrecht,  
 WanZhen Liang,  N. J. Mayhall,  C. W. McCurdy,  J. B. Neaton,  
 C. Ochsenfeld,  J. A. Parkhill,  R. Peverati,  V. A. Rassolov,  Yihan Shao,  
 L. V. Slipchenko,  T. Stauch,  R. P. Steele,  J. E. Subotnik,  
 A. J. W. Thom,  A. Tkatchenko,  D. G. Truhlar,  T. Van Voorhis,  
 T. A. Wesolowski,  K. B. Whaley,  H. L. Woodcock III,  P. M. Zimmerman,  
 S. Faraji,  P. M. W. Gill,  M. Head-Gordon,  J. M. Herbert,  A. I. Krylov

 Additional authors for Version 5.4.1: 
 S. Kotaru,  Shaozhi Li,  Xiangyuan Li,  F. Matz,  A. Molle,  Haisheng Ren,  
 Yingli Su,  Hung-Yi Tsai,  C. Utku,  Fang Wang

 Contributors to earlier versions of Q-Chem not listed above: 
 R. D. Adamson,  B. Austin,  R. Baer,  J. Baker,  G. J. O. Beran,  
 K. Brandhorst,  S. T. Brown,  E. F. C. Byrd,  A. K. Chakraborty,  
 G. K. L. Chan,  Chun-Min Chang,  Yunqing Chen,  C.-L. Cheng,  
 Siu Hung Chien,  D. M. Chipman,  D. L. Crittenden,  H. Dachsel,  
 R. J. Doerksen,  A. D. Dutoi,  R. G. Edgar,  J. Fosso-Tande,  
 L. Fusti-Molnar,  D. Ghosh,  A. Ghysels,  A. Golubeva-Zadorozhnaya,  
 J. Gonthier,  M. S. Gordon,  S. R. Gwaltney,  G. Hawkins,  J. E. Herr,  
 A. Heyden,  S. Hirata,  E. G. Hohenstein,  G. Kedziora,  F. J. Keil,  
 C. Kelley,  Jihan Kim,  R. A. King,  R. Z. Khaliullin,  P. P. Korambath,  
 W. Kurlancheek,  A. Laurent,  A. M. Lee,  M. S. Lee,  S. V. Levchenko,  
 Ching Yeh Lin,  D. Liotard,  E. Livshits,  R. C. Lochan,  I. Lotan,  
 L. A. Martinez-Martinez,  P. E. Maslen,  N. Nair,  D. P. O'Neill,  
 D. Neuhauser,  E. Neuscamman,  C. M. Oana,  R. Olivares-Amaya,  R. Olson,  
 T. M. Perrine,  B. Peters,  P. A. Pieniazek,  A. Prociuk,  Y. M. Rhee,  
 J. Ritchie,  M. A. Rohrdanz,  E. Rosta,  N. J. Russ,  H. F. Schaefer III,  
 M. W. Schmidt,  N. E. Schultz,  S. Sharma,  N. Shenvi,  C. D. Sherrill,  
 A. C. Simmonett,  A. Sodt,  T. Stein,  D. Stuck,  K. S. Thanthiriwatte,  
 V. Vanovschi,  L. Vogt,  Tao Wang,  A. Warshel,  M. A. Watson,  
 C. F. Williams,  Q. Wu,  X. Xu,  Jun Yang,  W. Zhang,  Yan Zhao

 Please cite Q-Chem as follows:
 Y. Shao et al., Mol. Phys. 113, 184-215 (2015)
 DOI: 10.1080/00268976.2014.952696

 Q-Chem 5.4.1 for Intel X86 EM64T Linux

 Parts of Q-Chem use Armadillo 9.800.1 (Horizon Scraper).
 http://arma.sourceforge.net/

 Q-Chem begins on Tue Mar 21 11:23:32 2023  

 Host: cpu186.baobab
0

     Scratch files written to /scratch/fum/qchem54465//
 Processing $rem in /home/share/wesolowski/qc5.aug2021.FDE/config/preferences:
 Processing $rem in /home/fum/.qchemrc:

 Checking the input file for inconsistencies... 	...done.

--------------------------------------------------------------
User input:
--------------------------------------------------------------
$comment
generated from CCJob.Templates
$end

$rem
sym_ignore = true
method = adc(2)
ee_states = 10
basis = cc-pVDZ
mem_static = 1024
mem_total = 40000
adc_davidson_maxiter = 900
adc_davidson_conv = 6
adc_print = 3
adc_prop_es = true
adc_prop_es2es = true
adc_prop_tpa = true
molden_format = True
state_analysis = true
print_orbitals = 15
gen_scfman = false
fde_export_density = true
fde_details = 3
$end

$molecule
0 1
H -0.022069031797084564 -0.24828634239438593 0.0652335333402507
C -1.080264783688407 -0.526742132177022 -0.00238335640767658
H -1.3025153731956678 -1.5935747364011492 -0.07782361454819606
C -2.04522654497622 0.3935056782727113 0.006626711906323666
H -1.82101217571286 1.4622397052101066 0.08204931604780195
H -3.1014297472114465 0.11695056360333272 -0.06090909604064329                     
$end
--------------------------------------------------------------
 ----------------------------------------------------------------
             Standard Nuclear Orientation (Angstroms)
    I     Atom           X                Y                Z
 ----------------------------------------------------------------
    1      H      -0.0220690318    -0.2482863424     0.0652335333
    2      C      -1.0802647837    -0.5267421322    -0.0023833564
    3      H      -1.3025153732    -1.5935747364    -0.0778236145
    4      C      -2.0452265450     0.3935056783     0.0066267119
    5      H      -1.8210121757     1.4622397052     0.0820493160
    6      H      -3.1014297472     0.1169505636    -0.0609090960
 ----------------------------------------------------------------
 Nuclear Repulsion Energy =          33.20993539 hartrees
 There are        8 alpha and        8 beta electrons
 Requested basis set is cc-pVDZ
 There are 24 shells and 48 basis functions
 Total memory of 40000 MB is distributed as follows: 
   MEM_STATIC is set to 1024 MB
   QALLOC/CCMAN JOB total memory use is  38976 MB
 Warning: actual memory use might exceed 40000 MB

 Total QAlloc Memory Limit  40000 MB
 Mega-Array Size      1001 MB
 MEM_STATIC part      1024 MB

                       Distance Matrix (Angstroms)
             H (  1)   C (  2)   H (  3)   C (  4)   H (  5)
   C (  2)  1.096306
   H (  3)  1.862742  1.092345
   C (  4)  2.123322  1.333450  2.123026
   H (  5)  2.482414  2.124120  3.103611  1.094602
   H (  6)  3.103510  2.121997  2.482393  1.093896  1.862716

 A cutoff of  1.0D-11 yielded    300 shell pairs
 There are      1220 function pairs (      1329 Cartesian)
 Smallest overlap matrix eigenvalue = 4.81E-03

 Scale SEOQF with 1.000000e-01/1.000000e-01/1.000000e+00

 Standard Electronic Orientation quadrupole field applied
 Nucleus-field energy     =     0.0000000022 hartrees
 Guess from superposition of atomic densities
 Warning:  Energy on first SCF cycle will be non-variational
 SAD guess density has 16.000000 electrons
 A restricted Hartree-Fock SCF calculation will be
 performed using Pulay DIIS extrapolation
 SCF converges when DIIS error is below 1.0E-08
 using 10 threads for integral computing
 -------------------------------------------------------
 OpenMP Integral computing Module                
 Release: version 1.0, May 2013, Q-Chem Inc. Pittsburgh 
 -------------------------------------------------------
 ---------------------------------------
  Cycle       Energy         DIIS Error
 ---------------------------------------
    1     -78.3977764687      9.93E-02
    2     -78.0175837556      7.13E-03
    3     -78.0380499237      1.83E-03
    4     -78.0395260606      5.64E-04
    5     -78.0396436753      5.81E-05
    6     -78.0396455388      9.29E-06
    7     -78.0396456001      1.95E-06
    8     -78.0396456029      1.73E-07
    9     -78.0396456029      4.48E-08
   10     -78.0396456029      1.05E-08
   11     -78.0396456029      1.25E-09 Convergence criterion met
 ---------------------------------------
 SCF time:  CPU 2.13 s  wall 3.67 s
 SCF   energy in the final basis set = -78.03964560
 Total energy in the final basis set = -78.03964560
Exporting Density Matrix to file 'Densmat_SCF.txt'.
Export successful
================================================================================
|                                                                              |
|                                 A D C  M A N                                 |
|                                                                              |
 ------------------------------------------------------------------------------ 
|                                                                              |
| Components:                                                                  |
|                                                                              |
| - libvmm - 1.3-trunk                                                         |
|   Authors:                                                                   |
|   Evgeny Epifanovsky, Ilya Kaliman                                           |
|                                                                              |
| - libtensor - 2.5-trunk                                                      |
|   Authors:                                                                   |
|   Evgeny Epifanovsky, Michael Wormit, Dmitry Zuev, Sam Manzer,               |
|   Ilya Kaliman                                                               |
|                                                                              |
| - libwfa - 1.1-trunk                                                         |
|   Authors:                                                                   |
|   Felix Plasser, Stefanie Mewes (Baeppler), Benjamin Thomitzni,              |
|   Michael Wormit, Feng Chen, Anna I. Krylov, Pavel Pokhilko                  |
|                                                                              |
| - libadc - 1.1-trunk                                                         |
|   Authors:                                                                   |
|   Michael Wormit, Adrian L. Dempwolff, Philipp H. P. Harbach,                |
|   Caroline Krauter, Dirk Rehn, Matthias Schneider, Jan Wenzel                |
|                                                                              |
| - adcman - 2.6-trunk                                                         |
|   Authors:                                                                   |
|   Michael Wormit, Adrian L. Dempwolff, Philipp H. P. Harbach,                |
|   Caroline Krauter, Daniel Lefrancois, Jan-Michael Mewes, Dirk Rehn,         |
|   Matthias Schneider, Jan Wenzel, Andreas Dreuw                              |
|                                                                              |
| Authors of earlier versions of ADCMAN:                                       |
| Andreas Dreuw, Jan Hendrik Starcke, Dirk Rehn, Michael Wormit                |
|                                                                              |
================================================================================

 Created directory /scratch/fum/qchem54465/plots
  Import QC data ...  CPU 0.00 s  wall 0.00 s

 Alpha MOs, Restricted
 -- Occupied --                  
-11.239 -11.237  -1.030  -0.786  -0.635  -0.582  -0.500  -0.374
  1 A     2 A     3 A     4 A     5 A     6 A     7 A     8 A                  
 -- Virtual --                   
  0.168   0.203   0.231   0.236   0.303   0.463   0.580   0.609
  9 A    10 A    11 A    12 A    13 A    14 A    15 A    16 A                  
  0.689   0.705   0.776   0.807   0.858   0.928   0.971   1.006
 17 A    18 A    19 A    20 A    21 A    22 A    23 A    24 A                  
  1.130   1.237   1.241   1.263   1.291   1.593   1.728   1.744
 25 A    26 A    27 A    28 A    29 A    30 A    31 A    32 A                  
  1.811   1.852   1.854   1.901   1.963   1.972   2.224   2.248
 33 A    34 A    35 A    36 A    37 A    38 A    39 A    40 A                  
  2.356   2.423   2.493   2.623   2.679   2.795   3.099   3.369
 41 A    42 A    43 A    44 A    45 A    46 A    47 A    48 A                  

 Beta MOs, Restricted
 -- Occupied --                  
-11.239 -11.237  -1.030  -0.786  -0.635  -0.582  -0.500  -0.374
  1 A     2 A     3 A     4 A     5 A     6 A     7 A     8 A                  
 -- Virtual --                   
  0.168   0.203   0.231   0.236   0.303   0.463   0.580   0.609
  9 A    10 A    11 A    12 A    13 A    14 A    15 A    16 A                  
  0.689   0.705   0.776   0.807   0.858   0.928   0.971   1.006
 17 A    18 A    19 A    20 A    21 A    22 A    23 A    24 A                  
  1.130   1.237   1.241   1.263   1.291   1.593   1.728   1.744
 25 A    26 A    27 A    28 A    29 A    30 A    31 A    32 A                  
  1.811   1.852   1.854   1.901   1.963   1.972   2.224   2.248
 33 A    34 A    35 A    36 A    37 A    38 A    39 A    40 A                  
  2.356   2.423   2.493   2.623   2.679   2.795   3.099   3.369
 41 A    42 A    43 A    44 A    45 A    46 A    47 A    48 A                  
  Import AO data ...  CPU 0.00 s  wall 0.00 s
  Using point group: C1
  Irreducible representations in point group: A
  Molecular orbitals: 
  Occupied MOs:
  Block   0:   1 (  A) A   2 (  A) A   3 (  A) A   4 (  A) A   5 (  A) A
                  -11.24      -11.24       -1.03     -0.7859      -0.635
               6 (  A) A   7 (  A) A   8 (  A) A
                 -0.5823     -0.4995     -0.3744
  Block   1:   1 (  A) B   2 (  A) B   3 (  A) B   4 (  A) B   5 (  A) B
                  -11.24      -11.24       -1.03     -0.7859      -0.635
               6 (  A) B   7 (  A) B   8 (  A) B
                 -0.5823     -0.4995     -0.3744
  Virtual MOs:
  Block   0:   9 (  A) A  10 (  A) A  11 (  A) A  12 (  A) A  13 (  A) A
                  0.1679      0.2026       0.231      0.2364       0.303
              14 (  A) A  15 (  A) A  16 (  A) A  17 (  A) A  18 (  A) A
                  0.4628      0.5798      0.6089      0.6887      0.7048
              19 (  A) A  20 (  A) A  21 (  A) A  22 (  A) A
                  0.7757      0.8074      0.8584       0.928
  Block   1:  23 (  A) A  24 (  A) A  25 (  A) A  26 (  A) A  27 (  A) A
                  0.9706       1.006        1.13       1.237       1.241
              28 (  A) A  29 (  A) A  30 (  A) A  31 (  A) A  32 (  A) A
                   1.263       1.291       1.593       1.728       1.744
              33 (  A) A  34 (  A) A  35 (  A) A  36 (  A) A
                   1.811       1.852       1.854       1.901
  Block   2:  37 (  A) A  38 (  A) A  39 (  A) A  40 (  A) A  41 (  A) A
                   1.963       1.972       2.224       2.248       2.356
              42 (  A) A  43 (  A) A  44 (  A) A  45 (  A) A  46 (  A) A
                   2.423       2.493       2.623       2.679       2.795
              47 (  A) A  48 (  A) A
                   3.099       3.369
  Block   3:   9 (  A) B  10 (  A) B  11 (  A) B  12 (  A) B  13 (  A) B
                  0.1679      0.2026       0.231      0.2364       0.303
              14 (  A) B  15 (  A) B  16 (  A) B  17 (  A) B  18 (  A) B
                  0.4628      0.5798      0.6089      0.6887      0.7048
              19 (  A) B  20 (  A) B  21 (  A) B  22 (  A) B
                  0.7757      0.8074      0.8584       0.928
  Block   4:  23 (  A) B  24 (  A) B  25 (  A) B  26 (  A) B  27 (  A) B
                  0.9706       1.006        1.13       1.237       1.241
              28 (  A) B  29 (  A) B  30 (  A) B  31 (  A) B  32 (  A) B
                   1.263       1.291       1.593       1.728       1.744
              33 (  A) B  34 (  A) B  35 (  A) B  36 (  A) B
                   1.811       1.852       1.854       1.901
  Block   5:  37 (  A) B  38 (  A) B  39 (  A) B  40 (  A) B  41 (  A) B
                   1.963       1.972       2.224       2.248       2.356
              42 (  A) B  43 (  A) B  44 (  A) B  45 (  A) B  46 (  A) B
                   2.423       2.493       2.623       2.679       2.795
              47 (  A) B  48 (  A) B
                   3.099       3.369
  Import MO data ...  CPU 0.01 s  wall 0.01 s
  Import HF data ...  CPU 0.58 s  wall 0.18 s
  Import 2e integrals ...  CPU 1.18 s  wall 0.22 s

--------------------------------------------------------------------------------
                                   HF Summary                                   
--------------------------------------------------------------------------------
  Energy:                                                  -78.0396456029 a.u.
  Dip. moment [a.u.]:                  [  -0.000474,   -0.000482,   -0.000150]
  Total dipole [Debye]:                                               0.001760
  <r^2> [a.u.]:                        [ 175.989473,   35.343603,   11.680598]
  Total <r^2> [a.u.]:                                               223.013674
--------------------------------------------------------------------------------
  HF properties ...  CPU 0.03 s  wall 0.02 s
  MP(1) calculation ...  CPU 0.01 s  wall 0.01 s
  N^6 prerequesite intermediates ...  CPU 0.70 s  wall 0.12 s
  Difference density matrix of state mp2_gs printed to ASCII file 'State_mp2_gs_Difference.txt'
Exporting MP density matrix to file 'Densmat_MP.txt'.
Export successful
  Total density matrix of state mp2_gs printed to ASCII file 'State_mp2_gs_Total.txt'
Exporting MP density matrix to file 'Densmat_MP.txt'.
Export successful

--------------------------------------------------------------------------------
                                 MP(2) Summary                                  
--------------------------------------------------------------------------------
  MP energy contribution:                                   -0.2804887365 a.u.
  Total energy:                                            -78.3201343394 a.u.
  Dip. moment [a.u.]:                  [  -0.000368,   -0.000371,   -0.000137]
  Total dipole [Debye]:                                               0.001373
  <r^2> [a.u.]:                        [ 176.029614,   35.380150,   11.508179]
  Total <r^2> [a.u.]:                                               222.917943

  Density matrix analysis:
  ------------------------
  NOs
    Occupation of frontier NOs:
       0.0455   1.9380
    Number of electrons: 16.000000
    Number of unpaired electrons: n_u =  0.40725, n_u,nl =  0.04580
    NO participation ratio (PR_NO): 13.896554
  
  
  Mulliken Population Analysis
  Atom      Charge (e)              h+              e-           Del q
  --------------------------------------------------------------------
   1 H        0.055246        0.013898       -0.011309        0.002588
   2 C       -0.109995        0.094599       -0.099794       -0.005195
   3 H        0.054703        0.013916       -0.011309        0.002607
   4 C       -0.109888        0.094589       -0.099787       -0.005197
   5 H        0.055128        0.013895       -0.011312        0.002583
   6 H        0.054806        0.013920       -0.011306        0.002614
  --------------------------------------------------------------------
  Sum:       -0.000000        0.244816       -0.244816        0.000000
  
  Multipole moment analysis of the density matrix
    Molecular charge:                      -0.000000
    Number of electrons:                   16.000000
      Center of electronic charge [Ang]: [ -1.562486,  -0.066368,   0.002130]
    Total nuclear charge:                  16.000000
      Center of nuclear charge [Ang]:    [ -1.562498,  -0.066381,   0.002126]
    Dipole moment [D]:                     0.001373
      Cartesian components [D]:          [ -0.000935,  -0.000944,  -0.000347]
    RMS size of the density [Ang]:         1.206519
      Cartesian components [Ang]:        [  0.799668,   0.784099,   0.448786]
  
  Exciton analysis of the difference density matrix
    <r_h> [Ang]:                  [ -1.562188,  -0.066089,   0.002177]
    <r_e> [Ang]:                  [ -1.562417,  -0.066328,   0.002149]
    |<r_e - r_h>| [Ang]:            0.000332
    Hole size [Ang]:                1.401656
      Cartesian components [Ang]: [  0.852982,   0.840268,   0.728706]
    Electron size [Ang]:            1.361761
      Cartesian components [Ang]: [  0.879078,   0.864767,   0.577749]
--------------------------------------------------------------------------------
  MP(2) calculation ...  CPU 0.45 s  wall 0.24 s
  Start ADC(2)-s ...  CPU 0.02 s  wall 0.01 s
  ADC(2) intermediates ...  CPU 0.04 s  wall 0.01 s
  Starting Davidson for singlet states of irrep A ... 
--------------------------------------------------------------------------------
   It NVec Conv  Avg. Norm  Max. Norm  Conv. states           Remark
--------------------------------------------------------------------------------
        10    0  1.329e-01  4.687e-01  0.4117 n n n n n n n n Guess.
    1   20    0  2.313e-02  1.125e-01  0.3261 n n n n n n n n 
    2   30    0  5.858e-03  2.487e-02  0.3213 n n n n n n n n 
    3   40    0  1.859e-03  1.110e-02  0.3209 n n n n n n n n 
    4   50    0  5.921e-04  4.128e-03  0.3209 n n n n n n n n 
    5   20    0  2.838e-04  2.083e-03  0.3209 n n n n n n n n Subspace collapsed.
    6   30    0  1.448e-04  1.184e-03  0.3209 n n n n n n n n 
    7   40    0  8.978e-05  7.262e-04  0.3209 n n n n n n n n 
    8   50    0  6.007e-05  4.959e-04  0.3209 n n n n n n n n 
    9   20    1  3.758e-05  3.206e-04  0.3209 n y n n n n n n Subspace collapsed.
   10   30    5  3.832e-05  3.325e-04  0.3209 n y y y y y n n 
   11   40    5  3.731e-05  3.631e-04  0.3209 n y y y y y n n 
   12   50    6  2.980e-05  2.959e-04  0.3209 y y y y y y n n 
   13   20    6  1.346e-05  1.333e-04  0.3209 y y y y y y n n Subspace collapsed.
   14   30    6  8.362e-06  8.268e-05  0.3209 y y y y y y n n 
   15   40    6  4.810e-06  4.720e-05  0.3209 y y y y y y n n 
   16   50    6  4.986e-06  4.968e-05  0.3209 y y y y y y n n 
   17   20    7  3.079e-06  3.071e-05  0.3209 y y y y y y n y Subspace collapsed.
   18   30    7  4.927e-06  4.920e-05  0.3209 y y y y y y n y 
   19   40    8  6.154e-06  6.150e-05  0.3209 y y y y y y y y 
   20   50    8  4.783e-06  4.781e-05  0.3209 y y y y y y y y 
   21   20    9  2.098e-06  2.097e-05  0.3209 y y y y y y y y Subspace collapsed.
   22   30    9  1.160e-06  1.159e-05  0.3209 y y y y y y y y 
   23   32    9  1.068e-06  1.067e-05  0.3209 y y y y y y y y 
   24   34    9  1.092e-06  1.091e-05  0.3209 y y y y y y y y 
   25   36    9  1.087e-06  1.086e-05  0.3209 y y y y y y y y 
   26   36    9  1.087e-06  1.086e-05  0.3209 y y y y y y y y 
   27   46    9  5.135e-07  5.134e-06  0.3209 y y y y y y y y 
   28   50    9  7.404e-07  7.402e-06  0.3209 y y y y y y y y 
   29   16    9  4.976e-07  4.975e-06  0.3209 y y y y y y y y Subspace collapsed.
   30   21    9  7.516e-07  7.515e-06  0.3209 y y y y y y y y 
   31   26    9  8.640e-07  8.639e-06  0.3209 y y y y y y y y 
   32   31    9  6.502e-07  6.501e-06  0.3209 y y y y y y y y 
   33   35    9  3.342e-07  3.341e-06  0.3209 y y y y y y y y 
   34   39    9  1.328e-07  1.328e-06  0.3209 y y y y y y y y 
   35   43   10  6.892e-08  6.891e-07  0.3209 y y y y y y y y Converged.
--------------------------------------------------------------------------------
  Davidson Summary: 
 ------------------------------------------------------------
  State  0: excitation energy =   0.3209 a.u.   (converged)
  State  1: excitation energy =   0.3290 a.u.   (converged)
  State  2: excitation energy =   0.3359 a.u.   (converged)
  State  3: excitation energy =   0.3579 a.u.   (converged)
  State  4: excitation energy =   0.3733 a.u.   (converged)
  State  5: excitation energy =   0.3866 a.u.   (converged)
  State  6: excitation energy =   0.4202 a.u.   (converged)
  State  7: excitation energy =   0.4435 a.u.   (converged)
  State  8: excitation energy =   0.4537 a.u.   (converged)
  State  9: excitation energy =   0.4585 a.u.   (converged)
 ------------------------------------------------------------

  Singlet states of irrep A ...  CPU 219.75 s  wall 69.90 s
  TDMs ...  CPU 2.55 s  wall 0.91 s
  SDMs ...  CPU 4.64 s  wall 1.55 s
  Starting TPA DIIS iterations ... 
------------------------------------ 
   It     Res. Norm  Remark
------------------------------------
                       Guess.
    1     4.387e+00  
    2     5.822e+00  
    3     1.086e+00  
    4     2.640e-01  
    5     6.573e-02  
    6     2.785e-02  
    7     8.483e-03  
    8     1.559e-03  
    9     5.851e-04  
   10     9.807e-05  
   11     3.171e-05  
   12     4.898e-06  
   13     1.653e-06  
   14     4.808e-07  Converged.
   ... Converged in 14 steps (norm: 4.80799e-07)
------------------------------------
  Starting TPA DIIS iterations ... 
------------------------------------ 
   It     Res. Norm  Remark
------------------------------------
                       Guess.
    1     4.198e+00  
    2     5.558e+00  
    3     1.037e+00  
    4     2.608e-01  
    5     6.543e-02  
    6     2.770e-02  
    7     8.329e-03  
    8     1.563e-03  
    9     5.896e-04  
   10     9.699e-05  
   11     3.168e-05  
   12     4.834e-06  
   13     1.665e-06  
   14     4.744e-07  Converged.
   ... Converged in 14 steps (norm: 4.74433e-07)
------------------------------------
  Starting TPA DIIS iterations ... 
------------------------------------ 
   It     Res. Norm  Remark
------------------------------------
                       Guess.
    1     6.855e-01  
    2     4.794e-01  
    3     1.686e-01  
    4     6.328e-02  
    5     1.874e-02  
    6     6.694e-03  
    7     1.075e-03  
    8     4.584e-04  
    9     1.275e-04  
   10     2.995e-05  
   11     6.021e-06  
   12     1.934e-06  
   13     1.199e-06  
   14     4.715e-07  Converged.
   ... Converged in 14 steps (norm: 4.71542e-07)
------------------------------------
  Starting TPA DIIS iterations ... 
------------------------------------ 
   It     Res. Norm  Remark
------------------------------------
                       Guess.
    1     4.583e+00  
    2     6.172e+00  
    3     1.141e+00  
    4     2.840e-01  
    5     7.140e-02  
    6     3.046e-02  
    7     9.265e-03  
    8     1.702e-03  
    9     6.418e-04  
   10     1.080e-04  
   11     3.516e-05  
   12     5.463e-06  
   13     1.853e-06  
   14     5.376e-07  Converged.
   ... Converged in 14 steps (norm: 5.37585e-07)
------------------------------------
  Starting TPA DIIS iterations ... 
------------------------------------ 
   It     Res. Norm  Remark
------------------------------------
                       Guess.
    1     4.384e+00  
    2     5.893e+00  
    3     1.090e+00  
    4     2.804e-01  
    5     7.109e-02  
    6     3.030e-02  
    7     9.097e-03  
    8     1.707e-03  
    9     6.469e-04  
   10     1.068e-04  
   11     3.511e-05  
   12     5.390e-06  
   13     1.867e-06  
   14     5.303e-07  Converged.
   ... Converged in 14 steps (norm: 5.30343e-07)
------------------------------------
  Starting TPA DIIS iterations ... 
------------------------------------ 
   It     Res. Norm  Remark
------------------------------------
                       Guess.
    1     6.938e-01  
    2     4.912e-01  
    3     1.753e-01  
    4     6.894e-02  
    5     1.972e-02  
    6     7.114e-03  
    7     1.167e-03  
    8     5.136e-04  
    9     1.452e-04  
   10     3.302e-05  
   11     6.615e-06  
   12     2.171e-06  
   13     1.402e-06  
   14     5.510e-07  Converged.
   ... Converged in 14 steps (norm: 5.51012e-07)
------------------------------------
  Starting TPA DIIS iterations ... 
------------------------------------ 
   It     Res. Norm  Remark
------------------------------------
                       Guess.
    1     4.762e+00  
    2     6.498e+00  
    3     1.192e+00  
    4     3.029e-01  
    5     7.676e-02  
    6     3.294e-02  
    7     1.001e-02  
    8     1.837e-03  
    9     6.956e-04  
   10     1.175e-04  
   11     3.847e-05  
   12     6.006e-06  
   13     2.047e-06  
   14     5.922e-07  Converged.
   ... Converged in 14 steps (norm: 5.9224e-07)
------------------------------------
  Starting TPA DIIS iterations ... 
------------------------------------ 
   It     Res. Norm  Remark
------------------------------------
                       Guess.
    1     4.555e+00  
    2     6.203e+00  
    3     1.139e+00  
    4     2.990e-01  
    5     7.643e-02  
    6     3.278e-02  
    7     9.825e-03  
    8     1.843e-03  
    9     7.014e-04  
   10     1.162e-04  
   11     3.840e-05  
   12     5.924e-06  
   13     2.064e-06  
   14     5.842e-07  Converged.
   ... Converged in 14 steps (norm: 5.84162e-07)
------------------------------------
  Starting TPA DIIS iterations ... 
------------------------------------ 
   It     Res. Norm  Remark
------------------------------------
                       Guess.
    1     7.011e-01  
    2     5.017e-01  
    3     1.813e-01  
    4     7.436e-02  
    5     2.060e-02  
    6     7.509e-03  
    7     1.256e-03  
    8     5.676e-04  
    9     1.624e-04  
   10     3.552e-05  
   11     7.181e-06  
   12     2.403e-06  
   13     1.608e-06  
   14     6.323e-07  Converged.
   ... Converged in 14 steps (norm: 6.32335e-07)
------------------------------------
  Starting TPA DIIS iterations ... 
------------------------------------ 
   It     Res. Norm  Remark
------------------------------------
                       Guess.
    1     5.411e+00  
    2     7.705e+00  
    3     1.376e+00  
    4     3.753e-01  
    5     9.729e-02  
    6     4.253e-02  
    7     1.284e-02  
    8     2.352e-03  
    9     9.039e-04  
   10     1.541e-04  
   11     5.151e-05  
   12     8.152e-06  
   13     2.828e-06  
   14     8.096e-07  Converged.
   ... Converged in 14 steps (norm: 8.09623e-07)
------------------------------------
  Starting TPA DIIS iterations ... 
------------------------------------ 
   It     Res. Norm  Remark
------------------------------------
                       Guess.
    1     5.174e+00  
    2     7.355e+00  
    3     1.314e+00  
    4     3.697e-01  
    5     9.689e-02  
    6     4.236e-02  
    7     1.261e-02  
    8     2.363e-03  
    9     9.122e-04  
   10     1.525e-04  
   11     5.137e-05  
   12     8.033e-06  
   13     2.855e-06  
   14     7.984e-07  Converged.
   ... Converged in 14 steps (norm: 7.98354e-07)
------------------------------------
  Starting TPA DIIS iterations ... 
------------------------------------ 
   It     Res. Norm  Remark
------------------------------------
                       Guess.
    1     7.252e-01  
    2     5.380e-01  
    3     2.026e-01  
    4     9.568e-02  
    5     2.378e-02  
    6     9.023e-03  
    7     1.608e-03  
    8     7.843e-04  
    9     2.306e-04  
   10     4.166e-05  
   11     9.400e-06  
   12     3.341e-06  
   13     2.504e-06  
   14     9.962e-07  Converged.
   ... Converged in 14 steps (norm: 9.96188e-07)
------------------------------------
  Starting TPA DIIS iterations ... 
------------------------------------ 
   It     Res. Norm  Remark
------------------------------------
                       Guess.
    1     5.960e+00  
    2     8.761e+00  
    3     1.531e+00  
    4     4.411e-01  
    5     1.159e-01  
    6     5.137e-02  
    7     1.543e-02  
    8     2.819e-03  
    9     1.095e-03  
   10     1.879e-04  
   11     6.375e-05  
   12     1.017e-05  
   13     3.578e-06  
   14     1.018e-06  
   15     3.332e-07  Converged.
   ... Converged in 15 steps (norm: 3.33238e-07)
------------------------------------
  Starting TPA DIIS iterations ... 
------------------------------------ 
   It     Res. Norm  Remark
------------------------------------
                       Guess.
    1     5.697e+00  
    2     8.362e+00  
    3     1.461e+00  
    4     4.339e-01  
    5     1.155e-01  
    6     5.119e-02  
    7     1.515e-02  
    8     2.836e-03  
    9     1.106e-03  
   10     1.859e-04  
   11     6.352e-05  
   12     1.001e-05  
   13     3.616e-06  
   14     1.004e-06  
   15     3.302e-07  Converged.
   ... Converged in 15 steps (norm: 3.30161e-07)
------------------------------------
  Starting TPA DIIS iterations ... 
------------------------------------ 
   It     Res. Norm  Remark
------------------------------------
                       Guess.
    1     7.432e-01  
    2     5.666e-01  
    3     2.199e-01  
    4     1.156e-01  
    5     2.650e-02  
    6     1.040e-02  
    7     1.945e-03  
    8     9.821e-04  
    9     2.912e-04  
   10     4.409e-05  
   11     1.152e-05  
   12     4.249e-06  
   13     3.445e-06  
   14     1.393e-06  
   15     5.144e-07  Converged.
   ... Converged in 15 steps (norm: 5.14407e-07)
------------------------------------
  Starting TPA DIIS iterations ... 
------------------------------------ 
   It     Res. Norm  Remark
------------------------------------
                       Guess.
    1     6.510e+00  
    2     9.849e+00  
    3     1.684e+00  
    4     5.110e-01  
    5     1.357e-01  
    6     6.085e-02  
    7     1.817e-02  
    8     3.314e-03  
    9     1.300e-03  
   10     2.241e-04  
   11     7.697e-05  
   12     1.235e-05  
   13     4.400e-06  
   14     1.251e-06  
   15     4.134e-07  Converged.
   ... Converged in 15 steps (norm: 4.13395e-07)
------------------------------------
  Starting TPA DIIS iterations ... 
------------------------------------ 
   It     Res. Norm  Remark
------------------------------------
                       Guess.
    1     6.222e+00  
    2     9.400e+00  
    3     1.607e+00  
    4     5.020e-01  
    5     1.352e-01  
    6     6.066e-02  
    7     1.785e-02  
    8     3.337e-03  
    9     1.314e-03  
   10     2.217e-04  
   11     7.663e-05  
   12     1.215e-05  
   13     4.450e-06  
   14     1.234e-06  
   15     4.085e-07  Converged.
   ... Converged in 15 steps (norm: 4.08461e-07)
------------------------------------
  Starting TPA DIIS iterations ... 
------------------------------------ 
   It     Res. Norm  Remark
------------------------------------
                       Guess.
    1     7.594e-01  
    2     5.937e-01  
    3     2.368e-01  
    4     1.371e-01  
    5     2.930e-02  
    6     1.187e-02  
    7     2.319e-03  
    8     1.180e-03  
    9     3.516e-04  
   10     4.554e-05  
   11     1.390e-05  
   12     5.252e-06  
   13     4.543e-06  
   14     1.877e-06  
   15     7.073e-07  Converged.
   ... Converged in 15 steps (norm: 7.07272e-07)
------------------------------------
  Starting TPA DIIS iterations ... 
------------------------------------ 
   It     Res. Norm  Remark
------------------------------------
                       Guess.
    1     8.326e+00  
    2     1.363e+01  
    3     2.184e+00  
    4     7.651e-01  
    5     2.077e-01  
    6     9.605e-02  
    7     2.817e-02  
    8     5.110e-03  
    9     2.058e-03  
   10     3.578e-04  
   11     1.253e-04  
   12     2.044e-05  
   13     7.425e-06  
   14     2.199e-06  
   15     7.217e-07  Converged.
   ... Converged in 15 steps (norm: 7.21687e-07)
------------------------------------
  Starting TPA DIIS iterations ... 
------------------------------------ 
   It     Res. Norm  Remark
------------------------------------
                       Guess.
    1     7.954e+00  
    2     1.301e+01  
    3     2.083e+00  
    4     7.487e-01  
    5     2.070e-01  
    6     9.589e-02  
    7     2.768e-02  
    8     5.158e-03  
    9     2.081e-03  
   10     3.540e-04  
   11     1.247e-04  
   12     2.010e-05  
   13     7.524e-06  
   14     2.169e-06  
   15     7.044e-07  Converged.
   ... Converged in 15 steps (norm: 7.04418e-07)
------------------------------------
  Starting TPA DIIS iterations ... 
------------------------------------ 
   It     Res. Norm  Remark
------------------------------------
                       Guess.
    1     8.039e-01  
    2     6.748e-01  
    3     2.896e-01  
    4     2.151e-01  
    5     3.917e-02  
    6     1.722e-02  
    7     3.781e-03  
    8     1.718e-03  
    9     5.374e-04  
   10     5.530e-05  
   11     2.359e-05  
   12     9.095e-06  
   13     8.987e-06  
   14     4.092e-06  
   15     1.865e-06  
   16     9.459e-07  Converged.
   ... Converged in 16 steps (norm: 9.4591e-07)
------------------------------------
  Starting TPA DIIS iterations ... 
------------------------------------ 
   It     Res. Norm  Remark
------------------------------------
                       Guess.
    1     1.012e+01  
    2     1.763e+01  
    3     2.666e+00  
    4     1.044e+00  
    5     2.874e-01  
    6     1.360e-01  
    7     3.925e-02  
    8     7.088e-03  
    9     2.912e-03  
   10     5.074e-04  
   11     1.770e-04  
   12     2.970e-05  
   13     1.065e-05  
   14     3.406e-06  
   15     1.136e-06  
   16     2.592e-07  Converged.
   ... Converged in 16 steps (norm: 2.59157e-07)
------------------------------------
  Starting TPA DIIS iterations ... 
------------------------------------ 
   It     Res. Norm  Remark
------------------------------------
                       Guess.
    1     9.666e+00  
    2     1.682e+01  
    3     2.542e+00  
    4     1.018e+00  
    5     2.864e-01  
    6     1.359e-01  
    7     3.856e-02  
    8     7.167e-03  
    9     2.946e-03  
   10     5.020e-04  
   11     1.762e-04  
   12     2.916e-05  
   13     1.082e-05  
   14     3.351e-06  
   15     1.093e-06  
   16     2.395e-07  Converged.
   ... Converged in 16 steps (norm: 2.39472e-07)
------------------------------------
  Starting TPA DIIS iterations ... 
------------------------------------ 
   It     Res. Norm  Remark
------------------------------------
                       Guess.
    1     8.384e-01  
    2     7.456e-01  
    3     3.380e-01  
    4     2.953e-01  
    5     4.970e-02  
    6     2.291e-02  
    7     5.488e-03  
    8     2.014e-03  
    9     7.021e-04  
   10     7.593e-05  
   11     3.581e-05  
   12     1.360e-05  
   13     1.399e-05  
   14     7.166e-06  
   15     3.860e-06  
   16     1.820e-06  
   17     8.655e-07  Converged.
   ... Converged in 17 steps (norm: 8.65514e-07)
------------------------------------
  Starting TPA DIIS iterations ... 
------------------------------------ 
   It     Res. Norm  Remark
------------------------------------
                       Guess.
    1     1.111e+01  
    2     1.993e+01  
    3     2.926e+00  
    4     1.206e+00  
    5     3.344e-01  
    6     1.598e-01  
    7     4.579e-02  
    8     8.252e-03  
    9     3.420e-03  
   10     5.959e-04  
   11     2.063e-04  
   12     3.540e-05  
   13     1.257e-05  
   14     4.173e-06  
   15     1.459e-06  
   16     3.308e-07  Converged.
   ... Converged in 16 steps (norm: 3.30755e-07)
------------------------------------
  Starting TPA DIIS iterations ... 
------------------------------------ 
   It     Res. Norm  Remark
------------------------------------
                       Guess.
    1     1.061e+01  
    2     1.902e+01  
    3     2.790e+00  
    4     1.175e+00  
    5     3.333e-01  
    6     1.598e-01  
    7     4.499e-02  
    8     8.350e-03  
    9     3.462e-03  
   10     5.895e-04  
   11     2.057e-04  
   12     3.472e-05  
   13     1.276e-05  
   14     4.097e-06  
   15     1.396e-06  
   16     2.994e-07  Converged.
   ... Converged in 16 steps (norm: 2.99391e-07)
------------------------------------
  Starting TPA DIIS iterations ... 
------------------------------------ 
   It     Res. Norm  Remark
------------------------------------
                       Guess.
    1     8.548e-01  
    2     7.818e-01  
    3     3.635e-01  
    4     3.377e-01  
    5     5.575e-02  
    6     2.607e-02  
    7     6.502e-03  
    8     2.101e-03  
    9     7.876e-04  
   10     8.974e-05  
   11     4.356e-05  
   12     1.647e-05  
   13     1.687e-05  
   14     9.175e-06  
   15     5.283e-06  
   16     2.455e-06  
   17     1.258e-06  
   18     3.788e-07  Converged.
   ... Converged in 18 steps (norm: 3.78774e-07)
------------------------------------
  Starting TPA DIIS iterations ... 
------------------------------------ 
   It     Res. Norm  Remark
------------------------------------
                       Guess.
    1     1.162e+01  
    2     2.116e+01  
    3     3.061e+00  
    4     1.293e+00  
    5     3.596e-01  
    6     1.727e-01  
    7     4.930e-02  
    8     8.876e-03  
    9     3.695e-03  
   10     6.435e-04  
   11     2.218e-04  
   12     3.854e-05  
   13     1.364e-05  
   14     4.598e-06  
   15     1.662e-06  
   16     3.726e-07  Converged.
   ... Converged in 16 steps (norm: 3.72618e-07)
------------------------------------
  Starting TPA DIIS iterations ... 
------------------------------------ 
   It     Res. Norm  Remark
------------------------------------
                       Guess.
    1     1.110e+01  
    2     2.019e+01  
    3     2.917e+00  
    4     1.259e+00  
    5     3.584e-01  
    6     1.727e-01  
    7     4.843e-02  
    8     8.985e-03  
    9     3.740e-03  
   10     6.366e-04  
   11     2.212e-04  
   12     3.777e-05  
   13     1.384e-05  
   14     4.510e-06  
   15     1.586e-06  
   16     3.324e-07  Converged.
   ... Converged in 16 steps (norm: 3.32436e-07)
------------------------------------
  Starting TPA DIIS iterations ... 
------------------------------------ 
   It     Res. Norm  Remark
------------------------------------
                       Guess.
    1     8.627e-01  
    2     8.000e-01  
    3     3.764e-01  
    4     3.588e-01  
    5     5.894e-02  
    6     2.769e-02  
    7     7.043e-03  
    8     2.134e-03  
    9     8.311e-04  
   10     9.725e-05  
   11     4.786e-05  
   12     1.810e-05  
   13     1.843e-05  
   14     1.029e-05  
   15     6.106e-06  
   16     2.825e-06  
   17     1.484e-06  
   18     4.245e-07  Converged.
   ... Converged in 18 steps (norm: 4.24536e-07)
------------------------------------
  Two-photon absorbption ...  CPU 163.05 s  wall 45.13 s
  Transition density matrix of state singlet_A_1 printed to ASCII file 'State_singlet_A_1_Transition.txt'
  Transition density matrix of state singlet_A_2 printed to ASCII file 'State_singlet_A_2_Transition.txt'
  Transition density matrix of state singlet_A_3 printed to ASCII file 'State_singlet_A_3_Transition.txt'
  Transition density matrix of state singlet_A_4 printed to ASCII file 'State_singlet_A_4_Transition.txt'
  Transition density matrix of state singlet_A_5 printed to ASCII file 'State_singlet_A_5_Transition.txt'
  Transition density matrix of state singlet_A_6 printed to ASCII file 'State_singlet_A_6_Transition.txt'
  Transition density matrix of state singlet_A_7 printed to ASCII file 'State_singlet_A_7_Transition.txt'
  Transition density matrix of state singlet_A_8 printed to ASCII file 'State_singlet_A_8_Transition.txt'
  Transition density matrix of state singlet_A_9 printed to ASCII file 'State_singlet_A_9_Transition.txt'
  Transition density matrix of state singlet_A_10 printed to ASCII file 'State_singlet_A_10_Transition.txt'
  Transition properties ...  CPU 0.36 s  wall 0.71 s
  Difference density matrix of state singlet_A_1 printed to ASCII file 'State_singlet_A_1_Difference.txt'
  Total density matrix of state singlet_A_1 printed to ASCII file 'State_singlet_A_1_Total.txt'
  Difference density matrix of state singlet_A_2 printed to ASCII file 'State_singlet_A_2_Difference.txt'
  Total density matrix of state singlet_A_2 printed to ASCII file 'State_singlet_A_2_Total.txt'
  Difference density matrix of state singlet_A_3 printed to ASCII file 'State_singlet_A_3_Difference.txt'
  Total density matrix of state singlet_A_3 printed to ASCII file 'State_singlet_A_3_Total.txt'
  Difference density matrix of state singlet_A_4 printed to ASCII file 'State_singlet_A_4_Difference.txt'
  Total density matrix of state singlet_A_4 printed to ASCII file 'State_singlet_A_4_Total.txt'
  Difference density matrix of state singlet_A_5 printed to ASCII file 'State_singlet_A_5_Difference.txt'
  Total density matrix of state singlet_A_5 printed to ASCII file 'State_singlet_A_5_Total.txt'
  Difference density matrix of state singlet_A_6 printed to ASCII file 'State_singlet_A_6_Difference.txt'
  Total density matrix of state singlet_A_6 printed to ASCII file 'State_singlet_A_6_Total.txt'
  Difference density matrix of state singlet_A_7 printed to ASCII file 'State_singlet_A_7_Difference.txt'
  Total density matrix of state singlet_A_7 printed to ASCII file 'State_singlet_A_7_Total.txt'
  Difference density matrix of state singlet_A_8 printed to ASCII file 'State_singlet_A_8_Difference.txt'
  Total density matrix of state singlet_A_8 printed to ASCII file 'State_singlet_A_8_Total.txt'
  Difference density matrix of state singlet_A_9 printed to ASCII file 'State_singlet_A_9_Difference.txt'
  Total density matrix of state singlet_A_9 printed to ASCII file 'State_singlet_A_9_Total.txt'
  Difference density matrix of state singlet_A_10 printed to ASCII file 'State_singlet_A_10_Difference.txt'
  Total density matrix of state singlet_A_10 printed to ASCII file 'State_singlet_A_10_Total.txt'
  Properties ...  CPU 0.65 s  wall 1.16 s
  ISR TDMS ...  CPU 29.42 s  wall 9.33 s
  ISR transition properties ...  CPU 0.63 s  wall 0.29 s
  Sum-over-states TPA ...  CPU 0.00 s  wall 0.00 s

--------------------------------------------------------------------------------
                   State-averaged natural transition orbitals
--------------------------------------------------------------------------------
--------------------------------------------------------------------------------
  SA-NTO decomposition ...  CPU 0.01 s  wall 0.04 s

--------------------------------------------------------------------------------
                             Excited State Summary
--------------------------------------------------------------------------------
--------------------------------------------------------------------------------

  Excited state 1 (singlet, A)                                     [converged]
  ----------------------------------------------------------------------------
  Term symbol:  2 (1) A                                     R^2 =  1.37487e-13

  Total energy:                                            -77.9992469036 a.u.
  Excitation energy:                                               8.731791 eV

  Osc. strength:                                                      0.446208
  Trans. dip. moment [a.u.]:           [  -1.046128,    0.995660,    0.009624]
  <i|r^2|0> [a.u.]:                    [  -6.175545,    0.247684,   -0.000156]
  Two-photon absorption cross-section (SoS) [a.u.]:                   0.000089
  Two-photon absorption matrix (SoS) [a.u.]:
                                       |    0.003520    0.000389    0.000045 |
                                       |    0.000389   -0.003078   -0.000127 |
                                       |    0.000045   -0.000127   -0.000104 |
  Two-photon absorption cross-section [a.u.]:                         0.000130
  Two-photon absorption matrix [a.u.]:
                                       |    0.003939    0.000282    0.000259 |
                                       |    0.000282   -0.004079    0.000174 |
                                       |    0.000259    0.000174   -0.000089 |

  Dip. moment [a.u.]:                  [  -0.000283,   -0.000279,   -0.000148]
  Total dipole [Debye]:                                               0.001077
  <r^2> [a.u.]:                        [ 176.773829,   36.069411,   11.919147]
  Total <r^2> [a.u.]:                                               224.762387

  V1^2 = 0.9713, V2^2 = 0.0287

  Important amplitudes:
      occ i     occ j     vir a      vir b          v   
    -----------------------------------------------------
     8 (A) A              9 (A) A                 0.6809
     6 (A) A             14 (A) A                -0.0617
     4 (A) A             10 (A) A                 0.0614
     7 (A) A             16 (A) A                 0.0575
     5 (A) A             13 (A) A                -0.0527
     6 (A) A             23 (A) A                -0.0485
     8 (A) A             20 (A) A                -0.0348
     6 (A) A             19 (A) A                -0.0302
     3 (A) A             12 (A) A                 0.0285
     5 (A) A             22 (A) A                 0.0218
     4 (A) A             24 (A) A                 0.0188
     3 (A) A             26 (A) A                 0.0186
     7 (A) A             11 (A) A                -0.0186
     8 (A) A   8 (A) B   17 (A) A   20 (A) B      0.0184
     8 (A) A   8 (A) B    9 (A) A   28 (A) B      0.0168
     6 (A) A             26 (A) A                -0.0163
     7 (A) A             21 (A) A                 0.0152
     3 (A) A             14 (A) A                 0.0143
     6 (A) A             12 (A) A                 0.0136
     3 (A) A   4 (A) B    9 (A) A    9 (A) B     -0.0129
     3 (A) A             19 (A) A                 0.0121
     8 (A) A   8 (A) B   18 (A) A   19 (A) B     -0.0111
     7 (A) A             32 (A) A                 0.0097
     7 (A) A             36 (A) A                -0.0086
     3 (A) A             23 (A) A                 0.0082
     8 (A) A   8 (A) B   25 (A) A   29 (A) B      0.0076
     6 (A) A             35 (A) A                 0.0072
     6 (A) A             40 (A) A                 0.0067
     3 (A) A   6 (A) B    9 (A) A   28 (A) B     -0.0065
     5 (A) A   8 (A) B   11 (A) A    9 (A) B     -0.0062
     7 (A) A   8 (A) B   13 (A) A   20 (A) B     -0.0060
     5 (A) A   8 (A) B   11 (A) A   20 (A) B     -0.0060
     5 (A) A   7 (A) B    9 (A) A    9 (A) B     -0.0060
     6 (A) A   8 (A) A   19 (A) A   28 (A) A      0.0060
     5 (A) A             27 (A) A                -0.0060
     5 (A) A   8 (A) B   16 (A) A    9 (A) B     -0.0059
     3 (A) A   5 (A) B    9 (A) A   25 (A) B     -0.0058
     7 (A) A   8 (A) B   22 (A) A   20 (A) B      0.0057
     3 (A) A             40 (A) A                -0.0056
     8 (A) A   8 (A) B   19 (A) A   30 (A) B     -0.0056
    -----------------------------------------------------

  Density matrix analysis:
  ------------------------
  NOs
    Occupation of frontier NOs:
       0.9491   1.0219
    Number of electrons: 16.000000
    Number of unpaired electrons: n_u =  2.31678, n_u,nl =  2.03329
    NO participation ratio (PR_NO):  2.874069
  
  
  Mulliken Population Analysis
  Atom      Charge (e)              h+              e-           Del q
  --------------------------------------------------------------------
   1 H        0.063259        0.020440       -0.012426        0.008014
   2 C       -0.126038        0.490664       -0.506707       -0.016043
   3 H        0.062730        0.020437       -0.012410        0.008027
   4 C       -0.125923        0.490666       -0.506701       -0.016035
   5 H        0.063182        0.020460       -0.012405        0.008055
   6 H        0.062789        0.020416       -0.012432        0.007983
  --------------------------------------------------------------------
  Sum:       -0.000000        1.063082       -1.063082       -0.000000
  
  Multipole moment analysis of the density matrix
    Molecular charge:                      -0.000000
    Number of electrons:                   16.000000
      Center of electronic charge [Ang]: [ -1.562489,  -0.066371,   0.002131]
    Total nuclear charge:                  16.000000
      Center of nuclear charge [Ang]:    [ -1.562498,  -0.066381,   0.002126]
    Dipole moment [D]:                     0.001077
      Cartesian components [D]:          [ -0.000718,  -0.000708,  -0.000377]
    RMS size of the density [Ang]:         1.219820
      Cartesian components [Ang]:        [  0.807765,   0.791754,   0.456729]
  
  Exciton analysis of the difference density matrix
    <r_h> [Ang]:                  [ -1.562646,  -0.066521,   0.002161]
    <r_e> [Ang]:                  [ -1.562689,  -0.066568,   0.002167]
    |<r_e - r_h>| [Ang]:            0.000063
    Hole size [Ang]:                1.287297
      Cartesian components [Ang]: [  0.729684,   0.715305,   0.782964]
    Electron size [Ang]:            1.463845
      Cartesian components [Ang]: [  0.853429,   0.832595,   0.849286]

  Transition density matrix analysis:
  -----------------------------------
  
  CT numbers (Mulliken)
    omega =     0.9532
    <Phe> =    -0.1603
  
  Exciton analysis of the transition density matrix
    Trans. dipole moment [D]:             1.835440
      Cartesian components [D]:         [ -1.329496,   1.265358,   0.012231]
    <r_h> [Ang]:                        [ -1.562704,  -0.066572,   0.002146]
    <r_e> [Ang]:                        [ -1.562670,  -0.066550,   0.002177]
    |<r_e - r_h>| [Ang]:                  0.000051
    Hole size [Ang]:                      1.214403
      Cartesian components [Ang]:       [  0.649459,   0.637538,   0.804067]
    Electron size [Ang]:                  1.486740
      Cartesian components [Ang]:       [  0.863849,   0.841516,   0.869488]
    RMS electron-hole separation [Ang]:   1.937164
      Cartesian components [Ang]:       [  1.105534,   1.077557,   1.170159]
    Covariance(r_h, r_e) [Ang^2]:        -0.033717
    Correlation coefficient:             -0.018675
    Center-of-mass size [Ang]:            0.951017
      Cartesian components [Ang]:       [  0.527697,   0.516740,   0.599124]

  Decomposition into state-averaged NTOs
    H- 0 -> L+ 0:  0.6697 ( 89.7%)
    H- 2 -> L+ 5:  0.0830 (  1.4%)
                   omega =  95.3%
  ----------------------------------------------------------------------------


  Excited state 2 (singlet, A)                                     [converged]
  ----------------------------------------------------------------------------
  Term symbol:  3 (1) A                                     R^2 =  1.16155e-13

  Total energy:                                            -77.9911433712 a.u.
  Excitation energy:                                               8.952300 eV

  Osc. strength:                                                      0.000006
  Trans. dip. moment [a.u.]:           [   0.000255,   -0.000872,    0.004985]
  <i|r^2|0> [a.u.]:                    [   0.068724,    0.085419,   -0.152895]
  Two-photon absorption cross-section (SoS) [a.u.]:                   4.566726
  Two-photon absorption matrix (SoS) [a.u.]:
                                       |    0.050913    0.057593   -0.518634 |
                                       |    0.057593    0.064746   -0.537095 |
                                       |   -0.518634   -0.537095   -0.115585 |
  Two-photon absorption cross-section [a.u.]:                         0.173297
  Two-photon absorption matrix [a.u.]:
                                       |   -0.008498   -0.011193    0.108121 |
                                       |   -0.011193   -0.013784    0.097296 |
                                       |    0.108121    0.097296    0.022319 |

  Dip. moment [a.u.]:                  [  -0.003881,   -0.004667,   -0.000688]
  Total dipole [Debye]:                                               0.015525
  <r^2> [a.u.]:                        [ 175.060893,   34.445034,   13.214626]
  Total <r^2> [a.u.]:                                               222.720552

  V1^2 = 0.9541, V2^2 = 0.0459

  Important amplitudes:
      occ i     occ j     vir a      vir b          v   
    -----------------------------------------------------
     7 (A) A              9 (A) A                -0.6685
     8 (A) A             11 (A) A                 0.1513
     7 (A) A             20 (A) A                 0.0756
     5 (A) A   8 (A) B    9 (A) A    9 (A) B      0.0315
     8 (A) A             16 (A) A                 0.0281
     8 (A) A             21 (A) A                -0.0178
     5 (A) A             28 (A) A                -0.0150
     4 (A) A   7 (A) B    9 (A) A   19 (A) B      0.0136
     5 (A) A   7 (A) B    9 (A) A   16 (A) B     -0.0134
     7 (A) A   8 (A) B   20 (A) A   17 (A) B     -0.0106
     7 (A) A   8 (A) A    9 (A) A   28 (A) A      0.0098
     8 (A) A             10 (A) A                -0.0095
     5 (A) A   8 (A) B    9 (A) A   20 (A) B     -0.0094
     4 (A) A   6 (A) B    9 (A) A   16 (A) B     -0.0091
     5 (A) A   6 (A) A    9 (A) A   23 (A) A      0.0090
     5 (A) A   6 (A) A    9 (A) A   14 (A) A      0.0089
     5 (A) A   6 (A) B    9 (A) A   19 (A) B      0.0086
     8 (A) A   7 (A) B    9 (A) A   28 (A) B     -0.0085
     6 (A) A   7 (A) B    9 (A) A   18 (A) B     -0.0085
     4 (A) A   5 (A) A    9 (A) A   10 (A) A      0.0085
     5 (A) A   6 (A) B    9 (A) A   23 (A) B      0.0080
     3 (A) A   7 (A) B    9 (A) A   18 (A) B     -0.0080
     5 (A) A   7 (A) A    9 (A) A   16 (A) A     -0.0078
     4 (A) A   8 (A) B    9 (A) A   25 (A) B      0.0076
     4 (A) A   7 (A) B   19 (A) A    9 (A) B      0.0075
     7 (A) A   8 (A) B   17 (A) A   20 (A) B     -0.0074
     5 (A) A   5 (A) B    9 (A) A   13 (A) B      0.0073
     7 (A) A   8 (A) B   19 (A) A   18 (A) B      0.0071
     4 (A) A   5 (A) B    9 (A) A   18 (A) B     -0.0069
     5 (A) A   8 (A) A    9 (A) A   20 (A) A     -0.0068
     7 (A) A   7 (A) B   20 (A) A   22 (A) B     -0.0066
     7 (A) A   8 (A) B   17 (A) A    9 (A) B      0.0065
     5 (A) A   6 (A) B    9 (A) A   14 (A) B      0.0063
     5 (A) A   7 (A) B   11 (A) A   20 (A) B      0.0062
     4 (A) A   5 (A) B   10 (A) A    9 (A) B     -0.0061
     4 (A) A   7 (A) A    9 (A) A   19 (A) A      0.0061
     5 (A) A             38 (A) A                 0.0060
     4 (A) A   6 (A) B   16 (A) A    9 (A) B     -0.0058
     4 (A) A   8 (A) A    9 (A) A   25 (A) A      0.0057
     6 (A) A   7 (A) A   19 (A) A   28 (A) A     -0.0056
    -----------------------------------------------------

  Density matrix analysis:
  ------------------------
  NOs
    Occupation of frontier NOs:
       0.9558   1.0555
    Number of electrons: 16.000000
    Number of unpaired electrons: n_u =  2.35842, n_u,nl =  2.06502
    NO participation ratio (PR_NO):  3.046373
  
  
  Mulliken Population Analysis
  Atom      Charge (e)              h+              e-           Del q
  --------------------------------------------------------------------
   1 H        0.155691        0.127040       -0.026596        0.100445
   2 C       -0.310058        0.272656       -0.472720       -0.200064
   3 H        0.154410        0.122801       -0.023094        0.099707
   4 C       -0.309996        0.272516       -0.472624       -0.200108
   5 H        0.152958        0.124043       -0.026213        0.097831
   6 H        0.156996        0.125630       -0.023441        0.102189
  --------------------------------------------------------------------
  Sum:       -0.000000        1.044687       -1.044687        0.000000
  
  Multipole moment analysis of the density matrix
    Molecular charge:                      0.000000
    Number of electrons:                   16.000000
      Center of electronic charge [Ang]: [ -1.562370,  -0.066226,   0.002148]
    Total nuclear charge:                  16.000000
      Center of nuclear charge [Ang]:    [ -1.562498,  -0.066381,   0.002126]
    Dipole moment [D]:                     0.015525
      Cartesian components [D]:          [ -0.009863,  -0.011862,  -0.001748]
    RMS size of the density [Ang]:         1.205245
      Cartesian components [Ang]:        [  0.789226,   0.773604,   0.480910]
  
  Exciton analysis of the difference density matrix
    <r_h> [Ang]:                  [ -1.560149,  -0.064364,   0.002350]
    <r_e> [Ang]:                  [ -1.558369,  -0.062189,   0.002629]
    |<r_e - r_h>| [Ang]:            0.002824
    Hole size [Ang]:                1.496140
      Cartesian components [Ang]: [  1.018054,   0.996972,   0.456122]
    Electron size [Ang]:            1.480320
      Cartesian components [Ang]: [  0.884486,   0.862305,   0.815757]

  Transition density matrix analysis:
  -----------------------------------
  
  CT numbers (Mulliken)
    omega =     0.9214
    <Phe> =    -0.0114
  
  Exciton analysis of the transition density matrix
    Trans. dipole moment [D]:             0.006440
      Cartesian components [D]:         [  0.000324,  -0.001108,   0.006335]
    <r_h> [Ang]:                        [ -1.560003,  -0.064279,   0.002348]
    <r_e> [Ang]:                        [ -1.558256,  -0.062025,   0.002659]
    |<r_e - r_h>| [Ang]:                  0.002868
    Hole size [Ang]:                      1.527026
      Cartesian components [Ang]:       [  1.043337,   1.021179,   0.447715]
    Electron size [Ang]:                  1.475744
      Cartesian components [Ang]:       [  0.873322,   0.850634,   0.831595]
    RMS electron-hole separation [Ang]:   2.103632
      Cartesian components [Ang]:       [  1.344602,   1.314066,   0.943685]
    Covariance(r_h, r_e) [Ang^2]:         0.042185
    Correlation coefficient:              0.018720
    Center-of-mass size [Ang]:            1.071681
      Cartesian components [Ang]:       [  0.688210,   0.671938,   0.472614]

  Decomposition into state-averaged NTOs
    H- 1 -> L+ 0: -0.6607 ( 87.3%)
    H- 0 -> L+ 2: -0.1514 (  4.6%)
                   omega =  92.1%
  ----------------------------------------------------------------------------


  Excited state 3 (singlet, A)                                     [converged]
  ----------------------------------------------------------------------------
  Term symbol:  4 (1) A                                     R^2 =  2.20049e-13

  Total energy:                                            -77.9841874201 a.u.
  Excitation energy:                                               9.141581 eV

  Osc. strength:                                                      0.023569
  Trans. dip. moment [a.u.]:           [   0.015233,    0.019883,   -0.323434]
  <i|r^2|0> [a.u.]:                    [   0.090606,    0.006284,    0.000753]
  Two-photon absorption cross-section (SoS) [a.u.]:                   0.004485
  Two-photon absorption matrix (SoS) [a.u.]:
                                       |   -0.003161   -0.001833    0.016146 |
                                       |   -0.001833   -0.000792    0.016945 |
                                       |    0.016146    0.016945    0.002753 |
  Two-photon absorption cross-section [a.u.]:                         0.003938
  Two-photon absorption matrix [a.u.]:
                                       |   -0.003012   -0.001572    0.015346 |
                                       |   -0.001572   -0.001337    0.015629 |
                                       |    0.015346    0.015629    0.002861 |

  Dip. moment [a.u.]:                  [  -0.025388,   -0.025701,   -0.002648]
  Total dipole [Debye]:                                               0.092070
  <r^2> [a.u.]:                        [ 181.414672,   41.037837,   11.058108]
  Total <r^2> [a.u.]:                                               233.510618

  V1^2 = 0.9580, V2^2 = 0.0420

  Important amplitudes:
      occ i     occ j     vir a      vir b          v   
    -----------------------------------------------------
     8 (A) A             10 (A) A                 0.6887
     8 (A) A             24 (A) A                 0.0508
     8 (A) A             18 (A) A                -0.0331
     4 (A) A              9 (A) A                 0.0247
     8 (A) A   8 (A) B    9 (A) A   12 (A) B      0.0223
     8 (A) A   8 (A) B   10 (A) A   17 (A) B      0.0172
     5 (A) A   8 (A) B   11 (A) A   10 (A) B     -0.0169
     8 (A) A             15 (A) A                 0.0149
     7 (A) A   8 (A) B   13 (A) A   10 (A) B     -0.0143
     4 (A) A   8 (A) B   12 (A) A   10 (A) B      0.0113
     6 (A) A   8 (A) A   10 (A) A   15 (A) A      0.0112
     7 (A) A   8 (A) B   22 (A) A   10 (A) B      0.0109
     6 (A) A   8 (A) B   15 (A) A   10 (A) B     -0.0109
     4 (A) A   8 (A) A   10 (A) A   12 (A) A     -0.0108
     7 (A) A              9 (A) A                -0.0102
     7 (A) A   8 (A) A   10 (A) A   22 (A) A     -0.0099
     7 (A) A   8 (A) A   10 (A) A   13 (A) A      0.0098
     5 (A) A   8 (A) A   10 (A) A   11 (A) A      0.0097
     5 (A) A   8 (A) B   21 (A) A   10 (A) B      0.0094
     6 (A) A   8 (A) B   10 (A) A   10 (A) B      0.0090
     6 (A) A   8 (A) A   10 (A) A   18 (A) A      0.0086
     7 (A) A   8 (A) A   12 (A) A   16 (A) A      0.0084
     3 (A) A   4 (A) B   10 (A) A    9 (A) B     -0.0080
     5 (A) A   8 (A) A   10 (A) A   21 (A) A     -0.0079
     4 (A) A   8 (A) B   19 (A) A   10 (A) B      0.0075
     8 (A) A   8 (A) B    9 (A) A   23 (A) B     -0.0075
     8 (A) A   8 (A) B   10 (A) A   28 (A) B      0.0074
     5 (A) A   8 (A) B   10 (A) A   11 (A) B     -0.0072
     7 (A) A   8 (A) B   16 (A) A   12 (A) B     -0.0072
     3 (A) A   8 (A) A   10 (A) A   24 (A) A     -0.0072
     3 (A) A   8 (A) B   10 (A) A   10 (A) B      0.0071
     8 (A) A   8 (A) B    9 (A) A   19 (A) B      0.0070
     3 (A) A   8 (A) B   10 (A) A   18 (A) B     -0.0068
     6 (A) A   8 (A) B   18 (A) A   10 (A) B     -0.0065
     3 (A) A   6 (A) B   10 (A) A   28 (A) B     -0.0062
     7 (A) A   8 (A) B   12 (A) A   11 (A) B     -0.0059
     6 (A) A             28 (A) A                 0.0058
     5 (A) A   8 (A) A   10 (A) A   16 (A) A      0.0057
     3 (A) A   5 (A) B   10 (A) A   25 (A) B     -0.0056
     6 (A) A   8 (A) A   11 (A) A   16 (A) A     -0.0055
    -----------------------------------------------------

  Density matrix analysis:
  ------------------------
  NOs
    Occupation of frontier NOs:
       0.9814   0.9845
    Number of electrons: 16.000000
    Number of unpaired electrons: n_u =  2.28907, n_u,nl =  2.02514
    NO participation ratio (PR_NO):  2.702220
  
  
  Mulliken Population Analysis
  Atom      Charge (e)              h+              e-           Del q
  --------------------------------------------------------------------
   1 H       -0.159060        0.054269       -0.268574       -0.214305
   2 C        0.309976        0.537891       -0.117920        0.419971
   3 H       -0.151065        0.054462       -0.260229       -0.205767
   4 C        0.310044        0.537822       -0.117890        0.419932
   5 H       -0.158617        0.054202       -0.267947       -0.213745
   6 H       -0.151279        0.054533       -0.260618       -0.206085
  --------------------------------------------------------------------
  Sum:       -0.000000        1.293178       -1.293178       -0.000000
  
  Multipole moment analysis of the density matrix
    Molecular charge:                      0.000000
    Number of electrons:                   16.000000
      Center of electronic charge [Ang]: [ -1.561659,  -0.065531,   0.002213]
    Total nuclear charge:                  16.000000
      Center of nuclear charge [Ang]:    [ -1.562498,  -0.066381,   0.002126]
    Dipole moment [D]:                     0.092070
      Cartesian components [D]:          [ -0.064529,  -0.065326,  -0.006731]
    RMS size of the density [Ang]:         1.282098
      Cartesian components [Ang]:        [  0.858081,   0.844950,   0.439922]
  
  Exciton analysis of the difference density matrix
    <r_h> [Ang]:                  [ -1.562310,  -0.066224,   0.002174]
    <r_e> [Ang]:                  [ -1.552072,  -0.055859,   0.003201]
    |<r_e - r_h>| [Ang]:            0.014605
    Hole size [Ang]:                1.412946
      Cartesian components [Ang]: [  0.836264,   0.823082,   0.787156]
    Electron size [Ang]:            2.079262
      Cartesian components [Ang]: [  1.377432,   1.379805,   0.722599]

  Transition density matrix analysis:
  -----------------------------------
  
  CT numbers (Mulliken)
    omega =     0.9250
    <Phe> =    -0.0109
  
  Exciton analysis of the transition density matrix
    Trans. dipole moment [D]:             0.412274
      Cartesian components [D]:         [  0.019359,   0.025269,  -0.411044]
    <r_h> [Ang]:                        [ -1.563261,  -0.067142,   0.002099]
    <r_e> [Ang]:                        [ -1.548506,  -0.052252,   0.003566]
    |<r_e - r_h>| [Ang]:                  0.021013
    Hole size [Ang]:                      1.212833
      Cartesian components [Ang]:       [  0.635891,   0.624404,   0.822634]
    Electron size [Ang]:                  2.301520
      Cartesian components [Ang]:       [  1.523931,   1.528495,   0.798956]
    RMS electron-hole separation [Ang]:   2.591507
      Cartesian components [Ang]:       [  1.643717,   1.644006,   1.145141]
    Covariance(r_h, r_e) [Ang^2]:         0.026243
    Correlation coefficient:              0.009402
    Center-of-mass size [Ang]:            1.305799
      Cartesian components [Ang]:       [  0.829436,   0.829129,   0.574188]

  Decomposition into state-averaged NTOs
    H- 0 -> L+ 1:  0.6793 ( 92.3%)
                   omega =  92.5%
  ----------------------------------------------------------------------------


  Excited state 4 (singlet, A)                                     [converged]
  ----------------------------------------------------------------------------
  Term symbol:  5 (1) A                                     R^2 =  3.15512e-13

  Total energy:                                            -77.9622582152 a.u.
  Excitation energy:                                               9.738305 eV

  Osc. strength:                                                      0.000007
  Trans. dip. moment [a.u.]:           [  -0.000109,   -0.000496,    0.005504]
  <i|r^2|0> [a.u.]:                    [  -0.014335,   -0.018508,    0.032029]
  Two-photon absorption cross-section (SoS) [a.u.]:                 134.668038
  Two-photon absorption matrix (SoS) [a.u.]:
                                       |   -0.273329   -0.312441    2.800205 |
                                       |   -0.312441   -0.354753    2.932103 |
                                       |    2.800205    2.932103    0.628059 |
  Two-photon absorption cross-section [a.u.]:                        80.037677
  Two-photon absorption matrix [a.u.]:
                                       |   -0.212897   -0.241049    2.164775 |
                                       |   -0.241049   -0.271185    2.254719 |
                                       |    2.164775    2.254719    0.484073 |

  Dip. moment [a.u.]:                  [   0.033616,    0.035299,    0.003887]
  Total dipole [Debye]:                                               0.124290
  <r^2> [a.u.]:                        [ 181.909699,   41.020547,   10.787117]
  Total <r^2> [a.u.]:                                               233.717363

  V1^2 = 0.9633, V2^2 = 0.0367

  Important amplitudes:
      occ i     occ j     vir a      vir b          v   
    -----------------------------------------------------
     8 (A) A             11 (A) A                -0.6688
     7 (A) A              9 (A) A                -0.1534
     8 (A) A             21 (A) A                 0.0779
     8 (A) A             16 (A) A                -0.0674
     8 (A) A   8 (A) B    9 (A) A   13 (A) B     -0.0167
     5 (A) A   8 (A) B   11 (A) A   11 (A) B      0.0157
     7 (A) A             20 (A) A                 0.0140
     8 (A) A   8 (A) B   11 (A) A   17 (A) B     -0.0137
     7 (A) A   8 (A) B   13 (A) A   11 (A) B      0.0127
     4 (A) A   8 (A) B   12 (A) A   11 (A) B     -0.0111
     8 (A) A   8 (A) B    9 (A) A   22 (A) B      0.0110
     5 (A) A   8 (A) A   11 (A) A   21 (A) A      0.0109
     7 (A) A   8 (A) A   11 (A) A   22 (A) A      0.0095
     6 (A) A   8 (A) B   10 (A) A   11 (A) B     -0.0091
     6 (A) A   8 (A) B   15 (A) A   11 (A) B      0.0089
     7 (A) A   8 (A) B   22 (A) A   11 (A) B     -0.0089
     3 (A) A   4 (A) B   11 (A) A    9 (A) B      0.0083
     3 (A) A   8 (A) B   11 (A) A   18 (A) B      0.0080
     6 (A) A   8 (A) A   11 (A) A   15 (A) A     -0.0079
     7 (A) A   8 (A) A   13 (A) A   16 (A) A     -0.0079
     7 (A) A   8 (A) A   11 (A) A   13 (A) A     -0.0075
     4 (A) A   8 (A) B   19 (A) A   11 (A) B     -0.0070
     5 (A) A   8 (A) B   21 (A) A   11 (A) B     -0.0069
     5 (A) A   8 (A) B    9 (A) A    9 (A) B      0.0069
     4 (A) A   8 (A) A   11 (A) A   12 (A) A      0.0062
     3 (A) A   6 (A) B   11 (A) A   28 (A) B      0.0060
     6 (A) A   8 (A) A   11 (A) A   18 (A) A     -0.0059
     6 (A) A   8 (A) B   18 (A) A   11 (A) B      0.0058
     7 (A) A   8 (A) B   16 (A) A   13 (A) B      0.0057
     3 (A) A   8 (A) B   11 (A) A   30 (A) B      0.0056
     5 (A) A   8 (A) B   10 (A) A   10 (A) B      0.0055
     7 (A) A   8 (A) B   12 (A) A   10 (A) B      0.0055
     8 (A) A   8 (A) B   20 (A) A   22 (A) B     -0.0055
     6 (A) A   8 (A) B   11 (A) A   10 (A) B     -0.0055
     3 (A) A   5 (A) B   11 (A) A   25 (A) B      0.0054
     3 (A) A   8 (A) A   11 (A) A   18 (A) A      0.0054
     3 (A) A   8 (A) A   11 (A) A   24 (A) A      0.0053
     5 (A) A   8 (A) A   11 (A) A   16 (A) A     -0.0049
     6 (A) A   8 (A) A   10 (A) A   16 (A) A      0.0047
     8 (A) A             10 (A) A                -0.0046
    -----------------------------------------------------

  Density matrix analysis:
  ------------------------
  NOs
    Occupation of frontier NOs:
       0.9387   1.0294
    Number of electrons: 16.000000
    Number of unpaired electrons: n_u =  2.32234, n_u,nl =  2.05104
    NO participation ratio (PR_NO):  2.932549
  
  
  Mulliken Population Analysis
  Atom      Charge (e)              h+              e-           Del q
  --------------------------------------------------------------------
   1 H       -0.120193        0.046083       -0.221522       -0.175439
   2 C        0.251061        0.495283       -0.134228        0.361056
   3 H       -0.130897        0.045941       -0.231540       -0.185600
   4 C        0.251196        0.495276       -0.134191        0.361085
   5 H       -0.117489        0.045825       -0.218442       -0.172617
   6 H       -0.133678        0.046188       -0.234673       -0.188485
  --------------------------------------------------------------------
  Sum:       -0.000000        1.174596       -1.174596       -0.000000
  
  Multipole moment analysis of the density matrix
    Molecular charge:                      -0.000000
    Number of electrons:                   16.000000
      Center of electronic charge [Ang]: [ -1.563610,  -0.067548,   0.001997]
    Total nuclear charge:                  16.000000
      Center of nuclear charge [Ang]:    [ -1.562498,  -0.066381,   0.002126]
    Dipole moment [D]:                     0.124290
      Cartesian components [D]:          [  0.085442,   0.089722,   0.009879]
    RMS size of the density [Ang]:         1.281026
      Cartesian components [Ang]:        [  0.859574,   0.844612,   0.434499]
  
  Exciton analysis of the difference density matrix
    <r_h> [Ang]:                  [ -1.563537,  -0.067481,   0.002043]
    <r_e> [Ang]:                  [ -1.578847,  -0.083551,   0.000231]
    |<r_e - r_h>| [Ang]:            0.022270
    Hole size [Ang]:                1.394932
      Cartesian components [Ang]: [  0.819746,   0.806154,   0.789916]
    Electron size [Ang]:            2.114220
      Cartesian components [Ang]: [  1.423274,   1.411436,   0.672360]

  Transition density matrix analysis:
  -----------------------------------
  
  CT numbers (Mulliken)
    omega =     0.9293
    <Phe> =    -0.0146
  
  Exciton analysis of the transition density matrix
    Trans. dipole moment [D]:             0.007025
      Cartesian components [D]:         [ -0.000138,  -0.000631,   0.006995]
    <r_h> [Ang]:                        [ -1.562582,  -0.066479,   0.002168]
    <r_e> [Ang]:                        [ -1.581835,  -0.086703,  -0.000118]
    |<r_e - r_h>| [Ang]:                  0.028016
    Hole size [Ang]:                      1.229170
      Cartesian components [Ang]:       [  0.662074,   0.649443,   0.806685]
    Electron size [Ang]:                  2.247775
      Cartesian components [Ang]:       [  1.513287,   1.501452,   0.712809]
    RMS electron-hole separation [Ang]:   2.550918
      Cartesian components [Ang]:       [  1.643026,   1.627838,   1.076009]
    Covariance(r_h, r_e) [Ang^2]:         0.028476
    Correlation coefficient:              0.010306
    Center-of-mass size [Ang]:            1.286497
      Cartesian components [Ang]:       [  0.830300,   0.822014,   0.538489]

  Decomposition into state-averaged NTOs
    H- 0 -> L+ 2:  0.6640 ( 88.2%)
    H- 1 -> L+ 0: -0.1513 (  4.6%)
                   omega =  92.9%
  ----------------------------------------------------------------------------


  Excited state 5 (singlet, A)                                     [converged]
  ----------------------------------------------------------------------------
  Term symbol:  6 (1) A                                     R^2 =  2.29853e-13

  Total energy:                                            -77.9468167284 a.u.
  Excitation energy:                                              10.158489 eV

  Osc. strength:                                                      0.000000
  Trans. dip. moment [a.u.]:           [   0.000021,   -0.000065,   -0.000083]
  <i|r^2|0> [a.u.]:                    [   0.081160,   -0.097730,    0.016854]
  Two-photon absorption cross-section (SoS) [a.u.]:                 223.549647
  Two-photon absorption matrix (SoS) [a.u.]:
                                       |    0.368484    0.052674   -3.805029 |
                                       |    0.052674   -0.439232    3.646305 |
                                       |   -3.805029    3.646305    0.074655 |
  Two-photon absorption cross-section [a.u.]:                       115.510350
  Two-photon absorption matrix [a.u.]:
                                       |    0.266545    0.039098   -2.737504 |
                                       |    0.039098   -0.313854    2.618618 |
                                       |   -2.737504    2.618618    0.052807 |

  Dip. moment [a.u.]:                  [  -0.001966,   -0.002403,   -0.000243]
  Total dipole [Debye]:                                               0.007916
  <r^2> [a.u.]:                        [ 180.502912,   39.824242,   11.600347]
[...]
    16   -1.415257868083e-03
    17   -1.758488350533e-03
    18    3.548123774273e-04
    19   -2.894034348824e-03
    20    1.109985354867e-02
    21    9.240337776603e-01
    22   -5.621977582010e-04
    23    1.374566536652e-02
    24    8.091767399122e-04
    25    7.033721519934e-02
    26   -5.222332950404e-02
    27   -1.383581054070e+00
    28    9.891456213003e-02
    29   -9.577846686554e-02
    30   -1.088060252023e-03
    31    3.815550236664e-01
    32   -3.690362284731e-01
    33   -4.173411188356e-03
    34    1.506549898101e-02
    35   -1.430515440574e-03
    36   -1.737781830486e-03
    37    9.085150333119e-05
    38   -2.906869225492e-03
    39    1.198704317502e-02
    40    9.339270704495e-01
    41    4.758020747602e-04
    42   -1.380186957209e-02
    43   -8.138808706584e-04
    44    1.102025013022e-02
    45    9.213751298178e-01
    46    1.366982735945e-02
    47    1.562132499616e-04
    48    6.647485562227e-04
Sym=X
Ene= 0.231048
Spin=Alpha
Occup=0
     1   -3.028120491812e-02
     2   -1.164732908802e+00
     3    1.288854125787e-02
     4    3.460708940912e-03
     5    8.291554067056e-04
     6    8.343945374495e-05
     7   -1.508828203653e-04
     8   -4.375826194198e-03
     9    1.546672709105e-01
    10    1.625286473088e-01
    11    1.728983280518e-02
    12    5.272392614267e-01
    13    5.604813515571e-01
    14    5.933698971113e-02
    15    4.226511124157e-05
    16   -8.300151272495e-05
    17    6.528876654846e-05
    18   -1.377416847319e-03
    19   -1.085844100890e-04
    20    2.946995324776e-02
    21    1.171892762434e+00
    22    2.896375351787e-03
    23    1.317917673701e-02
    24    9.386947087230e-04
    25    7.171948975106e-04
    26   -3.636444433091e-04
    27   -1.814700666430e-02
    28    1.556955076190e-01
    29    1.615024143188e-01
    30    1.724960865403e-02
    31    5.331823139433e-01
    32    5.549247295819e-01
    33    5.917531670803e-02
    34    2.876799960245e-04
    35    4.496887056730e-05
    36   -1.129372598114e-04
    37    1.394398151805e-03
    38   -6.163919208179e-05
    39   -2.984454099947e-02
    40   -1.157874549573e+00
    41    2.839199554363e-03
    42    1.289171800844e-02
    43    9.167360856405e-04
    44    2.991186173296e-02
    45    1.178979931876e+00
    46    1.317537520540e-02
    47    3.534405075903e-03
    48    8.462116123690e-04
Sym=X
Ene= 0.236440
Spin=Alpha
Occup=0
     1    1.913026408540e-02
     2    1.064645172389e+00
     3   -1.573848519153e-02
     4   -9.220365184036e-03
     5   -1.310537089218e-03
     6    8.711329168657e-02
     7   -8.231616713590e-02
     8   -1.544821385411e+00
     9   -5.860951211854e-02
    10    5.620526941714e-02
    11    6.499965488354e-04
    12   -2.395572532096e-01
    13    2.324405351176e-01
    14    2.786014634095e-03
    15    2.127753614375e-02
    16   -2.500879939042e-03
    17   -2.891582506749e-03
    18    7.225264131012e-04
    19   -1.240385370939e-02
    20    1.947346168310e-02
    21    1.079431917580e+00
    22    8.386068840539e-03
    23    1.646504405115e-02
    24    1.404936012182e-03
    25   -8.713062576489e-02
    26    8.233680787602e-02
    27    1.545222780659e+00
    28   -5.812628451891e-02
    29    5.672011395337e-02
    30    6.183046177347e-04
    31   -2.402878209947e-01
    32    2.317532550119e-01
    33    2.361550670408e-03
    34   -2.128589282842e-02
    35    2.514729659238e-03
    36    2.877239473410e-03
    37   -6.045020962695e-04
    38    1.241382117989e-02
    39   -1.924884054836e-02
    40   -1.076186000898e+00
    41    8.429684618962e-03
    42    1.634663302481e-02
    43    1.393793493266e-03
    44   -1.933680475553e-02
    45   -1.068412195381e+00
    46   -1.587219548488e-02
    47   -9.181527454075e-03
    48   -1.319668489308e-03
Sym=X
Ene= 0.302962
Spin=Alpha
Occup=0
     1    2.055283441008e-02
     2   -1.653796594467e+00
     3    2.348614837916e-02
     4   -4.741060714945e-04
     5    1.101886710038e-03
     6   -4.279547313058e-05
     7    8.454758431001e-05
     8   -5.837148678527e-03
     9    1.356626299468e-01
    10    1.426171108486e-01
    11    1.516415260272e-02
    12    1.124174195871e+00
    13    1.183859775891e+00
    14    1.257468130525e-01
    15    6.019028475034e-05
    16    1.717384053492e-03
    17   -2.006907987231e-03
    18    3.408168395749e-02
    19    1.545633237634e-03
    20   -2.155316568949e-02
    21    1.661649786468e+00
    22   -1.535490846707e-03
    23    2.346732621485e-02
    24    1.346567378554e-03
    25    4.608769656970e-05
    26    3.266900107604e-05
    27   -2.382511095510e-03
    28   -1.355737128659e-01
    29   -1.426978966585e-01
    30   -1.514989265947e-02
    31   -1.126861694072e+00
    32   -1.181535627871e+00
    33   -1.256865617286e-01
    34   -2.441221470891e-05
    35    1.742297150862e-03
    36   -1.979827830053e-03
    37    3.409034188807e-02
    38    1.625512349074e-03
    39   -2.115444112001e-02
    40    1.658509963735e+00
    41    1.553769486404e-03
    42   -2.346342783778e-02
    43   -1.340311093653e-03
    44    2.101078889645e-02
    45   -1.657375735213e+00
    46   -2.349426505257e-02
    47    4.531485384578e-04
    48   -1.106549118670e-03
Sym=X
Ene= 0.462774
Spin=Alpha
Occup=0
     1   -1.161488494066e-01
     2   -6.911478989905e-01
     3   -1.505137296236e-02
     4   -1.009270512286e-02
     5   -1.338028753716e-03
     6    6.251921354951e-02
     7    1.657126445082e-02
     8   -3.641148108944e+00
     9    1.044697799857e-01
    10   -9.901923692307e-02
    11   -1.038956588833e-03
    12    2.426571263653e+00
    13   -2.317861293719e+00
    14   -2.304655823012e-02
    15    5.295777427134e-02
    16   -3.285871112221e-03
    17   -4.527592083116e-03
    18   -1.245022005551e-03
    19    2.012740573279e-02
    20   -1.125582357629e-01
    21   -7.064575171114e-01
    22    9.750003728497e-03
    23    1.538588940290e-02
    24    1.398591500480e-03
    25   -6.251196201207e-02
    26   -1.659769959189e-02
    27    3.640966502482e+00
    28    1.041977570372e-01
    29   -9.920105075941e-02
    30   -1.015120268882e-03
    31    2.429888293130e+00
    32   -2.314676243335e+00
    33   -2.248270260982e-02
    34   -5.297355365129e-02
    35    3.275778111228e-03
    36    4.534917028495e-03
    37    1.163383475536e-03
    38   -2.010460386920e-02
    39    1.134447381763e-01
    40    6.993202048370e-01
    41    9.684658436821e-03
    42    1.537864806631e-02
    43    1.395413407178e-03
    44    1.154554146550e-01
    45    6.982689172694e-01
    46   -1.506275920373e-02
    47   -1.016769438834e-02
    48   -1.339469837222e-03
Sym=X
Ene= 0.579809
Spin=Alpha
Occup=0
     1    2.383657059366e-01
     2    4.364482642442e-02
     3   -2.215813770266e-02
     4    2.719547776787e-02
     5    5.813022287226e-04
     6   -6.270758395083e-03
     7   -1.690162696189e-01
     8   -4.164670506145e-01
     9    3.057920104470e-01
    10   -2.899073495016e-01
    11   -2.755744156338e-03
    12   -7.477457520953e-01
    13    7.122536226229e-01
    14    7.118937945628e-03
    15   -1.984904512797e-03
    16    3.682855802895e-03
    17    3.259557748526e-03
    18   -2.438467494257e-03
    19    5.982257479054e-02
    20    2.371477417131e-01
    21    5.248010562172e-02
    22   -2.788592075106e-02
    23    2.059621100900e-02
    24   -9.371373934380e-05
    25   -6.239330558446e-03
    26   -1.689911524145e-01
    27   -4.179471518321e-01
    28   -3.057190056727e-01
    29    2.900830537704e-01
    30    2.777801112927e-03
    31    7.486755332252e-01
    32   -7.094072636059e-01
    33   -6.855976218223e-03
    34   -1.981792754624e-03
    35    3.694911203584e-03
    36    3.244619028983e-03
    37   -2.197903130122e-03
    38    5.983137278909e-02
    39    2.363059794553e-01
    40    4.950079331952e-02
    41    2.806154258263e-02
    42   -2.087007958522e-02
    43    9.010359955962e-05
    44    2.392737585075e-01
    45    4.593161419745e-02
    46    2.184597323330e-02
    47   -2.699707780940e-02
    48   -5.795232507280e-04
Sym=X
Ene= 0.608870
Spin=Alpha
Occup=0
     1   -5.192600641393e-01
     2    2.511227333788e-01
     3   -5.941517006715e-02
     4    3.727689202570e-02
     5   -5.975126311841e-04
     6    1.597079004390e-04
     7    1.227338232954e-03
     8    5.998674588128e-03
     9   -3.506744418314e-02
    10   -3.803287743406e-02
    11   -3.983865819738e-03
    12    2.508091336479e-01
    13    2.845471409400e-01
    14    2.931431534959e-02
    15    2.530965513000e-05
    16   -7.604769177812e-03
    17    8.638799124127e-03
    18   -1.485893422846e-01
    19   -8.018920841689e-03
    20    5.195744136659e-01
    21   -2.395419705521e-01
    22    3.984307212505e-02
    23   -5.764680827227e-02
    24   -1.574856114343e-03
    25   -1.303355820537e-04
    26    5.684617716395e-04
    27   -1.286697253304e-02
    28   -3.512356745739e-02
    29   -3.802936472234e-02
    30   -3.994369958168e-03
    31    2.522508006096e-01
    32    2.834661769164e-01
    33    2.925538276036e-02
    34    6.498737675282e-04
    35    7.539471370986e-03
    36   -8.704627046742e-03
    37    1.485802491099e-01
    38    7.329792917328e-03
    39   -5.221084064116e-01
    40    2.439930534559e-01
    41    3.981397598830e-02
    42   -5.778241612706e-02
    43   -1.574649302839e-03
    44    5.165159219040e-01
    45   -2.460144370117e-01
    46   -5.926618406029e-02
    47    3.732222262435e-02
    48   -6.010704623596e-04
Sym=X
Ene= 0.688652
Spin=Alpha
Occup=0
     1    5.712351127015e-07
     2    1.829111767202e-04
     3    8.556851789511e-04
     4    1.120118748696e-03
     5   -1.843577190587e-02
     6   -1.752709314550e-06
     7   -1.358830023360e-04
     8    2.410438683581e-04
     9    3.233557129073e-02
    10    4.053936962278e-02
    11   -6.706294978941e-01
    12   -2.982133477592e-02
    13   -3.677511231944e-02
    14    6.126468286726e-01
    15   -1.305918544367e-03
    16    8.240341360765e-02
    17   -7.857032233665e-02
    18   -8.716422158154e-03
    19   -1.174635382496e-03
    20   -4.532029293221e-06
    21    2.105619286740e-04
    22    9.193258434662e-04
    23    1.192710755536e-03
    24   -1.914640111694e-02
    25   -9.607127251544e-06
    26   -4.372715445035e-05
    27   -1.081732648187e-04
    28    3.226205497779e-02
    29    4.055686764434e-02
    30   -6.706261934843e-01
    31   -2.975830746232e-02
    32   -3.676964829396e-02
    33    6.126573959502e-01
    34    1.367844714028e-03
    35   -8.243899885959e-02
    36    7.853187293522e-02
    37    8.726665268197e-03
    38    1.153160914683e-03
    39   -1.583001839619e-04
    40   -7.248048930828e-05
    41    8.833080167993e-04
    42    1.118682067976e-03
    43   -1.874378934934e-02
    44   -1.523512692828e-04
    45   -9.953413138982e-05
    46    9.193469482497e-04
    47    1.156196927000e-03
    48   -1.886129188897e-02
Sym=X
Ene= 0.704764
Spin=Alpha
Occup=0
     1   -4.884597095254e-01
     2    1.682221053461e-01
     3   -7.793653542843e-02
     4   -4.453905153223e-02
     5   -6.455912544389e-03
     6   -4.596242730153e-02
     7   -3.012504778726e-01
     8    4.631847668672e-01
     9    1.968380106560e-01
    10   -1.850671816647e-01
    11   -1.583644366342e-03
    12   -6.018766378289e-02
    13    5.176412250580e-02
    14   -9.994813168648e-05
    15    1.911768317954e-01
    16   -2.052697742956e-02
    17   -2.408524723148e-02
    18    3.854650738066e-03
    19   -7.659244969175e-02
    20   -4.876293889553e-01
    21    1.595352041732e-01
    22    4.015258442315e-02
    23    8.044206726920e-02
    24    6.792244999889e-03
    25   -4.594661748444e-02
    26   -3.013764248106e-01
    27    4.639741297369e-01
    28   -1.948708789274e-01
    29    1.871899999692e-01
    30    2.051011357769e-03
    31    5.452885836591e-02
    32   -5.844749702833e-02
    33   -8.501302105989e-04
    34    1.910995921589e-01
    35   -2.052095148080e-02
    36   -2.405720817636e-02
    37    3.607873236728e-03
    38   -7.663295924564e-02
    39   -4.865185747040e-01
    40    1.660027509208e-01
    41   -4.053891240370e-02
    42   -8.028073580672e-02
    43   -6.788435808799e-03
    44   -4.891186111068e-01
    45    1.614551495615e-01
    46    7.805207500139e-02
    47    4.415494503136e-02
    48    6.443024633555e-03
Sym=X
Ene= 0.775737
Spin=Alpha
Occup=0
     1    5.417873582190e-01
     2   -4.899634560508e-01
     3    1.085046958677e-01
     4    2.649633587814e-02
     5    6.831529658086e-03
     6    8.892290561386e-02
     7   -2.268541378334e-01
     8   -5.666251057625e-01
     9    1.002885661755e-01
    10   -1.017737942391e-01
    11   -1.373369150522e-03
    12    3.005489381746e-01
    13   -2.727336289385e-01
    14   -1.764900925502e-03
    15   -2.031697843897e-01
    16    1.753335104431e-02
    17    2.176748811392e-02
    18    8.216012151985e-04
    19    7.688305530155e-03
    20    5.355831428711e-01
    21   -4.714930803611e-01
    22   -2.090813643559e-02
    23   -1.080687041600e-01
    24   -7.542790577226e-03
    25   -8.894790637970e-02
    26    2.265196372801e-01
    27    5.669994634840e-01
    28    1.033909094934e-01
    29   -9.834509089573e-02
    30   -8.137822582475e-04
    31    2.918415435870e-01
    32   -2.820560218823e-01
    33   -3.201650594121e-03
    34    2.032774712273e-01
    35   -1.754681431167e-02
    36   -2.174721781143e-02
    37   -4.832875184413e-04
    38   -7.715662609832e-03
    39   -5.383395568035e-01
    40    4.813202483564e-01
    41   -2.099414142672e-02
    42   -1.086576827488e-01
    43   -7.574402967537e-03
    44   -5.392375523619e-01
    45    4.800597704114e-01
    46    1.080099721579e-01
    47    2.640183018160e-02
    48    6.799015456240e-03
Sym=X
Ene= 0.807405
Spin=Alpha
Occup=0
     1   -5.993835014586e-05
     2    1.497942812850e-04
     3    1.454288836923e-03
     4    1.896057620280e-03
     5   -3.120619921186e-02
     6   -8.150373330323e-06
     7   -5.032814913380e-05
     8    2.368633303686e-05
     9    3.680753495588e-02
    10    4.625822202558e-02
    11   -7.642346712006e-01
    12   -5.425945624262e-02
    13   -6.796412904043e-02
    14    1.124347211335e+00
    15    1.100893344128e-03
    16   -6.525253418736e-02
    17    6.215874067000e-02
    18    6.891782654068e-03
    19    9.456810821569e-04
    20   -5.756910397273e-05
    21    7.061345852101e-05
    22    1.506652641969e-03
    23    1.952206266657e-03
    24   -3.163073158137e-02
    25    1.609421898536e-05
    26   -1.010951309164e-04
    27    5.278352518343e-05
    28   -3.686282805419e-02
    29   -4.610671539521e-02
    30    7.642388060254e-01
    31    5.416349939389e-02
    32    6.789183694426e-02
    33   -1.124365721133e+00
    34    1.020502407244e-03
    35   -6.523463197831e-02
    36    6.217674570939e-02
    37    6.913259590461e-03
    38    9.184904947951e-04
    39    6.539350174833e-05
    40   -3.131333630007e-05
    41   -1.510486746089e-03
    42   -1.885592242745e-03
    43    3.127774189635e-02
    44    6.723513580308e-05
    45   -1.048699920189e-04
    46   -1.534823412211e-03
    47   -1.911795280999e-03
    48    3.159415184190e-02
Sym=X
Ene= 0.858425
Spin=Alpha
Occup=0
     1    1.255205390183e-02
     2   -1.076262160557e+00
     3    1.459991202649e-01
     4    5.625305279410e-02
     5    1.041032609445e-02
     6   -5.902989044875e-04
     7   -2.586398719795e-03
     8    1.683824162747e-04
     9   -4.141976846518e-01
    10   -4.308691443734e-01
    11   -4.604105567016e-02
    12    9.409382522925e-01
    13    9.826666896261e-01
    14    1.048208333655e-01
    15    1.823300858763e-03
    16    1.165273490831e-02
    17   -1.356439177074e-02
    18    2.303667379324e-01
    19    1.226083990373e-02
    20   -1.611717355251e-02
    21    1.075350998253e+00
    22    4.833106566322e-02
    23    1.492797360401e-01
    24    1.138143851562e-02
    25    2.697758825804e-04
    26   -4.068332660101e-03
    27    4.832155661895e-03
    28   -4.135624788507e-01
    29   -4.310730794493e-01
    30   -4.594047984528e-02
    31    9.406179008965e-01
    32    9.823158394560e-01
    33    1.046064811172e-01
    34   -2.212341301990e-04
    35   -1.178869912440e-02
    36    1.338967653444e-02
    37   -2.303342821315e-01
    38   -1.220345637898e-02
    39    1.517842028209e-02
    40   -1.075524575189e+00
    41    4.861496767285e-02
    42    1.490969774257e-01
    43    1.136524084414e-02
    44   -1.332105020425e-02
    45    1.075650102006e+00
    46    1.460731359485e-01
    47    5.602898175855e-02
    48    1.040832859397e-02
Sym=X
Ene= 0.928004
Spin=Alpha
Occup=0
     1    1.412680601118e-01
     2   -1.240048847013e+00
     3    1.835448029944e-01
     4   -4.497541131575e-03
     5    8.568750452164e-03
     6   -7.633603883740e-04
     7   -7.840950640156e-03
     8    1.894994649966e-03
     9   -4.805150194728e-01
    10   -4.921015265890e-01
    11   -5.290805434604e-02
    12    1.398426049051e+00
    13    1.438879768957e+00
    14    1.543822877127e-01
    15    1.864941042934e-03
    16    6.475790776847e-03
    17   -7.317659504373e-03
    18    1.253444728408e-01
    19    1.016245708143e-02
    20   -1.421571826647e-01
    21    1.221479558993e+00
    22   -1.631980380443e-02
    23    1.810432850326e-01
    24    1.016640178370e-02
    25    4.988746935854e-04
    26   -4.125222167166e-03
    27    1.466798314487e-02
    28    4.703195979039e-01
    29    5.021342936529e-01
    30    5.300006009978e-02
    31   -1.372384462589e+00
    32   -1.464730060119e+00
    33   -1.546232272719e-01
    34   -1.523764430816e-03
    35    6.457671146813e-03
    36   -7.217706806837e-03
    37    1.258114167736e-01
    38    4.249323914566e-03
    39   -1.406284099491e-01
    40    1.235165788615e+00
    41    1.442563745740e-02
    42   -1.818354345555e-01
    43   -1.027339689424e-02
    44    1.428776156282e-01
    45   -1.227724405970e+00
    46   -1.830400304022e-01
    47    6.370061139751e-03
    48   -8.448502336261e-03
Sym=X
Ene= 0.970591
Spin=Alpha
Occup=0
     1   -5.909153902116e-02
     2    8.765437635074e-01
     3   -8.494000191369e-02
     4   -9.659106202466e-02
     5   -9.894673705425e-03
     6    2.706198759262e-02
     7    2.528091404620e-01
     8    5.140078462364e-01
     9    4.770237723685e-01
    10   -4.651244074825e-01
    11   -5.207026811197e-03
    12   -1.452061946454e+00
    13    1.424437867783e+00
    14    1.631131597949e-02
    15   -5.790643866788e-02
    16   -1.225704390354e-02
    17   -9.356949071105e-03
    18    1.708438336876e-02
    19   -2.962246999938e-01
    20   -6.044262838757e-02
    21    9.168015646074e-01
    22    9.192249579987e-02
    23    9.496045667095e-02
    24    1.020639065076e-02
    25   -2.706363482757e-02
    26   -2.529347112865e-01
    27   -5.138043217238e-01
    28    4.864104322037e-01
    29   -4.552540721551e-01
    30   -4.040171012667e-03
    31   -1.488235905141e+00
    32    1.386327279599e+00
    33    1.193889442127e-02
    34    5.790580136870e-02
    35    1.243331294663e-02
    36    9.169283072354e-03
    37   -1.388956490296e-02
    38    2.964369057354e-01
    39    6.050366080778e-02
    40   -8.855009019588e-01
    41    9.211580756662e-02
    42    9.086247604551e-02
    43    9.942443796325e-03
    44    5.900109202083e-02
    45   -9.079463282458e-01
    46   -8.906319728521e-02
    47   -9.664825156419e-02
    48   -1.012000203296e-02
[5D]

======= END OF MOLDEN-FORMATTED INPUT FILE =======


        *************************************************************
        *                                                           *
        *  Thank you very much for using Q-Chem.  Have a nice day.  *
        *                                                           *
        *************************************************************


