                  Welcome to Q-Chem
     A Quantum Leap Into The Future Of Chemistry


 Q-Chem 5.4 (devel), Q-Chem, Inc., Pleasanton, CA (2021)

 E. Epifanovsky,  A. T. B. Gilbert,  Xintian Feng,  Joonho Lee,  Yuezhi Mao,  
 N. Mardirossian,  P. Pokhilko,  A. White,  M. Wormit,  M. P. Coons,  
 A. L. Dempwolff,  Zhengting Gan,  D. Hait,  P. R. Horn,  L. D. Jacobson,  
 I. Kaliman,  J. Kussmann,  A. W. Lange,  Ka Un Lao,  D. S. Levine,  Jie Liu,  
 S. C. McKenzie,  A. F. Morrison,  K. Nanda,  F. Plasser,  D. R. Rehn,  
 M. L. Vidal,  Zhi-Qiang You,  Ying Zhu,  B. Alam,  B. Albrecht,  
 A. Aldossary,  E. Alguire,  J. H. Andersen,  D. Barton,  K. Begam,  A. Behn,  
 Y. A. Bernard,  E. J. Berquist,  H. Burton,  A. Carreras,  K. Carter-Fenk,  
 R. Chakraborty,  A. D. Chien,  K. D. Closser,  V. Cofer-Shabica,  
 S. Dasgupta,  Jia Deng,  M. de Wergifosse,  M. Diedenhofen,  Hainam Do,  
 S. Ehlert,  Po-Tung Fang,  S. Fatehi,  Qingguo Feng,  T. Friedhoff,  
 J. Gayvert,  Qinghui Ge,  G. Gidofalvi,  M. Goldey,  J. Gomes,  
 C. Gonzalez-Espinoza,  S. Gulania,  A. Gunina,  M. W. D. Hanson-Heine,  
 P. H. P. Harbach,  A. W. Hauser,  M. F. Herbst,  M. Hernandez Vera,  
 M. Hodecker,  Z. C. Holden,  S. Houck,  Xunkun Huang,  Kerwin Hui,  
 B. C. Huynh,  M. Ivanov,  Hyunjun Ji,  Hanjie Jiang,  B. Kaduk,  S. Kaehler,  
 K. Khistyaev,  Jaehoon Kim,  P. Klunzinger,  Z. Koczor-Benda,  
 Joong Hoon Koh,  D. Kosenkov,  L. Koulias,  T. Kowalczyk,  C. M. Krauter,  
 K. Kue,  A. Kunitsa,  T. Kus,  A. Landau,  K. V. Lawler,  D. Lefrancois,  
 S. Lehtola,  Rain Li,  Yi-Pei Li,  Jiashu Liang,  M. Liebenthal,  
 Hung-Hsuan Lin,  You-Sheng Lin,  Fenglai Liu,  Kuan-Yu Liu,  
 M. Loipersberger,  A. Luenser,  A. Manjanath,  P. Manohar,  E. Mansoor,  
 S. F. Manzer,  Shan-Ping Mao,  A. V. Marenich,  T. Markovich,  S. Mason,  
 S. A. Maurer,  P. F. McLaughlin,  M. F. S. J. Menger,  J.-M. Mewes,  
 S. A. Mewes,  P. Morgante,  J. W. Mullinax,  K. J. Oosterbaan,  G. Paran,  
 Alexander C. Paul,  Suranjan K. Paul,  F. Pavosevic,  Zheng Pei,  S. Prager,  
 E. I. Proynov,  E. Ramos,  B. Rana,  A. E. Rask,  A. Rettig,  R. M. Richard,  
 F. Rob,  E. Rossomme,  T. Scheele,  M. Scheurer,  M. Schneider,  
 N. Sergueev,  S. M. Sharada,  W. Skomorowski,  D. W. Small,  C. J. Stein,  
 Yu-Chuan Su,  E. J. Sundstrom,  Zhen Tao,  J. Thirman,  T. Tsuchimochi,  
 N. M. Tubman,  S. P. Veccham,  O. Vydrov,  J. Wenzel,  J. Witte,  A. Yamada,  
 Kun Yao,  S. Yeganeh,  S. R. Yost,  A. Zech,  Igor Ying Zhang,  Xing Zhang,  
 Yu Zhang,  D. Zuev,  A. Aspuru-Guzik,  A. T. Bell,  N. A. Besley,  
 K. B. Bravaya,  B. R. Brooks,  D. Casanova,  Jeng-Da Chai,  S. Coriani,  
 C. J. Cramer,  A. E. DePrince, III,  R. A. DiStasio Jr.,  A. Dreuw,  
 B. D. Dunietz,  T. R. Furlani,  W. A. Goddard III,  S. Grimme,  
 S. Hammes-Schiffer,  T. Head-Gordon,  W. J. Hehre,  Chao-Ping Hsu,  
 T.-C. Jagau,  Yousung Jung,  A. Klamt,  Jing Kong,  D. S. Lambrecht,  
 WanZhen Liang,  N. J. Mayhall,  C. W. McCurdy,  J. B. Neaton,  
 C. Ochsenfeld,  J. A. Parkhill,  R. Peverati,  V. A. Rassolov,  Yihan Shao,  
 L. V. Slipchenko,  T. Stauch,  R. P. Steele,  J. E. Subotnik,  
 A. J. W. Thom,  A. Tkatchenko,  D. G. Truhlar,  T. Van Voorhis,  
 T. A. Wesolowski,  K. B. Whaley,  H. L. Woodcock III,  P. M. Zimmerman,  
 S. Faraji,  P. M. W. Gill,  M. Head-Gordon,  J. M. Herbert,  A. I. Krylov

 Additional authors for Version 5.4.1: 
 S. Kotaru,  Shaozhi Li,  Xiangyuan Li,  F. Matz,  A. Molle,  Haisheng Ren,  
 Yingli Su,  Hung-Yi Tsai,  C. Utku,  Fang Wang

 Contributors to earlier versions of Q-Chem not listed above: 
 R. D. Adamson,  B. Austin,  R. Baer,  J. Baker,  G. J. O. Beran,  
 K. Brandhorst,  S. T. Brown,  E. F. C. Byrd,  A. K. Chakraborty,  
 G. K. L. Chan,  Chun-Min Chang,  Yunqing Chen,  C.-L. Cheng,  
 Siu Hung Chien,  D. M. Chipman,  D. L. Crittenden,  H. Dachsel,  
 R. J. Doerksen,  A. D. Dutoi,  R. G. Edgar,  J. Fosso-Tande,  
 L. Fusti-Molnar,  D. Ghosh,  A. Ghysels,  A. Golubeva-Zadorozhnaya,  
 J. Gonthier,  M. S. Gordon,  S. R. Gwaltney,  G. Hawkins,  J. E. Herr,  
 A. Heyden,  S. Hirata,  E. G. Hohenstein,  G. Kedziora,  F. J. Keil,  
 C. Kelley,  Jihan Kim,  R. A. King,  R. Z. Khaliullin,  P. P. Korambath,  
 W. Kurlancheek,  A. Laurent,  A. M. Lee,  M. S. Lee,  S. V. Levchenko,  
 Ching Yeh Lin,  D. Liotard,  E. Livshits,  R. C. Lochan,  I. Lotan,  
 L. A. Martinez-Martinez,  P. E. Maslen,  N. Nair,  D. P. O'Neill,  
 D. Neuhauser,  E. Neuscamman,  C. M. Oana,  R. Olivares-Amaya,  R. Olson,  
 T. M. Perrine,  B. Peters,  P. A. Pieniazek,  A. Prociuk,  Y. M. Rhee,  
 J. Ritchie,  M. A. Rohrdanz,  E. Rosta,  N. J. Russ,  H. F. Schaefer III,  
 M. W. Schmidt,  N. E. Schultz,  S. Sharma,  N. Shenvi,  C. D. Sherrill,  
 A. C. Simmonett,  A. Sodt,  T. Stein,  D. Stuck,  K. S. Thanthiriwatte,  
 V. Vanovschi,  L. Vogt,  Tao Wang,  A. Warshel,  M. A. Watson,  
 C. F. Williams,  Q. Wu,  X. Xu,  Jun Yang,  W. Zhang,  Yan Zhao

 Please cite Q-Chem as follows:
 Y. Shao et al., Mol. Phys. 113, 184-215 (2015)
 DOI: 10.1080/00268976.2014.952696

 Q-Chem 5.4.1 for Intel X86 EM64T Linux

 Parts of Q-Chem use Armadillo 9.800.1 (Horizon Scraper).
 http://arma.sourceforge.net/

 Q-Chem begins on Mon Mar 20 18:35:36 2023  

 Host: cpu186.baobab
0

     Scratch files written to /scratch/fum/qchem79896//
 Processing $rem in /home/share/wesolowski/qc5.aug2021.FDE/config/preferences:
 Processing $rem in /home/fum/.qchemrc:

 Checking the input file for inconsistencies... 	...done.

--------------------------------------------------------------
User input:
--------------------------------------------------------------
$comment
generated from CCJob.Templates
$end

$rem
sym_ignore = true
method = adc(2)
ee_states = 10
basis = cc-pVDZ
mem_static = 1024
mem_total = 40000
adc_davidson_maxiter = 900
adc_davidson_conv = 6
adc_print = 3
adc_prop_es = true
adc_prop_es2es = true
adc_prop_tpa = true
molden_format = True
state_analysis = true
print_orbitals = 15
gen_scfman = false
fde_export_density = true
fde_details = 3
$end

$molecule
0 1
H 0.01550915644723393 -0.23655938251325728 0.0675419460851492
C -1.0886302702848212 -0.5141972919769005 -0.002266780368711591
H -1.3097486234784783 -1.6306578844292685 -0.08037417937071768
C -2.0340456373167655 0.383626555078591 0.006513319868581548
H -1.8129684851237584 1.5000688935211537 0.08459852486993741
H -3.1381669271395354 0.10600159201552004 -0.06321262878390078                     
$end
--------------------------------------------------------------
 ----------------------------------------------------------------
             Standard Nuclear Orientation (Angstroms)
    I     Atom           X                Y                Z
 ----------------------------------------------------------------
    1      H       0.0155091564    -0.2365593825     0.0675419461
    2      C      -1.0886302703    -0.5141972920    -0.0022667804
    3      H      -1.3097486235    -1.6306578844    -0.0803741794
    4      C      -2.0340456373     0.3836265551     0.0065133199
    5      H      -1.8129684851     1.5000688935     0.0845985249
    6      H      -3.1381669271     0.1060015920    -0.0632126288
 ----------------------------------------------------------------
 Nuclear Repulsion Energy =          32.97468709 hartrees
 There are        8 alpha and        8 beta electrons
 Requested basis set is cc-pVDZ
 There are 24 shells and 48 basis functions
 Total memory of 40000 MB is distributed as follows: 
   MEM_STATIC is set to 1024 MB
   QALLOC/CCMAN JOB total memory use is  38976 MB
 Warning: actual memory use might exceed 40000 MB

 Total QAlloc Memory Limit  40000 MB
 Mega-Array Size      1001 MB
 MEM_STATIC part      1024 MB

                       Distance Matrix (Angstroms)
             H (  1)   C (  2)   H (  3)   C (  4)   H (  5)
   C (  2)  1.140649
   H (  3)  1.929170  1.140824
   C (  4)  2.142202  1.303831  2.142311
   H (  5)  2.521805  2.142307  3.175200  1.140796
   H (  6)  3.174920  2.142186  2.521784  1.140623  1.929099

 A cutoff of  1.0D-11 yielded    300 shell pairs
 There are      1220 function pairs (      1329 Cartesian)
 Smallest overlap matrix eigenvalue = 4.31E-03

 Scale SEOQF with 1.000000e-01/1.000000e-01/1.000000e+00

 Standard Electronic Orientation quadrupole field applied
 Nucleus-field energy     =     0.0000000022 hartrees
 Guess from superposition of atomic densities
 Warning:  Energy on first SCF cycle will be non-variational
 SAD guess density has 16.000000 electrons
 A restricted Hartree-Fock SCF calculation will be
 performed using Pulay DIIS extrapolation
 SCF converges when DIIS error is below 1.0E-08
 using 10 threads for integral computing
 -------------------------------------------------------
 OpenMP Integral computing Module                
 Release: version 1.0, May 2013, Q-Chem Inc. Pittsburgh 
 -------------------------------------------------------
 ---------------------------------------
  Cycle       Energy         DIIS Error
 ---------------------------------------
    1     -78.3277485400      9.73E-02
    2     -78.0095634794      7.08E-03
    3     -78.0299848287      1.85E-03
    4     -78.0315055977      6.08E-04
    5     -78.0316414764      5.94E-05
    6     -78.0316434058      9.50E-06
    7     -78.0316434692      1.92E-06
    8     -78.0316434718      1.76E-07
    9     -78.0316434718      2.37E-08
   10     -78.0316434718      1.05E-08
   11     -78.0316434718      1.21E-09 Convergence criterion met
 ---------------------------------------
 SCF time:  CPU 2.07 s  wall 2.48 s
 SCF   energy in the final basis set = -78.03164347
 Total energy in the final basis set = -78.03164347
Exporting Density Matrix to file 'Densmat_SCF.txt'.
Export successful
================================================================================
|                                                                              |
|                                 A D C  M A N                                 |
|                                                                              |
 ------------------------------------------------------------------------------ 
|                                                                              |
| Components:                                                                  |
|                                                                              |
| - libvmm - 1.3-trunk                                                         |
|   Authors:                                                                   |
|   Evgeny Epifanovsky, Ilya Kaliman                                           |
|                                                                              |
| - libtensor - 2.5-trunk                                                      |
|   Authors:                                                                   |
|   Evgeny Epifanovsky, Michael Wormit, Dmitry Zuev, Sam Manzer,               |
|   Ilya Kaliman                                                               |
|                                                                              |
| - libwfa - 1.1-trunk                                                         |
|   Authors:                                                                   |
|   Felix Plasser, Stefanie Mewes (Baeppler), Benjamin Thomitzni,              |
|   Michael Wormit, Feng Chen, Anna I. Krylov, Pavel Pokhilko                  |
|                                                                              |
| - libadc - 1.1-trunk                                                         |
|   Authors:                                                                   |
|   Michael Wormit, Adrian L. Dempwolff, Philipp H. P. Harbach,                |
|   Caroline Krauter, Dirk Rehn, Matthias Schneider, Jan Wenzel                |
|                                                                              |
| - adcman - 2.6-trunk                                                         |
|   Authors:                                                                   |
|   Michael Wormit, Adrian L. Dempwolff, Philipp H. P. Harbach,                |
|   Caroline Krauter, Daniel Lefrancois, Jan-Michael Mewes, Dirk Rehn,         |
|   Matthias Schneider, Jan Wenzel, Andreas Dreuw                              |
|                                                                              |
| Authors of earlier versions of ADCMAN:                                       |
| Andreas Dreuw, Jan Hendrik Starcke, Dirk Rehn, Michael Wormit                |
|                                                                              |
================================================================================

 Created directory /scratch/fum/qchem79896/plots
  Import QC data ...  CPU 0.00 s  wall 0.00 s

 Alpha MOs, Restricted
 -- Occupied --                  
-11.245 -11.243  -1.034  -0.766  -0.622  -0.583  -0.480  -0.384
  1 A     2 A     3 A     4 A     5 A     6 A     7 A     8 A                  
 -- Virtual --                   
  0.175   0.198   0.221   0.229   0.304   0.467   0.576   0.603
  9 A    10 A    11 A    12 A    13 A    14 A    15 A    16 A                  
  0.680   0.687   0.759   0.809   0.844   0.908   0.981   0.993
 17 A    18 A    19 A    20 A    21 A    22 A    23 A    24 A                  
  1.122   1.234   1.254   1.272   1.288   1.558   1.703   1.712
 25 A    26 A    27 A    28 A    29 A    30 A    31 A    32 A                  
  1.794   1.829   1.860   1.867   1.928   1.947   2.228   2.236
 33 A    34 A    35 A    36 A    37 A    38 A    39 A    40 A                  
  2.313   2.344   2.436   2.566   2.593   2.720   3.016   3.300
 41 A    42 A    43 A    44 A    45 A    46 A    47 A    48 A                  

 Beta MOs, Restricted
 -- Occupied --                  
-11.245 -11.243  -1.034  -0.766  -0.622  -0.583  -0.480  -0.384
  1 A     2 A     3 A     4 A     5 A     6 A     7 A     8 A                  
 -- Virtual --                   
  0.175   0.198   0.221   0.229   0.304   0.467   0.576   0.603
  9 A    10 A    11 A    12 A    13 A    14 A    15 A    16 A                  
  0.680   0.687   0.759   0.809   0.844   0.908   0.981   0.993
 17 A    18 A    19 A    20 A    21 A    22 A    23 A    24 A                  
  1.122   1.234   1.254   1.272   1.288   1.558   1.703   1.712
 25 A    26 A    27 A    28 A    29 A    30 A    31 A    32 A                  
  1.794   1.829   1.860   1.867   1.928   1.947   2.228   2.236
 33 A    34 A    35 A    36 A    37 A    38 A    39 A    40 A                  
  2.313   2.344   2.436   2.566   2.593   2.720   3.016   3.300
 41 A    42 A    43 A    44 A    45 A    46 A    47 A    48 A                  
  Import AO data ...  CPU 0.00 s  wall 0.00 s
  Using point group: C1
  Irreducible representations in point group: A
  Molecular orbitals: 
  Occupied MOs:
  Block   0:   1 (  A) A   2 (  A) A   3 (  A) A   4 (  A) A   5 (  A) A
                  -11.25      -11.24      -1.034     -0.7659     -0.6224
               6 (  A) A   7 (  A) A   8 (  A) A
                 -0.5827     -0.4799     -0.3837
  Block   1:   1 (  A) B   2 (  A) B   3 (  A) B   4 (  A) B   5 (  A) B
                  -11.25      -11.24      -1.034     -0.7659     -0.6224
               6 (  A) B   7 (  A) B   8 (  A) B
                 -0.5827     -0.4799     -0.3837
  Virtual MOs:
  Block   0:   9 (  A) A  10 (  A) A  11 (  A) A  12 (  A) A  13 (  A) A
                  0.1746      0.1985      0.2207      0.2291      0.3035
              14 (  A) A  15 (  A) A  16 (  A) A  17 (  A) A  18 (  A) A
                  0.4665      0.5755      0.6026      0.6801      0.6865
              19 (  A) A  20 (  A) A  21 (  A) A  22 (  A) A
                  0.7586      0.8092      0.8443      0.9077
  Block   1:  23 (  A) A  24 (  A) A  25 (  A) A  26 (  A) A  27 (  A) A
                  0.9815      0.9926       1.122       1.234       1.254
              28 (  A) A  29 (  A) A  30 (  A) A  31 (  A) A  32 (  A) A
                   1.272       1.288       1.558       1.703       1.712
              33 (  A) A  34 (  A) A  35 (  A) A  36 (  A) A
                   1.794       1.829        1.86       1.867
  Block   2:  37 (  A) A  38 (  A) A  39 (  A) A  40 (  A) A  41 (  A) A
                   1.928       1.947       2.228       2.236       2.313
              42 (  A) A  43 (  A) A  44 (  A) A  45 (  A) A  46 (  A) A
                   2.344       2.436       2.566       2.593        2.72
              47 (  A) A  48 (  A) A
                   3.016         3.3
  Block   3:   9 (  A) B  10 (  A) B  11 (  A) B  12 (  A) B  13 (  A) B
                  0.1746      0.1985      0.2207      0.2291      0.3035
              14 (  A) B  15 (  A) B  16 (  A) B  17 (  A) B  18 (  A) B
                  0.4665      0.5755      0.6026      0.6801      0.6865
              19 (  A) B  20 (  A) B  21 (  A) B  22 (  A) B
                  0.7586      0.8092      0.8443      0.9077
  Block   4:  23 (  A) B  24 (  A) B  25 (  A) B  26 (  A) B  27 (  A) B
                  0.9815      0.9926       1.122       1.234       1.254
              28 (  A) B  29 (  A) B  30 (  A) B  31 (  A) B  32 (  A) B
                   1.272       1.288       1.558       1.703       1.712
              33 (  A) B  34 (  A) B  35 (  A) B  36 (  A) B
                   1.794       1.829        1.86       1.867
  Block   5:  37 (  A) B  38 (  A) B  39 (  A) B  40 (  A) B  41 (  A) B
                   1.928       1.947       2.228       2.236       2.313
              42 (  A) B  43 (  A) B  44 (  A) B  45 (  A) B  46 (  A) B
                   2.344       2.436       2.566       2.593        2.72
              47 (  A) B  48 (  A) B
                   3.016         3.3
  Import MO data ...  CPU 0.08 s  wall 0.02 s
  Import HF data ...  CPU 0.79 s  wall 0.24 s
  Import 2e integrals ...  CPU 1.02 s  wall 0.18 s

--------------------------------------------------------------------------------
                                   HF Summary                                   
--------------------------------------------------------------------------------
  Energy:                                                  -78.0316434718 a.u.
  Dip. moment [a.u.]:                  [  -0.000010,    0.000008,    0.000017]
  Total dipole [Debye]:                                               0.000054
  <r^2> [a.u.]:                        [ 176.240623,   35.765240,   11.768001]
  Total <r^2> [a.u.]:                                               223.773864
--------------------------------------------------------------------------------
  HF properties ...  CPU 0.03 s  wall 0.02 s
  MP(1) calculation ...  CPU 0.01 s  wall 0.01 s
  N^6 prerequesite intermediates ...  CPU 0.59 s  wall 0.09 s
  Difference density matrix of state mp2_gs printed to ASCII file 'State_mp2_gs_Difference.txt'
Exporting MP density matrix to file 'Densmat_MP.txt'.
Export successful
  Total density matrix of state mp2_gs printed to ASCII file 'State_mp2_gs_Total.txt'
Exporting MP density matrix to file 'Densmat_MP.txt'.
Export successful

--------------------------------------------------------------------------------
                                 MP(2) Summary                                  
--------------------------------------------------------------------------------
  MP energy contribution:                                   -0.2814484344 a.u.
  Total energy:                                            -78.3130919062 a.u.
  Dip. moment [a.u.]:                  [  -0.000010,    0.000007,    0.000016]
  Total dipole [Debye]:                                               0.000052
  <r^2> [a.u.]:                        [ 176.267912,   35.788168,   11.601791]
  Total <r^2> [a.u.]:                                               223.657871

  Density matrix analysis:
  ------------------------
  NOs
    Occupation of frontier NOs:
       0.0434   1.9396
    Number of electrons: 16.000000
    Number of unpaired electrons: n_u =  0.41271, n_u,nl =  0.04590
    NO participation ratio (PR_NO): 14.261895
  
  
  Mulliken Population Analysis
  Atom      Charge (e)              h+              e-           Del q
  --------------------------------------------------------------------
   1 H        0.064960        0.013329       -0.011702        0.001628
   2 C       -0.129944        0.096882       -0.100136       -0.003253
   3 H        0.064979        0.013329       -0.011702        0.001627
   4 C       -0.129921        0.096877       -0.100134       -0.003257
   5 H        0.064972        0.013329       -0.011702        0.001628
   6 H        0.064953        0.013330       -0.011701        0.001629
  --------------------------------------------------------------------
  Sum:       -0.000000        0.247077       -0.247077       -0.000000
  
  Multipole moment analysis of the density matrix
    Molecular charge:                      -0.000000
    Number of electrons:                   16.000000
      Center of electronic charge [Ang]: [ -1.561339,  -0.065286,   0.002127]
    Total nuclear charge:                  16.000000
      Center of nuclear charge [Ang]:    [ -1.561339,  -0.065286,   0.002127]
    Dipole moment [D]:                     0.000052
      Cartesian components [D]:          [ -0.000025,   0.000018,   0.000042]
    RMS size of the density [Ang]:         1.213410
      Cartesian components [Ang]:        [  0.804502,   0.788730,   0.450608]
  
  Exciton analysis of the difference density matrix
    <r_h> [Ang]:                  [ -1.561332,  -0.065293,   0.002124]
    <r_e> [Ang]:                  [ -1.561333,  -0.065291,   0.002125]
    |<r_e - r_h>| [Ang]:            0.000002
    Hole size [Ang]:                1.413712
      Cartesian components [Ang]: [  0.867096,   0.854872,   0.718276]
    Electron size [Ang]:            1.366425
      Cartesian components [Ang]: [  0.884750,   0.869938,   0.572314]
--------------------------------------------------------------------------------
  MP(2) calculation ...  CPU 0.31 s  wall 0.20 s
  Start ADC(2)-s ...  CPU 0.02 s  wall 0.01 s
  ADC(2) intermediates ...  CPU 0.05 s  wall 0.01 s
  Starting Davidson for singlet states of irrep A ... 
--------------------------------------------------------------------------------
   It NVec Conv  Avg. Norm  Max. Norm  Conv. states           Remark
--------------------------------------------------------------------------------
        10    0  1.315e-01  4.680e-01  0.4147 n n n n n n n n Guess.
    1   20    0  4.616e-02  3.765e-01  0.3241 n n n n n n n n 
    2   30    0  8.454e-03  5.748e-02  0.3220 n n n n n n n n 
    3   40    0  3.118e-03  1.839e-02  0.3218 n n n n n n n n 
    4   50    0  2.453e-03  2.297e-02  0.3218 n n n n n n n n 
    5   20    0  9.063e-04  7.964e-03  0.3218 n n n n n n n n Subspace collapsed.
    6   30    0  2.686e-03  2.675e-02  0.3218 n n n n n n n n 
    7   40    0  9.528e-03  9.527e-02  0.3218 n n n n n n n n 
    8   50    0  2.502e-03  2.501e-02  0.3218 n n n n n n n n 
    9   20    1  1.223e-03  1.223e-02  0.3218 y n n n n n n n Subspace collapsed.
   10   30    3  4.688e-04  4.686e-03  0.3218 y n n y y n n n 
   11   40    4  1.641e-04  1.639e-03  0.3218 y n n y y y n n 
   12   50    6  7.703e-05  7.689e-04  0.3218 y y y y y y n n 
   13   20    6  9.822e-05  9.820e-04  0.3218 y y y y y y n n Subspace collapsed.
   14   30    6  1.377e-04  1.377e-03  0.3218 y y y y y y n n 
   15   40    6  1.107e-04  1.107e-03  0.3218 y y y y y y n n 
   16   50    7  5.961e-05  5.960e-04  0.3218 y y y y y y y n 
   17   20    7  2.634e-05  2.633e-04  0.3218 y y y y y y y n Subspace collapsed.
   18   30    8  1.660e-05  1.660e-04  0.3218 y y y y y y y y 
   19   40    8  8.802e-06  8.801e-05  0.3218 y y y y y y y y 
   20   49    9  4.312e-06  4.311e-05  0.3218 y y y y y y y y 
   21   50    9  4.295e-06  4.294e-05  0.3218 y y y y y y y y 
   22   19    9  5.121e-06  5.121e-05  0.3218 y y y y y y y y Subspace collapsed.
   23   28    9  6.365e-06  6.365e-05  0.3218 y y y y y y y y 
   24   36    9  5.860e-06  5.860e-05  0.3218 y y y y y y y y 
   25   44    9  3.903e-06  3.903e-05  0.3218 y y y y y y y y 
   26   50    9  1.588e-06  1.588e-05  0.3218 y y y y y y y y 
   27   15    9  7.486e-07  7.486e-06  0.3218 y y y y y y y y Subspace collapsed.
   28   20    9  4.645e-07  4.645e-06  0.3218 y y y y y y y y 
   29   25    9  3.599e-07  3.599e-06  0.3218 y y y y y y y y 
   30   30    9  2.026e-07  2.026e-06  0.3218 y y y y y y y y 
   31   35    9  1.166e-07  1.166e-06  0.3218 y y y y y y y y 
   32   40   10  7.822e-08  7.822e-07  0.3218 y y y y y y y y Converged.
--------------------------------------------------------------------------------
  Davidson Summary: 
 ------------------------------------------------------------
  State  0: excitation energy =   0.3218 a.u.   (converged)
  State  1: excitation energy =   0.3309 a.u.   (converged)
  State  2: excitation energy =   0.3349 a.u.   (converged)
  State  3: excitation energy =   0.3480 a.u.   (converged)
  State  4: excitation energy =   0.3702 a.u.   (converged)
  State  5: excitation energy =   0.3948 a.u.   (converged)
  State  6: excitation energy =   0.4013 a.u.   (converged)
  State  7: excitation energy =   0.4327 a.u.   (converged)
  State  8: excitation energy =   0.4428 a.u.   (converged)
  State  9: excitation energy =   0.4439 a.u.   (converged)
 ------------------------------------------------------------

  Singlet states of irrep A ...  CPU 201.94 s  wall 63.34 s
  TDMs ...  CPU 2.40 s  wall 0.87 s
  SDMs ...  CPU 4.53 s  wall 1.44 s
  Starting TPA DIIS iterations ... 
------------------------------------ 
   It     Res. Norm  Remark
------------------------------------
                       Guess.
    1     3.824e+00  
    2     4.887e+00  
    3     1.004e+00  
    4     2.457e-01  
    5     5.074e-02  
    6     2.385e-02  
    7     7.140e-03  
    8     1.681e-03  
    9     6.720e-04  
   10     1.066e-04  
   11     4.045e-05  
   12     5.911e-06  
   13     2.495e-06  
   14     6.008e-07  Converged.
   ... Converged in 14 steps (norm: 6.00791e-07)
------------------------------------
  Starting TPA DIIS iterations ... 
------------------------------------ 
   It     Res. Norm  Remark
------------------------------------
                       Guess.
    1     3.647e+00  
    2     4.648e+00  
    3     9.618e-01  
    4     2.439e-01  
    5     5.069e-02  
    6     2.382e-02  
    7     7.017e-03  
    8     1.687e-03  
    9     6.762e-04  
   10     1.056e-04  
   11     4.061e-05  
   12     5.925e-06  
   13     2.532e-06  
   14     6.033e-07  Converged.
   ... Converged in 14 steps (norm: 6.0328e-07)
------------------------------------
  Starting TPA DIIS iterations ... 
------------------------------------ 
   It     Res. Norm  Remark
------------------------------------
                       Guess.
    1     6.808e-01  
    2     4.581e-01  
    3     1.543e-01  
    4     5.145e-02  
    5     1.933e-02  
    6     6.974e-03  
    7     1.160e-03  
    8     4.568e-04  
    9     1.255e-04  
   10     3.275e-05  
   11     6.412e-06  
   12     2.949e-06  
   13     1.115e-06  
   14     4.906e-07  Converged.
   ... Converged in 14 steps (norm: 4.90612e-07)
------------------------------------
  Starting TPA DIIS iterations ... 
------------------------------------ 
   It     Res. Norm  Remark
------------------------------------
                       Guess.
    1     4.001e+00  
    2     5.195e+00  
    3     1.059e+00  
    4     2.654e-01  
    5     5.547e-02  
    6     2.640e-02  
    7     7.913e-03  
    8     1.870e-03  
    9     7.514e-04  
   10     1.198e-04  
   11     4.563e-05  
   12     6.717e-06  
   13     2.852e-06  
   14     6.864e-07  Converged.
   ... Converged in 14 steps (norm: 6.86417e-07)
------------------------------------
  Starting TPA DIIS iterations ... 
------------------------------------ 
   It     Res. Norm  Remark
------------------------------------
                       Guess.
    1     3.814e+00  
    2     4.940e+00  
    3     1.014e+00  
    4     2.632e-01  
    5     5.540e-02  
    6     2.638e-02  
    7     7.777e-03  
    8     1.879e-03  
    9     7.567e-04  
   10     1.187e-04  
   11     4.581e-05  
   12     6.731e-06  
   13     2.897e-06  
   14     6.904e-07  Converged.
   ... Converged in 14 steps (norm: 6.90374e-07)
------------------------------------
  Starting TPA DIIS iterations ... 
------------------------------------ 
   It     Res. Norm  Remark
------------------------------------
                       Guess.
    1     6.902e-01  
    2     4.699e-01  
    3     1.608e-01  
    4     5.607e-02  
    5     2.059e-02  
    6     7.427e-03  
    7     1.261e-03  
    8     5.127e-04  
    9     1.410e-04  
   10     3.638e-05  
   11     7.103e-06  
   12     3.364e-06  
   13     1.289e-06  
   14     5.740e-07  Converged.
   ... Converged in 14 steps (norm: 5.74008e-07)
------------------------------------
  Starting TPA DIIS iterations ... 
------------------------------------ 
   It     Res. Norm  Remark
------------------------------------
                       Guess.
    1     4.082e+00  
    2     5.338e+00  
    3     1.084e+00  
    4     2.747e-01  
    5     5.771e-02  
    6     2.762e-02  
    7     8.282e-03  
    8     1.961e-03  
    9     7.894e-04  
   10     1.261e-04  
   11     4.812e-05  
   12     7.108e-06  
   13     3.025e-06  
   14     7.281e-07  Converged.
   ... Converged in 14 steps (norm: 7.28111e-07)
------------------------------------
  Starting TPA DIIS iterations ... 
------------------------------------ 
   It     Res. Norm  Remark
------------------------------------
                       Guess.
    1     3.891e+00  
    2     5.076e+00  
    3     1.038e+00  
    4     2.724e-01  
    5     5.764e-02  
    6     2.760e-02  
    7     8.139e-03  
    8     1.971e-03  
    9     7.952e-04  
   10     1.250e-04  
   11     4.831e-05  
   12     7.121e-06  
   13     3.075e-06  
   14     7.329e-07  Converged.
   ... Converged in 14 steps (norm: 7.32922e-07)
------------------------------------
  Starting TPA DIIS iterations ... 
------------------------------------ 
   It     Res. Norm  Remark
------------------------------------
                       Guess.
    1     6.943e-01  
    2     4.753e-01  
    3     1.637e-01  
    4     5.828e-02  
    5     2.115e-02  
    6     7.639e-03  
    7     1.309e-03  
    8     5.404e-04  
    9     1.487e-04  
   10     3.809e-05  
   11     7.437e-06  
   12     3.568e-06  
   13     1.376e-06  
   14     6.155e-07  Converged.
   ... Converged in 14 steps (norm: 6.15501e-07)
------------------------------------
  Starting TPA DIIS iterations ... 
------------------------------------ 
   It     Res. Norm  Remark
------------------------------------
                       Guess.
    1     4.366e+00  
    2     5.845e+00  
    3     1.171e+00  
    4     3.086e-01  
    5     6.583e-02  
    6     3.208e-02  
    7     9.625e-03  
    8     2.292e-03  
    9     9.289e-04  
   10     1.494e-04  
   11     5.733e-05  
   12     8.558e-06  
   13     3.675e-06  
   14     8.849e-07  Converged.
   ... Converged in 14 steps (norm: 8.84932e-07)
------------------------------------
  Starting TPA DIIS iterations ... 
------------------------------------ 
   It     Res. Norm  Remark
------------------------------------
                       Guess.
    1     4.161e+00  
    2     5.558e+00  
    3     1.121e+00  
    4     3.055e-01  
    5     6.574e-02  
    6     3.206e-02  
    7     9.461e-03  
    8     2.307e-03  
    9     9.366e-04  
   10     1.481e-04  
   11     5.754e-05  
   12     8.569e-06  
   13     3.741e-06  
   14     8.937e-07  Converged.
   ... Converged in 14 steps (norm: 8.93739e-07)
------------------------------------
  Starting TPA DIIS iterations ... 
------------------------------------ 
   It     Res. Norm  Remark
------------------------------------
                       Guess.
    1     7.082e-01  
    2     4.935e-01  
    3     1.739e-01  
    4     6.639e-02  
    5     2.310e-02  
    6     8.393e-03  
    7     1.484e-03  
    8     6.466e-04  
    9     1.779e-04  
   10     4.415e-05  
   11     8.674e-06  
   12     4.337e-06  
   13     1.711e-06  
   14     7.761e-07  Converged.
   ... Converged in 14 steps (norm: 7.76097e-07)
------------------------------------
  Starting TPA DIIS iterations ... 
------------------------------------ 
   It     Res. Norm  Remark
------------------------------------
                       Guess.
    1     4.937e+00  
    2     6.893e+00  
    3     1.346e+00  
    4     3.820e-01  
    5     8.341e-02  
    6     4.190e-02  
    7     1.257e-02  
    8     3.019e-03  
    9     1.238e-03  
   10     2.012e-04  
   11     7.793e-05  
   12     1.185e-05  
   13     5.164e-06  
   14     1.256e-06  
   15     4.249e-07  Converged.
   ... Converged in 15 steps (norm: 4.24942e-07)
------------------------------------
  Starting TPA DIIS iterations ... 
------------------------------------ 
   It     Res. Norm  Remark
------------------------------------
                       Guess.
    1     4.702e+00  
    2     6.553e+00  
    3     1.288e+00  
    4     3.772e-01  
    5     8.326e-02  
    6     4.192e-02  
    7     1.236e-02  
    8     3.045e-03  
    9     1.251e-03  
   10     1.997e-04  
   11     7.817e-05  
   12     1.186e-05  
   13     5.271e-06  
   14     1.278e-06  
   15     4.418e-07  Converged.
   ... Converged in 15 steps (norm: 4.41762e-07)
------------------------------------
  Starting TPA DIIS iterations ... 
------------------------------------ 
   It     Res. Norm  Remark
------------------------------------
                       Guess.
    1     7.332e-01  
    2     5.278e-01  
    3     1.938e-01  
    4     8.444e-02  
    5     2.684e-02  
    6     9.985e-03  
    7     1.871e-03  
    8     9.036e-04  
    9     2.467e-04  
   10     5.600e-05  
   11     1.152e-05  
   12     6.132e-06  
   13     2.547e-06  
   14     1.174e-06  
   15     3.614e-07  Converged.
   ... Converged in 15 steps (norm: 3.61371e-07)
------------------------------------
  Starting TPA DIIS iterations ... 
------------------------------------ 
   It     Res. Norm  Remark
------------------------------------
                       Guess.
    1     5.726e+00  
    2     8.402e+00  
    3     1.586e+00  
    4     4.949e-01  
    5     1.103e-01  
    6     5.732e-02  
    7     1.715e-02  
    8     4.152e-03  
    9     1.726e-03  
   10     2.835e-04  
   11     1.102e-04  
   12     1.718e-05  
   13     7.519e-06  
   14     1.905e-06  
   15     6.350e-07  Converged.
   ... Converged in 15 steps (norm: 6.35018e-07)
------------------------------------
  Starting TPA DIIS iterations ... 
------------------------------------ 
   It     Res. Norm  Remark
------------------------------------
                       Guess.
    1     5.450e+00  
    2     7.985e+00  
    3     1.516e+00  
    4     4.872e-01  
    5     1.101e-01  
    6     5.739e-02  
    7     1.687e-02  
    8     4.198e-03  
    9     1.746e-03  
   10     2.815e-04  
   11     1.104e-04  
   12     1.717e-05  
   13     7.700e-06  
   14     1.962e-06  
   15     6.680e-07  Converged.
   ... Converged in 15 steps (norm: 6.67985e-07)
------------------------------------
  Starting TPA DIIS iterations ... 
------------------------------------ 
   It     Res. Norm  Remark
------------------------------------
                       Guess.
    1     7.629e-01  
    2     5.714e-01  
    3     2.201e-01  
    4     1.130e-01  
    5     3.188e-02  
    6     1.238e-02  
    7     2.496e-03  
    8     1.339e-03  
    9     3.564e-04  
   10     7.066e-05  
   11     1.635e-05  
   12     9.075e-06  
   13     4.057e-06  
   14     1.876e-06  
   15     6.308e-07  Converged.
   ... Converged in 15 steps (norm: 6.30848e-07)
------------------------------------
  Starting TPA DIIS iterations ... 
------------------------------------ 
   It     Res. Norm  Remark
------------------------------------
                       Guess.
    1     5.968e+00  
    2     8.878e+00  
    3     1.659e+00  
    4     5.320e-01  
    5     1.191e-01  
    6     6.245e-02  
    7     1.866e-02  
    8     4.526e-03  
    9     1.889e-03  
   10     3.110e-04  
   11     1.207e-04  
   12     1.899e-05  
   13     8.281e-06  
   14     2.139e-06  
   15     7.079e-07  Converged.
   ... Converged in 15 steps (norm: 7.07892e-07)
------------------------------------
  Starting TPA DIIS iterations ... 
------------------------------------ 
   It     Res. Norm  Remark
------------------------------------
                       Guess.
    1     5.680e+00  
    2     8.437e+00  
    3     1.585e+00  
    4     5.232e-01  
    5     1.188e-01  
    6     6.253e-02  
    7     1.836e-02  
    8     4.580e-03  
    9     1.912e-03  
   10     3.089e-04  
   11     1.209e-04  
   12     1.898e-05  
   13     8.490e-06  
   14     2.211e-06  
   15     7.475e-07  Converged.
   ... Converged in 15 steps (norm: 7.4753e-07)
------------------------------------
  Starting TPA DIIS iterations ... 
------------------------------------ 
   It     Res. Norm  Remark
------------------------------------
                       Guess.
    1     7.711e-01  
    2     5.840e-01  
    3     2.279e-01  
    4     1.225e-01  
    5     3.344e-02  
    6     1.317e-02  
    7     2.710e-03  
    8     1.485e-03  
    9     3.918e-04  
   10     7.481e-05  
   11     1.804e-05  
   12     1.006e-05  
   13     4.586e-06  
   14     2.122e-06  
   15     7.194e-07  Converged.
   ... Converged in 15 steps (norm: 7.19387e-07)
------------------------------------
  Starting TPA DIIS iterations ... 
------------------------------------ 
   It     Res. Norm  Remark
------------------------------------
                       Guess.
    1     7.425e+00  
    2     1.186e+01  
    3     2.092e+00  
    4     7.766e-01  
    5     1.769e-01  
    6     9.689e-02  
    7     2.873e-02  
    8     7.023e-03  
    9     2.985e-03  
   10     4.966e-04  
   11     1.865e-04  
   12     3.224e-05  
   13     1.308e-05  
   14     3.904e-06  
   15     1.384e-06  
   16     4.955e-07  Converged.
   ... Converged in 16 steps (norm: 4.95487e-07)
------------------------------------
  Starting TPA DIIS iterations ... 
------------------------------------ 
   It     Res. Norm  Remark
------------------------------------
                       Guess.
    1     7.062e+00  
    2     1.127e+01  
    3     1.997e+00  
    4     7.600e-01  
    5     1.765e-01  
    6     9.712e-02  
    7     2.829e-02  
    8     7.130e-03  
    9     3.026e-03  
   10     4.936e-04  
   11     1.868e-04  
   12     3.214e-05  
   13     1.351e-05  
   14     4.111e-06  
   15     1.489e-06  
   16     5.775e-07  Converged.
   ... Converged in 16 steps (norm: 5.77491e-07)
------------------------------------
  Starting TPA DIIS iterations ... 
------------------------------------ 
   It     Res. Norm  Remark
------------------------------------
                       Guess.
    1     8.137e-01  
    2     6.538e-01  
    3     2.730e-01  
    4     1.853e-01  
    5     4.316e-02  
    6     1.837e-02  
    7     4.231e-03  
    8     2.379e-03  
    9     6.069e-04  
   10     9.990e-05  
   11     3.055e-05  
   12     1.645e-05  
   13     7.699e-06  
   14     3.782e-06  
   15     1.208e-06  
   16     3.990e-07  Converged.
   ... Converged in 16 steps (norm: 3.98966e-07)
------------------------------------
  Starting TPA DIIS iterations ... 
------------------------------------ 
   It     Res. Norm  Remark
------------------------------------
                       Guess.
    1     8.019e+00  
    2     1.313e+01  
    3     2.267e+00  
    4     8.855e-01  
    5     2.027e-01  
    6     1.126e-01  
    7     3.328e-02  
    8     8.151e-03  
    9     3.484e-03  
   10     5.814e-04  
   11     2.138e-04  
   12     3.921e-05  
   13     1.530e-05  
   14     4.814e-06  
   15     1.882e-06  
   16     6.715e-07  Converged.
   ... Converged in 16 steps (norm: 6.71452e-07)
------------------------------------
  Starting TPA DIIS iterations ... 
------------------------------------ 
   It     Res. Norm  Remark
------------------------------------
                       Guess.
    1     7.626e+00  
    2     1.247e+01  
    3     2.163e+00  
    4     8.651e-01  
    5     2.022e-01  
    6     1.129e-01  
    7     3.278e-02  
    8     8.284e-03  
    9     3.534e-03  
   10     5.779e-04  
   11     2.144e-04  
   12     3.900e-05  
   13     1.584e-05  
   14     5.107e-06  
   15     2.027e-06  
   16     7.824e-07  Converged.
   ... Converged in 16 steps (norm: 7.82394e-07)
------------------------------------
  Starting TPA DIIS iterations ... 
------------------------------------ 
   It     Res. Norm  Remark
------------------------------------
                       Guess.
    1     8.285e-01  
    2     6.800e-01  
    3     2.905e-01  
    4     2.128e-01  
    5     4.734e-02  
    6     2.072e-02  
    7     4.963e-03  
    8     2.709e-03  
    9     6.932e-04  
   10     1.115e-04  
   11     3.681e-05  
   12     1.912e-05  
   13     8.513e-06  
   14     4.456e-06  
   15     1.313e-06  
   16     5.420e-07  Converged.
   ... Converged in 16 steps (norm: 5.42015e-07)
------------------------------------
  Starting TPA DIIS iterations ... 
------------------------------------ 
   It     Res. Norm  Remark
------------------------------------
                       Guess.
    1     8.089e+00  
    2     1.328e+01  
    3     2.287e+00  
    4     8.986e-01  
    5     2.059e-01  
    6     1.145e-01  
    7     3.383e-02  
    8     8.287e-03  
    9     3.545e-03  
   10     5.917e-04  
   11     2.171e-04  
   12     4.010e-05  
   13     1.558e-05  
   14     4.929e-06  
   15     1.950e-06  
   16     6.944e-07  Converged.
   ... Converged in 16 steps (norm: 6.94375e-07)
------------------------------------
  Starting TPA DIIS iterations ... 
------------------------------------ 
   It     Res. Norm  Remark
------------------------------------
                       Guess.
    1     7.693e+00  
    2     1.261e+01  
    3     2.182e+00  
    4     8.778e-01  
    5     2.053e-01  
    6     1.148e-01  
    7     3.332e-02  
    8     8.423e-03  
    9     3.596e-03  
   10     5.881e-04  
   11     2.177e-04  
   12     3.988e-05  
   13     1.613e-05  
   14     5.235e-06  
   15     2.101e-06  
   16     8.089e-07  Converged.
   ... Converged in 16 steps (norm: 8.08944e-07)
------------------------------------
  Starting TPA DIIS iterations ... 
------------------------------------ 
   It     Res. Norm  Remark
------------------------------------
                       Guess.
    1     8.302e-01  
    2     6.830e-01  
    3     2.926e-01  
    4     2.161e-01  
    5     4.784e-02  
    6     2.101e-02  
    7     5.053e-03  
    8     2.745e-03  
    9     7.033e-04  
   10     1.130e-04  
   11     3.760e-05  
   12     1.943e-05  
   13     8.579e-06  
   14     4.530e-06  
   15     1.318e-06  
   16     5.612e-07  Converged.
   ... Converged in 16 steps (norm: 5.61232e-07)
------------------------------------
  Two-photon absorbption ...  CPU 161.72 s  wall 43.19 s
  Transition density matrix of state singlet_A_1 printed to ASCII file 'State_singlet_A_1_Transition.txt'
  Transition density matrix of state singlet_A_2 printed to ASCII file 'State_singlet_A_2_Transition.txt'
  Transition density matrix of state singlet_A_3 printed to ASCII file 'State_singlet_A_3_Transition.txt'
  Transition density matrix of state singlet_A_4 printed to ASCII file 'State_singlet_A_4_Transition.txt'
  Transition density matrix of state singlet_A_5 printed to ASCII file 'State_singlet_A_5_Transition.txt'
  Transition density matrix of state singlet_A_6 printed to ASCII file 'State_singlet_A_6_Transition.txt'
  Transition density matrix of state singlet_A_7 printed to ASCII file 'State_singlet_A_7_Transition.txt'
  Transition density matrix of state singlet_A_8 printed to ASCII file 'State_singlet_A_8_Transition.txt'
  Transition density matrix of state singlet_A_9 printed to ASCII file 'State_singlet_A_9_Transition.txt'
  Transition density matrix of state singlet_A_10 printed to ASCII file 'State_singlet_A_10_Transition.txt'
  Transition properties ...  CPU 0.34 s  wall 0.52 s
  Difference density matrix of state singlet_A_1 printed to ASCII file 'State_singlet_A_1_Difference.txt'
  Total density matrix of state singlet_A_1 printed to ASCII file 'State_singlet_A_1_Total.txt'
  Difference density matrix of state singlet_A_2 printed to ASCII file 'State_singlet_A_2_Difference.txt'
  Total density matrix of state singlet_A_2 printed to ASCII file 'State_singlet_A_2_Total.txt'
  Difference density matrix of state singlet_A_3 printed to ASCII file 'State_singlet_A_3_Difference.txt'
  Total density matrix of state singlet_A_3 printed to ASCII file 'State_singlet_A_3_Total.txt'
  Difference density matrix of state singlet_A_4 printed to ASCII file 'State_singlet_A_4_Difference.txt'
  Total density matrix of state singlet_A_4 printed to ASCII file 'State_singlet_A_4_Total.txt'
  Difference density matrix of state singlet_A_5 printed to ASCII file 'State_singlet_A_5_Difference.txt'
  Total density matrix of state singlet_A_5 printed to ASCII file 'State_singlet_A_5_Total.txt'
  Difference density matrix of state singlet_A_6 printed to ASCII file 'State_singlet_A_6_Difference.txt'
  Total density matrix of state singlet_A_6 printed to ASCII file 'State_singlet_A_6_Total.txt'
  Difference density matrix of state singlet_A_7 printed to ASCII file 'State_singlet_A_7_Difference.txt'
  Total density matrix of state singlet_A_7 printed to ASCII file 'State_singlet_A_7_Total.txt'
  Difference density matrix of state singlet_A_8 printed to ASCII file 'State_singlet_A_8_Difference.txt'
  Total density matrix of state singlet_A_8 printed to ASCII file 'State_singlet_A_8_Total.txt'
  Difference density matrix of state singlet_A_9 printed to ASCII file 'State_singlet_A_9_Difference.txt'
  Total density matrix of state singlet_A_9 printed to ASCII file 'State_singlet_A_9_Total.txt'
  Difference density matrix of state singlet_A_10 printed to ASCII file 'State_singlet_A_10_Difference.txt'
  Total density matrix of state singlet_A_10 printed to ASCII file 'State_singlet_A_10_Total.txt'
  Properties ...  CPU 0.62 s  wall 0.98 s
  ISR TDMS ...  CPU 34.70 s  wall 10.74 s
  ISR transition properties ...  CPU 0.63 s  wall 0.29 s
  Sum-over-states TPA ...  CPU 0.00 s  wall 0.00 s

--------------------------------------------------------------------------------
                   State-averaged natural transition orbitals
--------------------------------------------------------------------------------
--------------------------------------------------------------------------------
  SA-NTO decomposition ...  CPU 0.01 s  wall 0.03 s

--------------------------------------------------------------------------------
                             Excited State Summary
--------------------------------------------------------------------------------
--------------------------------------------------------------------------------

  Excited state 1 (singlet, A)                                     [converged]
  ----------------------------------------------------------------------------
  Term symbol:  2 (1) A                                     R^2 =  8.16881e-13

  Total energy:                                            -77.9913251889 a.u.
  Excitation energy:                                               8.755718 eV

  Osc. strength:                                                      0.000000
  Trans. dip. moment [a.u.]:           [  -0.000393,    0.000395,    0.000001]
  <i|r^2|0> [a.u.]:                    [   0.064813,    0.088580,   -0.155615]
  Two-photon absorption cross-section (SoS) [a.u.]:                  19.692926
  Two-photon absorption matrix (SoS) [a.u.]:
                                       |    0.103685    0.119232   -1.068777 |
                                       |    0.119232    0.136116   -1.123265 |
                                       |   -1.068777   -1.123265   -0.239802 |
  Two-photon absorption cross-section [a.u.]:                         0.571278
  Two-photon absorption matrix [a.u.]:
                                       |   -0.016730   -0.020254    0.181497 |
                                       |   -0.020254   -0.024124    0.191815 |
                                       |    0.181497    0.191815    0.040853 |

  Dip. moment [a.u.]:                  [   0.000004,   -0.000000,    0.000036]
  Total dipole [Debye]:                                               0.000091
  <r^2> [a.u.]:                        [ 175.366608,   34.835267,   13.263581]
  Total <r^2> [a.u.]:                                               223.465456

  V1^2 = 0.9547, V2^2 = 0.0453

  Important amplitudes:
      occ i     occ j     vir a      vir b          v   
    -----------------------------------------------------
     7 (A) A              9 (A) A                -0.6609
     8 (A) A             11 (A) A                 0.1821
     7 (A) A             20 (A) A                -0.0751
     8 (A) A             16 (A) A                 0.0322
     5 (A) A   8 (A) B    9 (A) A    9 (A) B      0.0294
     8 (A) A             21 (A) A                -0.0201
     5 (A) A             28 (A) A                 0.0148
     4 (A) A   7 (A) B    9 (A) A   19 (A) B      0.0135
     5 (A) A   7 (A) B    9 (A) A   16 (A) B     -0.0132
     7 (A) A   8 (A) B   20 (A) A   17 (A) B      0.0106
     7 (A) A   8 (A) A    9 (A) A   28 (A) A     -0.0096
     6 (A) A   7 (A) B    9 (A) A   18 (A) B     -0.0092
     5 (A) A   8 (A) B    9 (A) A   20 (A) B      0.0090
     4 (A) A   6 (A) B    9 (A) A   16 (A) B      0.0089
     4 (A) A   5 (A) A    9 (A) A   10 (A) A     -0.0087
     5 (A) A   6 (A) A    9 (A) A   23 (A) A     -0.0086
     8 (A) A   7 (A) B    9 (A) A   28 (A) B      0.0084
     5 (A) A   6 (A) A    9 (A) A   14 (A) A     -0.0080
     5 (A) A   6 (A) B    9 (A) A   23 (A) B     -0.0079
     4 (A) A   7 (A) B   19 (A) A    9 (A) B      0.0077
     3 (A) A   7 (A) B    9 (A) A   18 (A) B     -0.0076
     5 (A) A   6 (A) B    9 (A) A   19 (A) B     -0.0074
     4 (A) A   8 (A) B    9 (A) A   25 (A) B     -0.0074
     5 (A) A   7 (A) A    9 (A) A   16 (A) A     -0.0074
     5 (A) A   5 (A) B    9 (A) A   13 (A) B      0.0073
     7 (A) A   8 (A) B   17 (A) A   20 (A) B      0.0072
     4 (A) A   5 (A) B    9 (A) A   18 (A) B      0.0071
     7 (A) A   8 (A) B   19 (A) A   18 (A) B     -0.0067
     5 (A) A   7 (A) B   11 (A) A   20 (A) B     -0.0066
     7 (A) A   7 (A) B   20 (A) A   22 (A) B     -0.0066
     5 (A) A   8 (A) A    9 (A) A   20 (A) A      0.0065
     6 (A) A   7 (A) B   18 (A) A    9 (A) B     -0.0064
     4 (A) A   6 (A) B   16 (A) A    9 (A) B      0.0060
     4 (A) A   7 (A) B    9 (A) A   14 (A) B     -0.0060
     7 (A) A   7 (A) B   13 (A) A   20 (A) B     -0.0059
     5 (A) A             38 (A) A                 0.0059
     4 (A) A   7 (A) A    9 (A) A   19 (A) A      0.0058
     5 (A) A   7 (A) A   11 (A) A   20 (A) A     -0.0057
     4 (A) A   8 (A) A    9 (A) A   25 (A) A     -0.0056
     6 (A) A   7 (A) A   15 (A) A   20 (A) A     -0.0052
    -----------------------------------------------------

  Density matrix analysis:
  ------------------------
  NOs
    Occupation of frontier NOs:
       0.9327   1.0744
    Number of electrons: 16.000000
    Number of unpaired electrons: n_u =  2.36431, n_u,nl =  2.08241
    NO participation ratio (PR_NO):  3.185934
  
  
  Mulliken Population Analysis
  Atom      Charge (e)              h+              e-           Del q
  --------------------------------------------------------------------
   1 H        0.160305        0.124636       -0.029292        0.095345
   2 C       -0.320698        0.271481       -0.462235       -0.190754
   3 H        0.160393        0.124753       -0.029338        0.095414
   4 C       -0.320679        0.271475       -0.462234       -0.190759
   5 H        0.160386        0.124747       -0.029334        0.095414
   6 H        0.160294        0.124634       -0.029294        0.095340
  --------------------------------------------------------------------
  Sum:       -0.000000        1.041726       -1.041726        0.000000
  
  Multipole moment analysis of the density matrix
    Molecular charge:                      -0.000000
    Number of electrons:                   16.000000
      Center of electronic charge [Ang]: [ -1.561340,  -0.065286,   0.002126]
    Total nuclear charge:                  16.000000
      Center of nuclear charge [Ang]:    [ -1.561339,  -0.065286,   0.002127]
    Dipole moment [D]:                     0.000091
      Cartesian components [D]:          [  0.000010,  -0.000001,   0.000091]
    RMS size of the density [Ang]:         1.212021
      Cartesian components [Ang]:        [  0.794636,   0.778085,   0.481801]
  
  Exciton analysis of the difference density matrix
    <r_h> [Ang]:                  [ -1.561334,  -0.065297,   0.002129]
    <r_e> [Ang]:                  [ -1.561341,  -0.065293,   0.002119]
    |<r_e - r_h>| [Ang]:            0.000013
    Hole size [Ang]:                1.519881
      Cartesian components [Ang]: [  1.027916,   1.016284,   0.469675]
    Electron size [Ang]:            1.502762
      Cartesian components [Ang]: [  0.902390,   0.881295,   0.816887]

  Transition density matrix analysis:
  -----------------------------------
  
  CT numbers (Mulliken)
    omega =     0.9222
    <Phe> =    -0.0077
  
  Exciton analysis of the transition density matrix
    Trans. dipole moment [D]:             0.000708
      Cartesian components [D]:         [ -0.000500,   0.000502,   0.000001]
    <r_h> [Ang]:                        [ -1.561334,  -0.065298,   0.002131]
    <r_e> [Ang]:                        [ -1.561341,  -0.065292,   0.002116]
    |<r_e - r_h>| [Ang]:                  0.000017
    Hole size [Ang]:                      1.553031
      Cartesian components [Ang]:       [  1.053165,   1.041536,   0.466855]
    Electron size [Ang]:                  1.494497
      Cartesian components [Ang]:       [  0.888906,   0.867044,   0.831625]
    RMS electron-hole separation [Ang]:   2.135582
      Cartesian components [Ang]:       [  1.362395,   1.340438,   0.952795]
    Covariance(r_h, r_e) [Ang^2]:         0.042358
    Correlation coefficient:              0.018250
    Center-of-mass size [Ang]:            1.087444
      Cartesian components [Ang]:       [  0.696868,   0.684900,   0.477307]

  Decomposition into state-averaged NTOs
    H- 1 -> L+ 0:  0.6534 ( 85.4%)
    H- 0 -> L+ 2: -0.1819 (  6.6%)
                   omega =  92.2%
  ----------------------------------------------------------------------------


  Excited state 2 (singlet, A)                                     [converged]
  ----------------------------------------------------------------------------
  Term symbol:  3 (1) A                                     R^2 =  3.84478e-13

  Total energy:                                            -77.9821527511 a.u.
  Excitation energy:                                               9.005312 eV

  Osc. strength:                                                      0.458956
  Trans. dip. moment [a.u.]:           [   1.045775,   -0.993227,   -0.009835]
  <i|r^2|0> [a.u.]:                    [   6.171134,   -0.245063,    0.000017]
  Two-photon absorption cross-section (SoS) [a.u.]:                   0.000015
  Two-photon absorption matrix (SoS) [a.u.]:
                                       |    0.000185    0.000060   -0.000969 |
                                       |    0.000060    0.000117   -0.000932 |
                                       |   -0.000969   -0.000932   -0.000131 |
  Two-photon absorption cross-section [a.u.]:                         0.000002
  Two-photon absorption matrix [a.u.]:
                                       |    0.000062   -0.000023   -0.000360 |
                                       |   -0.000023   -0.000007   -0.000280 |
                                       |   -0.000360   -0.000280    0.000011 |

  Dip. moment [a.u.]:                  [  -0.000009,    0.000006,    0.000017]
  Total dipole [Debye]:                                               0.000052
  <r^2> [a.u.]:                        [ 177.013985,   36.472973,   12.059019]
  Total <r^2> [a.u.]:                                               225.545977

  V1^2 = 0.9707, V2^2 = 0.0293

  Important amplitudes:
      occ i     occ j     vir a      vir b          v   
    -----------------------------------------------------
     8 (A) A              9 (A) A                 0.6801
     4 (A) A             10 (A) A                -0.0686
     7 (A) A             16 (A) A                 0.0592
     5 (A) A             13 (A) A                -0.0585
     6 (A) A             14 (A) A                 0.0546
     6 (A) A             23 (A) A                 0.0478
     8 (A) A             20 (A) A                 0.0339
     3 (A) A             12 (A) A                 0.0286
     5 (A) A             22 (A) A                -0.0237
     6 (A) A             19 (A) A                 0.0230
     6 (A) A             12 (A) A                 0.0226
     4 (A) A             24 (A) A                -0.0196
     3 (A) A             27 (A) A                 0.0192
     8 (A) A   8 (A) B   17 (A) A   20 (A) B     -0.0181
     7 (A) A             21 (A) A                 0.0175
     8 (A) A   8 (A) B    9 (A) A   28 (A) B     -0.0166
     6 (A) A             27 (A) A                -0.0163
     3 (A) A             14 (A) A                -0.0144
     3 (A) A   4 (A) B    9 (A) A    9 (A) B      0.0128
     3 (A) A             19 (A) A                -0.0114
     7 (A) A             11 (A) A                -0.0104
     7 (A) A             32 (A) A                 0.0103
     8 (A) A   8 (A) B   18 (A) A   19 (A) B      0.0101
     3 (A) A             23 (A) A                -0.0091
     7 (A) A             36 (A) A                -0.0084
     5 (A) A   8 (A) B   11 (A) A    9 (A) B     -0.0077
     8 (A) A   8 (A) B   25 (A) A   29 (A) B      0.0074
     5 (A) A             26 (A) A                -0.0068
     6 (A) A             34 (A) A                -0.0067
     7 (A) A   8 (A) B   13 (A) A   20 (A) B      0.0063
     6 (A) A             40 (A) A                -0.0063
     3 (A) A   6 (A) B    9 (A) A   28 (A) B      0.0062
     5 (A) A   8 (A) B   11 (A) A   20 (A) B      0.0062
     5 (A) A   8 (A) A    9 (A) A   11 (A) A      0.0062
     5 (A) A   8 (A) B   16 (A) A    9 (A) B     -0.0061
     5 (A) A   7 (A) B    9 (A) A    9 (A) B     -0.0060
     6 (A) A   8 (A) B   15 (A) A    9 (A) B     -0.0059
     3 (A) A   5 (A) B    9 (A) A   25 (A) B     -0.0059
     7 (A) A   8 (A) B   22 (A) A   20 (A) B      0.0058
     4 (A) A   8 (A) B   12 (A) A   20 (A) B      0.0058
    -----------------------------------------------------

  Density matrix analysis:
  ------------------------
  NOs
    Occupation of frontier NOs:
       0.9470   1.0238
    Number of electrons: 16.000000
    Number of unpaired electrons: n_u =  2.32566, n_u,nl =  2.03485
    NO participation ratio (PR_NO):  2.907115
  
  
  Mulliken Population Analysis
  Atom      Charge (e)              h+              e-           Del q
  --------------------------------------------------------------------
   1 H        0.074683        0.022076       -0.012354        0.009722
   2 C       -0.149390        0.492216       -0.511662       -0.019446
   3 H        0.074703        0.022079       -0.012355        0.009724
   4 C       -0.149368        0.492215       -0.511662       -0.019447
   5 H        0.074697        0.022079       -0.012355        0.009724
   6 H        0.074676        0.022076       -0.012354        0.009722
  --------------------------------------------------------------------
  Sum:       -0.000000        1.072742       -1.072742       -0.000000
  
  Multipole moment analysis of the density matrix
    Molecular charge:                      0.000000
    Number of electrons:                   16.000000
      Center of electronic charge [Ang]: [ -1.561339,  -0.065286,   0.002126]
    Total nuclear charge:                  16.000000
      Center of nuclear charge [Ang]:    [ -1.561339,  -0.065286,   0.002127]
    Dipole moment [D]:                     0.000052
      Cartesian components [D]:          [ -0.000022,   0.000016,   0.000044]
    RMS size of the density [Ang]:         1.226952
      Cartesian components [Ang]:        [  0.812576,   0.796291,   0.459402]
  
  Exciton analysis of the difference density matrix
    <r_h> [Ang]:                  [ -1.561338,  -0.065286,   0.002119]
    <r_e> [Ang]:                  [ -1.561338,  -0.065285,   0.002118]
    |<r_e - r_h>| [Ang]:            0.000001
    Hole size [Ang]:                1.288222
      Cartesian components [Ang]: [  0.733039,   0.718190,   0.778700]
    Electron size [Ang]:            1.467101
      Cartesian components [Ang]: [  0.855628,   0.833401,   0.851897]

  Transition density matrix analysis:
  -----------------------------------
  
  CT numbers (Mulliken)
    omega =     0.9518
    <Phe> =    -0.1496
  
  Exciton analysis of the transition density matrix
    Trans. dipole moment [D]:             1.832986
      Cartesian components [D]:         [  1.329048,  -1.262265,  -0.012499]
    <r_h> [Ang]:                        [ -1.561338,  -0.065286,   0.002120]
    <r_e> [Ang]:                        [ -1.561338,  -0.065285,   0.002116]
    |<r_e - r_h>| [Ang]:                  0.000004
    Hole size [Ang]:                      1.203160
      Cartesian components [Ang]:       [  0.642470,   0.630142,   0.798591]
    Electron size [Ang]:                  1.493908
      Cartesian components [Ang]:       [  0.867984,   0.844147,   0.875090]
    RMS electron-hole separation [Ang]:   1.928405
      Cartesian components [Ang]:       [  1.098521,   1.068898,   1.170236]
    Covariance(r_h, r_e) [Ang^2]:        -0.019694
    Correlation coefficient:             -0.010957
    Center-of-mass size [Ang]:            0.953935
      Cartesian components [Ang]:       [  0.530466,   0.518840,   0.599501]

  Decomposition into state-averaged NTOs
    H- 0 -> L+ 0: -0.6690 ( 89.5%)
    H- 2 -> L+ 5:  0.0762 (  1.2%)
                   omega =  95.2%
  ----------------------------------------------------------------------------


  Excited state 3 (singlet, A)                                     [converged]
  ----------------------------------------------------------------------------
  Term symbol:  4 (1) A                                     R^2 =  4.99696e-13

  Total energy:                                            -77.9781443053 a.u.
  Excitation energy:                                               9.114388 eV

  Osc. strength:                                                      0.017195
  Trans. dip. moment [a.u.]:           [   0.012705,    0.017268,   -0.276665]
  <i|r^2|0> [a.u.]:                    [   0.074683,    0.004523,    0.002232]
  Two-photon absorption cross-section (SoS) [a.u.]:                   0.000026
  Two-photon absorption matrix (SoS) [a.u.]:
                                       |   -0.001731   -0.000102   -0.000108 |
                                       |   -0.000102    0.001868   -0.000036 |
                                       |   -0.000108   -0.000036    0.000107 |
  Two-photon absorption cross-section [a.u.]:                         0.000015
  Two-photon absorption matrix [a.u.]:
                                       |   -0.001230   -0.000112   -0.000132 |
                                       |   -0.000112    0.001444    0.000005 |
                                       |   -0.000132    0.000005    0.000051 |

  Dip. moment [a.u.]:                  [  -0.000156,    0.000334,   -0.000008]
  Total dipole [Debye]:                                               0.000937
  <r^2> [a.u.]:                        [ 181.738112,   41.402482,   11.078084]
  Total <r^2> [a.u.]:                                               234.218678

  V1^2 = 0.9556, V2^2 = 0.0444

  Important amplitudes:
      occ i     occ j     vir a      vir b          v   
    -----------------------------------------------------
     8 (A) A             10 (A) A                 0.6874
     8 (A) A             24 (A) A                 0.0512
     8 (A) A             18 (A) A                -0.0392
     4 (A) A              9 (A) A                -0.0287
     8 (A) A   8 (A) B    9 (A) A   12 (A) B      0.0227
     5 (A) A   8 (A) B   11 (A) A   10 (A) B     -0.0183
     8 (A) A   8 (A) B   10 (A) A   17 (A) B      0.0172
     7 (A) A   8 (A) B   13 (A) A   10 (A) B     -0.0149
     4 (A) A   8 (A) B   12 (A) A   10 (A) B     -0.0118
     6 (A) A   8 (A) A   10 (A) A   15 (A) A      0.0117
     4 (A) A   8 (A) A   10 (A) A   12 (A) A      0.0115
     6 (A) A   8 (A) B   15 (A) A   10 (A) B     -0.0113
     7 (A) A   8 (A) B   22 (A) A   10 (A) B     -0.0112
     5 (A) A   8 (A) A   10 (A) A   11 (A) A      0.0107
     8 (A) A             15 (A) A                 0.0103
     7 (A) A   8 (A) A   10 (A) A   13 (A) A      0.0101
     7 (A) A   8 (A) A   10 (A) A   22 (A) A      0.0101
     6 (A) A   8 (A) B   10 (A) A   10 (A) B      0.0101
     5 (A) A   8 (A) B   21 (A) A   10 (A) B      0.0091
     7 (A) A   8 (A) A   12 (A) A   16 (A) A      0.0089
     6 (A) A   8 (A) A   10 (A) A   18 (A) A      0.0081
     8 (A) A   8 (A) B    9 (A) A   19 (A) B     -0.0080
     3 (A) A   4 (A) B   10 (A) A    9 (A) B      0.0080
     4 (A) A   8 (A) B   19 (A) A   10 (A) B      0.0078
     5 (A) A   8 (A) B   10 (A) A   11 (A) B     -0.0076
     7 (A) A   8 (A) B   16 (A) A   12 (A) B     -0.0076
     5 (A) A   8 (A) A   10 (A) A   21 (A) A     -0.0076
     8 (A) A   8 (A) B   10 (A) A   28 (A) B     -0.0075
     3 (A) A   8 (A) A   10 (A) A   24 (A) A     -0.0072
     8 (A) A   8 (A) B    9 (A) A   23 (A) B      0.0070
     3 (A) A   8 (A) B   10 (A) A   10 (A) B      0.0069
     7 (A) A   8 (A) B   12 (A) A   11 (A) B     -0.0066
     3 (A) A   8 (A) B   10 (A) A   18 (A) B     -0.0064
     6 (A) A             28 (A) A                -0.0064
     5 (A) A   8 (A) A   10 (A) A   16 (A) A      0.0063
     6 (A) A   8 (A) B   18 (A) A   10 (A) B     -0.0061
     4 (A) A             20 (A) A                -0.0061
     3 (A) A   6 (A) B   10 (A) A   28 (A) B      0.0060
     7 (A) A   8 (A) B   11 (A) A   12 (A) B     -0.0060
     3 (A) A   5 (A) B   10 (A) A   25 (A) B     -0.0057
    -----------------------------------------------------

  Density matrix analysis:
  ------------------------
  NOs
    Occupation of frontier NOs:
       0.9814   0.9837
    Number of electrons: 16.000000
    Number of unpaired electrons: n_u =  2.29873, n_u,nl =  2.02693
    NO participation ratio (PR_NO):  2.726544
  
  
  Mulliken Population Analysis
  Atom      Charge (e)              h+              e-           Del q
  --------------------------------------------------------------------
   1 H       -0.125959        0.056204       -0.247123       -0.190920
   2 C        0.251884        0.537285       -0.155457        0.381828
   3 H       -0.125988        0.056211       -0.247178       -0.190967
   4 C        0.251880        0.537242       -0.155441        0.381801
   5 H       -0.125892        0.056214       -0.247078       -0.190865
   6 H       -0.125924        0.056205       -0.247083       -0.190878
  --------------------------------------------------------------------
  Sum:       -0.000000        1.299360       -1.299360       -0.000000
  
  Multipole moment analysis of the density matrix
    Molecular charge:                      -0.000000
    Number of electrons:                   16.000000
      Center of electronic charge [Ang]: [ -1.561334,  -0.065297,   0.002127]
    Total nuclear charge:                  16.000000
      Center of nuclear charge [Ang]:    [ -1.561339,  -0.065286,   0.002127]
    Dipole moment [D]:                     0.000937
      Cartesian components [D]:          [ -0.000397,   0.000849,  -0.000021]
    RMS size of the density [Ang]:         1.287327
      Cartesian components [Ang]:        [  0.861961,   0.848736,   0.440320]
  
  Exciton analysis of the difference density matrix
    <r_h> [Ang]:                  [ -1.561325,  -0.065301,   0.002122]
    <r_e> [Ang]:                  [ -1.561265,  -0.065434,   0.002132]
    |<r_e - r_h>| [Ang]:            0.000146
    Hole size [Ang]:                1.409918
      Cartesian components [Ang]: [  0.836945,   0.823544,   0.780491]
    Electron size [Ang]:            2.064951
      Cartesian components [Ang]: [  1.370970,   1.374104,   0.704487]

  Transition density matrix analysis:
  -----------------------------------
  
  CT numbers (Mulliken)
    omega =     0.9229
    <Phe> =    -0.0111
  
  Exciton analysis of the transition density matrix
    Trans. dipole moment [D]:             0.352661
      Cartesian components [D]:         [  0.016146,   0.021945,  -0.351607]
    <r_h> [Ang]:                        [ -1.561334,  -0.065287,   0.002118]
    <r_e> [Ang]:                        [ -1.561240,  -0.065487,   0.002134]
    |<r_e - r_h>| [Ang]:                  0.000221
    Hole size [Ang]:                      1.198676
      Cartesian components [Ang]:       [  0.626165,   0.614145,   0.817048]
    Electron size [Ang]:                  2.291316
      Cartesian components [Ang]:       [  1.520953,   1.526621,   0.778627]
    RMS electron-hole separation [Ang]:   2.575860
      Cartesian components [Ang]:       [  1.637183,   1.638368,   1.127137]
    Covariance(r_h, r_e) [Ang^2]:         0.025949
    Correlation coefficient:              0.009448
    Center-of-mass size [Ang]:            1.297965
      Cartesian components [Ang]:       [  0.826195,   0.826323,   0.565070]

  Decomposition into state-averaged NTOs
    H- 0 -> L+ 1:  0.6784 ( 92.1%)
                   omega =  92.3%
  ----------------------------------------------------------------------------


  Excited state 4 (singlet, A)                                     [converged]
  ----------------------------------------------------------------------------
  Term symbol:  5 (1) A                                     R^2 =  4.19996e-13

  Total energy:                                            -77.9651300145 a.u.
  Excitation energy:                                               9.468525 eV

  Osc. strength:                                                      0.000000
  Trans. dip. moment [a.u.]:           [   0.000348,   -0.000323,   -0.000013]
  <i|r^2|0> [a.u.]:                    [  -0.003753,   -0.007839,    0.013567]
  Two-photon absorption cross-section (SoS) [a.u.]:                  69.145458
  Two-photon absorption matrix (SoS) [a.u.]:
                                       |   -0.193389   -0.223347    2.000064 |
                                       |   -0.223347   -0.256001    2.107273 |
                                       |    2.000064    2.107273    0.449392 |
  Two-photon absorption cross-section [a.u.]:                        43.982425
  Two-photon absorption matrix [a.u.]:
                                       |   -0.154938   -0.178173    1.595864 |
                                       |   -0.178173   -0.203458    1.679985 |
                                       |    1.595864    1.679985    0.358399 |

  Dip. moment [a.u.]:                  [  -0.000164,   -0.000041,   -0.000029]
  Total dipole [Debye]:                                               0.000436
  <r^2> [a.u.]:                        [ 181.452310,   41.020462,   10.872003]
  Total <r^2> [a.u.]:                                               233.344775

  V1^2 = 0.9625, V2^2 = 0.0375

  Important amplitudes:
      occ i     occ j     vir a      vir b          v   
    -----------------------------------------------------
     8 (A) A             11 (A) A                -0.6602
     7 (A) A              9 (A) A                -0.1846
     8 (A) A             21 (A) A                 0.0749
     8 (A) A             16 (A) A                -0.0732
     7 (A) A             20 (A) A                -0.0174
     5 (A) A   8 (A) B   11 (A) A   11 (A) B      0.0161
     8 (A) A   8 (A) B    9 (A) A   13 (A) B     -0.0156
     8 (A) A   8 (A) B   11 (A) A   17 (A) B     -0.0131
     7 (A) A   8 (A) B   13 (A) A   11 (A) B      0.0125
     4 (A) A   8 (A) B   12 (A) A   11 (A) B      0.0113
     8 (A) A   8 (A) B    9 (A) A   22 (A) B     -0.0111
     5 (A) A   8 (A) A   11 (A) A   21 (A) A      0.0106
     6 (A) A   8 (A) B   10 (A) A   11 (A) B     -0.0097
     7 (A) A   8 (A) A   11 (A) A   22 (A) A     -0.0091
     6 (A) A   8 (A) B   15 (A) A   11 (A) B      0.0088
     7 (A) A   8 (A) B   22 (A) A   11 (A) B      0.0087
     3 (A) A   4 (A) B   11 (A) A    9 (A) B     -0.0084
     7 (A) A   8 (A) A   13 (A) A   16 (A) A     -0.0081
     5 (A) A   8 (A) B    9 (A) A    9 (A) B      0.0078
     3 (A) A   8 (A) B   11 (A) A   18 (A) B      0.0076
     6 (A) A   8 (A) A   11 (A) A   15 (A) A     -0.0076
     4 (A) A   8 (A) B   19 (A) A   11 (A) B     -0.0073
     7 (A) A   8 (A) A   11 (A) A   13 (A) A     -0.0070
     5 (A) A   8 (A) B   21 (A) A   11 (A) B     -0.0064
     3 (A) A   8 (A) B   11 (A) A   30 (A) B      0.0061
     4 (A) A   8 (A) A   11 (A) A   12 (A) A     -0.0061
     7 (A) A   8 (A) B   12 (A) A   10 (A) B      0.0058
     8 (A) A   8 (A) B   20 (A) A   22 (A) B     -0.0058
     3 (A) A   6 (A) B   11 (A) A   28 (A) B     -0.0057
     6 (A) A   8 (A) B   11 (A) A   10 (A) B     -0.0057
     6 (A) A   8 (A) B   18 (A) A   11 (A) B      0.0055
     5 (A) A   8 (A) A   11 (A) A   16 (A) A     -0.0055
     5 (A) A   8 (A) B   10 (A) A   10 (A) B      0.0055
     7 (A) A   8 (A) B   11 (A) A   13 (A) B      0.0055
     3 (A) A   5 (A) B   11 (A) A   25 (A) B      0.0054
     3 (A) A   8 (A) A   11 (A) A   24 (A) A      0.0052
     6 (A) A   8 (A) A   11 (A) A   18 (A) A     -0.0050
     3 (A) A   8 (A) A   11 (A) A   18 (A) A      0.0050
     8 (A) A             32 (A) A                -0.0049
     6 (A) A   8 (A) A   10 (A) A   16 (A) A      0.0048
    -----------------------------------------------------

  Density matrix analysis:
  ------------------------
  NOs
    Occupation of frontier NOs:
       0.9171   1.0511
    Number of electrons: 16.000000
    Number of unpaired electrons: n_u =  2.33077, n_u,nl =  2.06877
    NO participation ratio (PR_NO):  3.077303
  
  
  Mulliken Population Analysis
  Atom      Charge (e)              h+              e-           Del q
  --------------------------------------------------------------------
   1 H       -0.092645        0.047320       -0.204926       -0.157606
   2 C        0.185957        0.483748       -0.167847        0.315901
   3 H       -0.093332        0.047311       -0.205621       -0.158311
   4 C        0.185978        0.483739       -0.167840        0.315899
   5 H       -0.093357        0.047311       -0.205641       -0.158329
   6 H       -0.092601        0.047320       -0.204875       -0.157555
  --------------------------------------------------------------------
  Sum:       -0.000000        1.156750       -1.156750       -0.000000
  
  Multipole moment analysis of the density matrix
    Molecular charge:                      -0.000000
    Number of electrons:                   16.000000
      Center of electronic charge [Ang]: [ -1.561334,  -0.065284,   0.002128]
    Total nuclear charge:                  16.000000
      Center of nuclear charge [Ang]:    [ -1.561339,  -0.065286,   0.002127]
    Dipole moment [D]:                     0.000436
      Cartesian components [D]:          [ -0.000417,  -0.000105,  -0.000074]
    RMS size of the density [Ang]:         1.281374
      Cartesian components [Ang]:        [  0.859055,   0.844789,   0.436205]
  
  Exciton analysis of the difference density matrix
    <r_h> [Ang]:                  [ -1.561332,  -0.065286,   0.002122]
    <r_e> [Ang]:                  [ -1.561261,  -0.065264,   0.002142]
    |<r_e - r_h>| [Ang]:            0.000077
    Hole size [Ang]:                1.390870
      Cartesian components [Ang]: [  0.819812,   0.807294,   0.781475]
    Electron size [Ang]:            2.068760
      Cartesian components [Ang]: [  1.388295,   1.385053,   0.658813]

  Transition density matrix analysis:
  -----------------------------------
  
  CT numbers (Mulliken)
    omega =     0.9286
    <Phe> =    -0.0192
  
  Exciton analysis of the transition density matrix
    Trans. dipole moment [D]:             0.000604
      Cartesian components [D]:         [  0.000442,  -0.000411,  -0.000016]
    <r_h> [Ang]:                        [ -1.561338,  -0.065286,   0.002119]
    <r_e> [Ang]:                        [ -1.561248,  -0.065261,   0.002145]
    |<r_e - r_h>| [Ang]:                  0.000098
    Hole size [Ang]:                      1.227389
      Cartesian components [Ang]:       [  0.667375,   0.655538,   0.794584]
    Electron size [Ang]:                  2.184856
      Cartesian components [Ang]:       [  1.466238,   1.464016,   0.693109]
    RMS electron-hole separation [Ang]:   2.493886
      Cartesian components [Ang]:       [  1.601316,   1.595132,   1.053949]
    Covariance(r_h, r_e) [Ang^2]:         0.030306
    Correlation coefficient:              0.011301
    Center-of-mass size [Ang]:            1.259037
      Cartesian components [Ang]:       [  0.810289,   0.806489,   0.527428]

  Decomposition into state-averaged NTOs
    H- 0 -> L+ 2:  0.6560 ( 86.1%)
    H- 1 -> L+ 0:  0.1822 (  6.6%)
                   omega =  92.9%
  ----------------------------------------------------------------------------


  Excited state 5 (singlet, A)                                     [converged]
  ----------------------------------------------------------------------------
  Term symbol:  6 (1) A                                     R^2 =  3.81195e-13

  Total energy:                                            -77.9428482683 a.u.
  Excitation energy:                                              10.074842 eV

  Osc. strength:                                                      0.000000
  Trans. dip. moment [a.u.]:           [   0.000071,    0.000020,    0.000037]
  <i|r^2|0> [a.u.]:                    [  -0.060621,    0.072779,   -0.011805]
  Two-photon absorption cross-section (SoS) [a.u.]:                 198.978772
  Two-photon absorption matrix (SoS) [a.u.]:
                                       |   -0.347103   -0.052712    3.609260 |
                                       |   -0.052712    0.412943   -3.419806 |
                                       |    3.609260   -3.419806   -0.066814 |
  Two-photon absorption cross-section [a.u.]:                       104.861409
  Two-photon absorption matrix [a.u.]:
                                       |   -0.252709   -0.038757    2.620739 |
                                       |   -0.038757    0.298982   -2.481956 |
                                       |    2.620739   -2.481956   -0.048262 |

  Dip. moment [a.u.]:                  [   0.000271,   -0.000277,   -0.000010]
  Total dipole [Debye]:                                               0.000984
  <r^2> [a.u.]:                        [ 182.255853,   41.652868,   11.186644]
  Total <r^2> [a.u.]:                                               235.095365

  V1^2 = 0.9514, V2^2 = 0.0486

  Important amplitudes:
      occ i     occ j     vir a      vir b          v   
    -----------------------------------------------------
     8 (A) A             12 (A) A                -0.6509
[...]
    16   -1.140551394261e-03
    17   -1.391432326023e-03
    18    9.655797574766e-05
    19   -2.168131203215e-03
    20    1.804535951117e-02
    21    8.910020793609e-01
    22   -1.409094406725e-03
    23    1.226555860184e-02
    24    6.756004538018e-04
    25    7.034809222724e-02
    26   -5.229507955999e-02
    27   -1.314418480303e+00
    28    1.079944651251e-01
    29   -1.025941837950e-01
    30   -1.054995482399e-03
    31    3.903093640857e-01
    32   -3.706802359672e-01
    33   -3.788238809867e-03
    34    1.213530663486e-02
    35   -1.138374350933e-03
    36   -1.390188876823e-03
    37    9.692887977845e-05
    38   -2.165875297135e-03
    39    1.803129426801e-02
    40    8.908820774360e-01
    41    1.409236726124e-03
    42   -1.226489727887e-02
    43   -6.751484854463e-04
    44    1.804688913502e-02
    45    8.910232788248e-01
    46    1.233291587884e-02
    47   -7.797279962126e-04
    48    5.425937700542e-04
Sym=X
Ene= 0.220660
Spin=Alpha
Occup=0
     1   -4.399647352728e-02
     2   -1.077150052403e+00
     3    9.805526575593e-03
     4    3.374116872293e-03
     5    6.755415615497e-04
     6    1.460061909620e-04
     7   -1.582129955797e-04
     8   -2.089952351408e-03
     9    1.603238189949e-01
    10    1.688651123207e-01
    11    1.792197026746e-02
    12    4.964690057771e-01
    13    5.230617368096e-01
    14    5.551329125067e-02
    15    3.000231060892e-05
    16   -3.985785420423e-04
    17    4.415832655519e-04
    18   -7.723610705737e-03
    19   -4.111645450678e-04
    20    4.413330246390e-02
    21    1.080281689915e+00
    22    2.890839299907e-03
    23    9.993162457218e-03
    24    7.439767456378e-04
    25   -1.482664469224e-04
    26    1.598245982188e-04
    27    2.141430870597e-03
    28    1.603114757673e-01
    29    1.688634512162e-01
    30    1.787948059571e-02
    31    4.964201640654e-01
    32    5.230528070124e-01
    33    5.536831668737e-02
    34   -3.022408610147e-05
    35    4.006584506732e-04
    36   -4.431428877542e-04
    37    7.723669752932e-03
    38    4.113168390193e-04
    39   -4.413502842137e-02
    40   -1.080292071631e+00
    41    2.890774393831e-03
    42    9.994194861213e-03
    43    7.417862296692e-04
    44    4.399738150428e-02
    45    1.077093707309e+00
    46    9.805665365432e-03
    47    3.374013430479e-03
    48    6.733371108504e-04
Sym=X
Ene= 0.229071
Spin=Alpha
Occup=0
     1   -2.925061426070e-02
     2   -1.026734467846e+00
     3    1.302491102118e-02
     4    8.255687447239e-03
     5    1.124433504746e-03
     6   -8.819982715096e-02
     7    8.997939045010e-02
     8    1.399823754715e+00
     9    6.456861715949e-02
    10   -6.080962059115e-02
    11   -5.713557772437e-04
    12    2.716213428376e-01
    13   -2.562429323328e-01
    14   -2.421121392576e-03
    15   -1.751031183556e-02
    16    2.183726138302e-03
    17    2.475046954763e-03
    18   -6.152069473379e-04
    19    1.230291185115e-02
    20   -2.914474100472e-02
    21   -1.022884350533e+00
    22   -7.578132480541e-03
    23   -1.337820378603e-02
    24   -1.172283681958e-03
    25    8.820745366557e-02
    26   -8.998204916982e-02
    27   -1.400041477643e+00
    28    6.457878744919e-02
    29   -6.081935843301e-02
    30   -5.917796083084e-04
    31    2.716744187233e-01
    32   -2.563120193800e-01
    33   -2.495785661097e-03
    34    1.751419714346e-02
    35   -2.181897322876e-03
    36   -2.476299662226e-03
    37    6.161282989820e-04
    38   -1.230381788732e-02
    39    2.913936233476e-02
    40    1.023043709094e+00
    41   -7.578935039195e-03
    42   -1.338171163777e-02
    43   -1.173425373613e-03
    44    2.924460131059e-02
    45    1.026854294042e+00
    46    1.302742568401e-02
    47    8.257167943911e-03
    48    1.123137379021e-03
Sym=X
Ene= 0.303547
Spin=Alpha
Occup=0
     1   -2.597585565753e-02
     2    1.567004902304e+00
     3   -2.387623594148e-02
     4    3.821573630579e-04
     5   -1.124836687802e-03
     6    2.250588590057e-06
     7   -4.077961110039e-06
     8   -2.755203273252e-04
     9   -1.398888248691e-01
    10   -1.471523239156e-01
    11   -1.561531678272e-02
    12   -1.114807938809e+00
    13   -1.172550822971e+00
    14   -1.243973223198e-01
    15    3.968865051127e-05
    16   -1.787240812485e-03
    17    2.021529112412e-03
    18   -3.491749398977e-02
    19   -1.791685570668e-03
    20    2.593641391395e-02
    21   -1.566688887145e+00
    22    1.604164339712e-03
    23   -2.380922459521e-02
    24   -1.361022644398e-03
    25    3.755912805764e-06
    26   -3.400213110331e-06
    27   -3.356296600052e-04
    28    1.398962887526e-01
    29    1.471592977667e-01
    30    1.560136902304e-02
    31    1.114812236347e+00
    32    1.172600519719e+00
    33    1.243558437551e-01
    34    4.103023848842e-05
    35   -1.784665702667e-03
    36    2.023108435322e-03
    37   -3.491909350806e-02
    38   -1.792656171566e-03
    39    2.593825821898e-02
    40   -1.566771151260e+00
    41   -1.605565324599e-03
    42    2.380954489924e-02
    43    1.360697556275e-03
    44   -2.597629628570e-02
    45    1.567114287784e+00
    46    2.387758865640e-02
    47   -3.829488599628e-04
    48    1.123205218717e-03
Sym=X
Ene= 0.466513
Spin=Alpha
Occup=0
     1   -1.249026411346e-01
     2   -6.422535475409e-01
     3   -1.594526052674e-02
     4   -1.083976488066e-02
     5   -1.421533687300e-03
     6    6.352811344682e-02
     7    2.578153883493e-02
     8   -4.117810318983e+00
     9    9.513594413278e-02
    10   -9.034603870789e-02
    11   -9.037175876801e-04
    12    2.526471777414e+00
    13   -2.399164940451e+00
    14   -2.345092652377e-02
    15    5.899954151433e-02
    16   -3.429712347505e-03
    17   -4.873111583040e-03
    18   -1.376304193898e-03
    19    2.596778390136e-02
    20   -1.249866926969e-01
    21   -6.418381872352e-01
    22    1.001225505565e-02
    23    1.646905898373e-02
    24    1.476561128098e-03
    25   -6.352747303906e-02
    26   -2.577649891946e-02
    27    4.117745882251e+00
    28    9.514288000901e-02
    29   -9.034841287810e-02
    30   -9.119979792719e-04
    31    2.526476197552e+00
    32   -2.399157133384e+00
    33   -2.348527364624e-02
    34   -5.899404240327e-02
    35    3.425022333579e-03
    36    4.866928776203e-03
    37    1.375646843646e-03
    38   -2.597108639250e-02
    39    1.249488807351e-01
    40    6.419083849615e-01
    41    1.001110497024e-02
    42    1.646893752870e-02
    43    1.474357896319e-03
    44    1.248715887087e-01
    45    6.423067180065e-01
    46   -1.594485494488e-02
    47   -1.083733293677e-02
    48   -1.420108726653e-03
Sym=X
Ene= 0.575519
Spin=Alpha
Occup=0
     1    1.954662873243e-01
     2    4.313040928788e-02
     3   -2.992124481127e-02
     4    2.881146523127e-02
     5    3.029962572530e-04
     6   -1.085562558387e-02
     7   -2.056065816427e-01
     8   -3.281654637307e-01
     9    3.150900449519e-01
    10   -2.992485417420e-01
    11   -2.931074567942e-03
    12   -7.527893321819e-01
    13    7.147440668669e-01
    14    7.020456904610e-03
    15    3.370276664182e-03
    16    2.725212937843e-03
    17    2.306106754058e-03
    18   -2.664245634528e-03
    19    5.166344390560e-02
    20    1.955110982712e-01
    21    4.285803614188e-02
    22   -3.032663994069e-02
    23    2.839885527423e-02
    24    2.586708631945e-04
    25   -1.085990416303e-02
    26   -2.056079923325e-01
    27   -3.279388612110e-01
    28   -3.150853444092e-01
    29    2.992363592767e-01
    30    2.928709190440e-03
    31    7.529812610013e-01
    32   -7.149008276306e-01
    33   -7.026343713986e-03
    34    3.371638209216e-03
    35    2.725732799433e-03
    36    2.305601055927e-03
    37   -2.656312982238e-03
    38    5.166322452165e-02
    39    1.954721117952e-01
    40    4.297730984998e-02
    41    3.033017289200e-02
    42   -2.840114717060e-02
    43   -2.593522085273e-04
    44    1.954974020860e-01
    45    4.318552388731e-02
    46    2.991696718617e-02
    47   -2.880895153900e-02
    48   -3.039029108926e-04
Sym=X
Ene= 0.602575
Spin=Alpha
Occup=0
     1   -5.319346384462e-01
     2    3.763333111698e-01
     3   -5.929147856944e-02
     4    3.666221265463e-02
     5   -6.321415860740e-04
     6    1.483902371696e-06
     7   -5.796986703007e-05
     8   -1.149596917326e-04
     9   -1.452224840965e-02
    10   -1.522787583820e-02
    11   -1.612635953948e-03
    12    1.678227470798e-01
    13    1.758193632686e-01
    14    1.870744729812e-02
    15    1.293460689635e-04
    16   -7.888741298100e-03
    17    8.940071384800e-03
    18   -1.542852527431e-01
    19   -7.879326432130e-03
    20    5.320309610475e-01
    21   -3.768679725415e-01
    22    3.966634795345e-02
    23   -5.731451157406e-02
    24   -1.556244650702e-03
    25   -1.736022731667e-06
    26    6.314371700497e-05
    27    1.584505726731e-04
    28   -1.452048279926e-02
    29   -1.525985355119e-02
    30   -1.623978584877e-03
    31    1.678570382844e-01
    32    1.759673011640e-01
    33    1.866578747958e-02
    34   -1.284147889996e-04
    35    7.881107194952e-03
    36   -8.944766048849e-03
    37    1.542865790675e-01
    38    7.877604673526e-03
    39   -5.320584481566e-01
    40    3.768107308941e-01
    41    3.965990652431e-02
    42   -5.731205914140e-02
    43   -1.560106690939e-03
    44    5.319124612482e-01
    45   -3.762811614682e-01
    46   -5.929235842016e-02
    47    3.666239689989e-02
    48   -6.319934249039e-04
Sym=X
Ene= 0.680067
Spin=Alpha
Occup=0
     1    7.887303470585e-05
     2   -1.846095745002e-06
     3    5.012486401696e-04
     4    6.312609762958e-04
     5   -1.028980489323e-02
     6    4.700415359898e-06
     7    1.588998442645e-05
     8    5.749501940437e-05
     9    3.185586582823e-02
    10    4.009485513606e-02
    11   -6.633034952581e-01
    12   -2.937188384019e-02
    13   -3.672706136557e-02
    14    6.092440164009e-01
    15   -1.347519407041e-03
    16    8.262505906634e-02
    17   -7.837648209354e-02
    18   -8.700180301249e-03
    19   -1.204725628449e-03
    20    7.224766024181e-05
    21    2.801524541971e-05
    22    4.871357992230e-04
    23    6.150729325507e-04
    24   -1.026235986197e-02
    25    2.928511115480e-06
    26    4.493829831008e-05
    27   -1.258338032176e-04
    28    3.186402208205e-02
    29    4.003910620000e-02
    30   -6.633023647106e-01
    31   -2.935126725293e-02
    32   -3.668946565633e-02
    33    6.092452011741e-01
    34    1.311194213527e-03
    35   -8.262184703758e-02
    36    7.838168494020e-02
    37    8.708987775259e-03
    38    1.220884032199e-03
    39    2.535626844754e-05
    40   -5.355011135071e-05
    41    4.912995342007e-04
    42    6.299873160678e-04
    43   -1.026540406170e-02
    44    3.196917897497e-05
    45   -8.347414515700e-05
    46    4.820479218846e-04
    47    6.194813439163e-04
    48   -1.029535370478e-02
Sym=X
Ene= 0.686519
Spin=Alpha
Occup=0
     1   -5.215285004682e-01
     2    2.274380566353e-01
     3   -6.949213302467e-02
     4   -4.312695489024e-02
     5   -5.949613437188e-03
     6   -4.145657189080e-02
     7   -2.393755361746e-01
     8    3.591863819046e-01
     9    1.727167593952e-01
    10   -1.641468112272e-01
    11   -1.692202051326e-03
    12   -2.648217660644e-02
    13    2.557595339303e-02
    14    2.868916681401e-04
    15    1.793504210336e-01
    16   -1.966634316021e-02
    17   -2.298582929924e-02
    18    3.929718658938e-03
    19   -7.981894740562e-02
    20   -5.217194037492e-01
    21    2.280544338735e-01
    22    3.953876879844e-02
    23    7.158301733919e-02
    24    6.220000909423e-03
    25   -4.144011257951e-02
    26   -2.394286210244e-01
    27    3.587965133258e-01
    28   -1.727178742188e-01
    29    1.641552073044e-01
    30    1.555850566657e-03
    31    2.615114001405e-02
    32   -2.527788536880e-02
    33   -1.515472127515e-04
    34    1.793284198544e-01
    35   -1.966696607430e-02
    36   -2.296017793396e-02
    37    3.927139988498e-03
    38   -7.980526346589e-02
    39   -5.216024516576e-01
    40    2.278211309469e-01
    41   -3.953599801169e-02
    42   -7.156864704962e-02
    43   -6.217668697629e-03
    44   -5.214372282909e-01
    45    2.272268961933e-01
    46    6.948096216124e-02
    47    4.312380751151e-02
    48    5.943159159304e-03
Sym=X
Ene= 0.758577
Spin=Alpha
Occup=0
     1    5.530959640509e-01
     2   -6.133336661544e-01
     3    1.024871056321e-01
     4    3.020005014387e-02
     5    6.749619670313e-03
     6    8.357456791813e-02
     7   -2.589020436475e-01
     8   -6.880542274282e-01
     9    4.838743682303e-02
    10   -4.567082002223e-02
    11   -4.091224262229e-04
    12    5.046507043805e-01
    13   -4.798983995000e-01
    14   -4.767517053894e-03
    15   -1.870207541561e-01
    16    1.709842443069e-02
    17    2.095263142792e-02
    18   -1.102870097380e-03
    19    2.461028212823e-02
    20    5.530443732751e-01
    21   -6.139646647437e-01
    22   -2.499018564629e-02
    23   -1.038688294387e-01
    24   -7.477067012967e-03
    25   -8.358462423387e-02
    26    2.588060519724e-01
    27    6.882579336950e-01
    28    4.837552323628e-02
    29   -4.564667065939e-02
    30   -4.273497330588e-04
    31    5.045925994526e-01
    32   -4.798686196421e-01
    33   -4.717476866075e-03
    34    1.870667907482e-01
    35   -1.708142141657e-02
    36   -2.094650965955e-02
    37    1.107629074401e-03
    38   -2.462377667250e-02
    39   -5.531432603927e-01
    40    6.139606621521e-01
    41   -2.499787299776e-02
    42   -1.038863618314e-01
    43   -7.473063445547e-03
    44   -5.531885902027e-01
    45    6.133074258612e-01
    46    1.024985130980e-01
    47    3.021177022887e-02
    48    6.745912583813e-03
Sym=X
Ene= 0.809208
Spin=Alpha
Occup=0
     1    8.959110717293e-06
     2    4.423587087354e-05
     3    1.163495021203e-03
     4    1.469039561874e-03
     5   -2.436973805931e-02
     6    2.580899766355e-06
     7   -2.418031075038e-05
     8    1.036897280661e-05
     9    3.688738128777e-02
    10    4.635394522546e-02
    11   -7.670212549374e-01
    12   -5.453605962362e-02
    13   -6.854972504939e-02
    14    1.133999666276e+00
    15    1.195733565403e-03
    16   -7.468671894656e-02
    17    7.084804692369e-02
    18    7.855626685072e-03
    19    1.098358897969e-03
    20    9.116614339887e-06
    21   -6.222756972017e-05
    22    1.164551990298e-03
    23    1.465219260191e-03
    24   -2.434045210598e-02
    25    1.057541475129e-07
    26   -1.838204480011e-05
    27    1.089871999736e-05
    28   -3.681058323656e-02
    29   -4.629760635661e-02
    30    7.670311497985e-01
    31    5.443495309570e-02
    32    6.841898175917e-02
    33   -1.134016622468e+00
    34    1.205395340548e-03
    35   -7.468577532605e-02
    36    7.084557938663e-02
    37    7.880348284142e-03
    38    1.103290815863e-03
    39   -4.230271694416e-06
    40    7.296935802331e-05
    41   -1.169183069956e-03
    42   -1.484481457294e-03
    43    2.434184652521e-02
    44   -4.053818021747e-06
    45   -3.349319656116e-05
    46   -1.168473262393e-03
    47   -1.479390472191e-03
    48    2.437284686892e-02
Sym=X
Ene= 0.844302
Spin=Alpha
Occup=0
     1   -7.668177372527e-04
     2   -9.974271217776e-01
     3    1.339400830030e-01
     4    5.908923494008e-02
     5    1.000105957037e-02
     6    3.125880246823e-05
     7   -6.010807318810e-05
     8    1.318138385624e-04
     9   -4.240075487332e-01
    10   -4.461438178564e-01
    11   -4.737128091821e-02
    12    9.154261809163e-01
    13    9.628037449147e-01
    14    1.022398375780e-01
    15   -2.871864281928e-04
    16    1.029862129617e-02
    17   -1.165193613475e-02
    18    2.013255085858e-01
    19    1.027623027945e-02
    20    1.047936604837e-03
    21    9.969921347251e-01
    22    5.221381337826e-02
    23    1.366179041356e-01
    24    1.076707121948e-02
    25   -3.077102108731e-05
    26    6.506503053777e-05
    27   -1.295404859848e-04
    28   -4.239516760850e-01
    29   -4.460933369519e-01
    30   -4.725393332444e-02
    31    9.153528777779e-01
    32    9.627587715032e-01
    33    1.020107166143e-01
    34    2.848576865430e-04
    35   -1.030322047635e-02
    36    1.165639409872e-02
    37   -2.013259543051e-01
    38   -1.027905973286e-02
    39   -1.101948458343e-03
    40   -9.969174943320e-01
    41    5.220748025099e-02
    42    1.366046504361e-01
    43    1.076266888194e-02
    44    8.242008905988e-04
    45    9.973470317053e-01
    46    1.339262688007e-01
    47    5.908578352521e-02
    48    9.993488670698e-03
Sym=X
Ene= 0.907717
Spin=Alpha
Occup=0
     1    2.038792852389e-01
     2   -1.108942180434e+00
     3    1.783175878219e-01
     4   -6.910309798941e-03
     5    8.153882053360e-03
     6    1.386400562202e-05
     7    5.068480826566e-04
     8   -7.106156994485e-04
     9   -4.788320409867e-01
    10   -5.038065868302e-01
    11   -5.344167779858e-02
    12    1.219239024986e+00
    13    1.282842917599e+00
    14    1.360813490416e-01
    15   -1.825811939018e-04
    16    6.126997078401e-03
    17   -6.922980381725e-03
    18    1.195647811598e-01
    19    6.099828445000e-03
    20   -2.038257922867e-01
    21    1.109385302867e+00
    22   -1.598045715918e-02
    23    1.776946193367e-01
    24    9.968208288527e-03
    25    1.380625295709e-05
    26    4.970159968821e-04
    27   -7.230034791554e-04
    28    4.788812978721e-01
    29    5.038448747073e-01
    30    5.342690013798e-02
    31   -1.219378379450e+00
    32   -1.282928544168e+00
    33   -1.360370604575e-01
    34   -1.856757699300e-04
    35    6.110241448130e-03
    36   -6.921731537396e-03
    37    1.196075303667e-01
    38    6.113929543526e-03
    39   -2.038269538040e-01
    40    1.109511033036e+00
    41    1.598678015081e-02
    42   -1.777112332481e-01
    43   -9.965539916707e-03
    44    2.038927257753e-01
    45   -1.109125040235e+00
    46   -1.783418367272e-01
    47    6.907180078597e-03
    48   -8.141817706130e-03
Sym=X
Ene= 0.981462
Spin=Alpha
Occup=0
     1   -6.866116556673e-03
     2    8.000884232447e-01
     3   -7.467567612498e-02
     4   -9.265975225615e-02
     5   -9.178318677486e-03
     6    4.140867000399e-02
     7    2.987531345369e-01
     8    3.257331952769e-01
     9    4.890858112412e-01
    10   -4.644234880465e-01
    11   -4.552669366154e-03
    12   -1.337451780443e+00
    13    1.269861932930e+00
    14    1.243275914794e-02
    15   -9.401471380771e-02
    16   -9.127109170036e-03
    17   -5.155566124609e-03
    18    1.496726424238e-02
    19   -2.921649967375e-01
    20   -6.831940005271e-03
    21    7.996247713423e-01
    22    8.876847609097e-02
    23    7.921173899375e-02
    24    9.053924007710e-03
    25   -4.140180409040e-02
    26   -2.981369127626e-01
    27   -3.268053535159e-01
    28    4.889824576277e-01
    29   -4.643442605517e-01
    30   -4.570042584927e-03
    31   -1.337192462631e+00
    32    1.269711833028e+00
    33    1.248798066061e-02
    34    9.398790938921e-02
    35    9.131703978208e-03
    36    5.163438014219e-03
    37   -1.496767608428e-02
    38    2.921034641462e-01
    39    6.806316371711e-03
    40   -7.992903363081e-01
    41    8.874224046182e-02
    42    7.915410912652e-02
    43    9.054367806116e-03
    44    6.850613175150e-03
    45   -7.996815973875e-01
    46   -7.460925774856e-02
    47   -9.263245447032e-02
    48   -9.168876730592e-03
[5D]

======= END OF MOLDEN-FORMATTED INPUT FILE =======


        *************************************************************
        *                                                           *
        *  Thank you very much for using Q-Chem.  Have a nice day.  *
        *                                                           *
        *************************************************************


