                  Welcome to Q-Chem
     A Quantum Leap Into The Future Of Chemistry


 Q-Chem 5.4 (devel), Q-Chem, Inc., Pleasanton, CA (2021)

 E. Epifanovsky,  A. T. B. Gilbert,  Xintian Feng,  Joonho Lee,  Yuezhi Mao,  
 N. Mardirossian,  P. Pokhilko,  A. White,  M. Wormit,  M. P. Coons,  
 A. L. Dempwolff,  Zhengting Gan,  D. Hait,  P. R. Horn,  L. D. Jacobson,  
 I. Kaliman,  J. Kussmann,  A. W. Lange,  Ka Un Lao,  D. S. Levine,  Jie Liu,  
 S. C. McKenzie,  A. F. Morrison,  K. Nanda,  F. Plasser,  D. R. Rehn,  
 M. L. Vidal,  Zhi-Qiang You,  Ying Zhu,  B. Alam,  B. Albrecht,  
 A. Aldossary,  E. Alguire,  J. H. Andersen,  D. Barton,  K. Begam,  A. Behn,  
 Y. A. Bernard,  E. J. Berquist,  H. Burton,  A. Carreras,  K. Carter-Fenk,  
 R. Chakraborty,  A. D. Chien,  K. D. Closser,  V. Cofer-Shabica,  
 S. Dasgupta,  Jia Deng,  M. de Wergifosse,  M. Diedenhofen,  Hainam Do,  
 S. Ehlert,  Po-Tung Fang,  S. Fatehi,  Qingguo Feng,  T. Friedhoff,  
 J. Gayvert,  Qinghui Ge,  G. Gidofalvi,  M. Goldey,  J. Gomes,  
 C. Gonzalez-Espinoza,  S. Gulania,  A. Gunina,  M. W. D. Hanson-Heine,  
 P. H. P. Harbach,  A. W. Hauser,  M. F. Herbst,  M. Hernandez Vera,  
 M. Hodecker,  Z. C. Holden,  S. Houck,  Xunkun Huang,  Kerwin Hui,  
 B. C. Huynh,  M. Ivanov,  Hyunjun Ji,  Hanjie Jiang,  B. Kaduk,  S. Kaehler,  
 K. Khistyaev,  Jaehoon Kim,  P. Klunzinger,  Z. Koczor-Benda,  
 Joong Hoon Koh,  D. Kosenkov,  L. Koulias,  T. Kowalczyk,  C. M. Krauter,  
 K. Kue,  A. Kunitsa,  T. Kus,  A. Landau,  K. V. Lawler,  D. Lefrancois,  
 S. Lehtola,  Rain Li,  Yi-Pei Li,  Jiashu Liang,  M. Liebenthal,  
 Hung-Hsuan Lin,  You-Sheng Lin,  Fenglai Liu,  Kuan-Yu Liu,  
 M. Loipersberger,  A. Luenser,  A. Manjanath,  P. Manohar,  E. Mansoor,  
 S. F. Manzer,  Shan-Ping Mao,  A. V. Marenich,  T. Markovich,  S. Mason,  
 S. A. Maurer,  P. F. McLaughlin,  M. F. S. J. Menger,  J.-M. Mewes,  
 S. A. Mewes,  P. Morgante,  J. W. Mullinax,  K. J. Oosterbaan,  G. Paran,  
 Alexander C. Paul,  Suranjan K. Paul,  F. Pavosevic,  Zheng Pei,  S. Prager,  
 E. I. Proynov,  E. Ramos,  B. Rana,  A. E. Rask,  A. Rettig,  R. M. Richard,  
 F. Rob,  E. Rossomme,  T. Scheele,  M. Scheurer,  M. Schneider,  
 N. Sergueev,  S. M. Sharada,  W. Skomorowski,  D. W. Small,  C. J. Stein,  
 Yu-Chuan Su,  E. J. Sundstrom,  Zhen Tao,  J. Thirman,  T. Tsuchimochi,  
 N. M. Tubman,  S. P. Veccham,  O. Vydrov,  J. Wenzel,  J. Witte,  A. Yamada,  
 Kun Yao,  S. Yeganeh,  S. R. Yost,  A. Zech,  Igor Ying Zhang,  Xing Zhang,  
 Yu Zhang,  D. Zuev,  A. Aspuru-Guzik,  A. T. Bell,  N. A. Besley,  
 K. B. Bravaya,  B. R. Brooks,  D. Casanova,  Jeng-Da Chai,  S. Coriani,  
 C. J. Cramer,  A. E. DePrince, III,  R. A. DiStasio Jr.,  A. Dreuw,  
 B. D. Dunietz,  T. R. Furlani,  W. A. Goddard III,  S. Grimme,  
 S. Hammes-Schiffer,  T. Head-Gordon,  W. J. Hehre,  Chao-Ping Hsu,  
 T.-C. Jagau,  Yousung Jung,  A. Klamt,  Jing Kong,  D. S. Lambrecht,  
 WanZhen Liang,  N. J. Mayhall,  C. W. McCurdy,  J. B. Neaton,  
 C. Ochsenfeld,  J. A. Parkhill,  R. Peverati,  V. A. Rassolov,  Yihan Shao,  
 L. V. Slipchenko,  T. Stauch,  R. P. Steele,  J. E. Subotnik,  
 A. J. W. Thom,  A. Tkatchenko,  D. G. Truhlar,  T. Van Voorhis,  
 T. A. Wesolowski,  K. B. Whaley,  H. L. Woodcock III,  P. M. Zimmerman,  
 S. Faraji,  P. M. W. Gill,  M. Head-Gordon,  J. M. Herbert,  A. I. Krylov

 Additional authors for Version 5.4.1: 
 S. Kotaru,  Shaozhi Li,  Xiangyuan Li,  F. Matz,  A. Molle,  Haisheng Ren,  
 Yingli Su,  Hung-Yi Tsai,  C. Utku,  Fang Wang

 Contributors to earlier versions of Q-Chem not listed above: 
 R. D. Adamson,  B. Austin,  R. Baer,  J. Baker,  G. J. O. Beran,  
 K. Brandhorst,  S. T. Brown,  E. F. C. Byrd,  A. K. Chakraborty,  
 G. K. L. Chan,  Chun-Min Chang,  Yunqing Chen,  C.-L. Cheng,  
 Siu Hung Chien,  D. M. Chipman,  D. L. Crittenden,  H. Dachsel,  
 R. J. Doerksen,  A. D. Dutoi,  R. G. Edgar,  J. Fosso-Tande,  
 L. Fusti-Molnar,  D. Ghosh,  A. Ghysels,  A. Golubeva-Zadorozhnaya,  
 J. Gonthier,  M. S. Gordon,  S. R. Gwaltney,  G. Hawkins,  J. E. Herr,  
 A. Heyden,  S. Hirata,  E. G. Hohenstein,  G. Kedziora,  F. J. Keil,  
 C. Kelley,  Jihan Kim,  R. A. King,  R. Z. Khaliullin,  P. P. Korambath,  
 W. Kurlancheek,  A. Laurent,  A. M. Lee,  M. S. Lee,  S. V. Levchenko,  
 Ching Yeh Lin,  D. Liotard,  E. Livshits,  R. C. Lochan,  I. Lotan,  
 L. A. Martinez-Martinez,  P. E. Maslen,  N. Nair,  D. P. O'Neill,  
 D. Neuhauser,  E. Neuscamman,  C. M. Oana,  R. Olivares-Amaya,  R. Olson,  
 T. M. Perrine,  B. Peters,  P. A. Pieniazek,  A. Prociuk,  Y. M. Rhee,  
 J. Ritchie,  M. A. Rohrdanz,  E. Rosta,  N. J. Russ,  H. F. Schaefer III,  
 M. W. Schmidt,  N. E. Schultz,  S. Sharma,  N. Shenvi,  C. D. Sherrill,  
 A. C. Simmonett,  A. Sodt,  T. Stein,  D. Stuck,  K. S. Thanthiriwatte,  
 V. Vanovschi,  L. Vogt,  Tao Wang,  A. Warshel,  M. A. Watson,  
 C. F. Williams,  Q. Wu,  X. Xu,  Jun Yang,  W. Zhang,  Yan Zhao

 Please cite Q-Chem as follows:
 Y. Shao et al., Mol. Phys. 113, 184-215 (2015)
 DOI: 10.1080/00268976.2014.952696

 Q-Chem 5.4.1 for Intel X86 EM64T Linux

 Parts of Q-Chem use Armadillo 9.800.1 (Horizon Scraper).
 http://arma.sourceforge.net/

 Q-Chem begins on Thu Nov 17 00:23:29 2022  

 Host: cpu311.baobab
0

     Scratch files written to /scratch/fum/qchem243209//
 Processing $rem in /home/share/wesolowski/qc5.aug2021.FDE/config/preferences:
 Processing $rem in /home/fum/.qchemrc:

 Checking the input file for inconsistencies... 	...done.

--------------------------------------------------------------
User input:
--------------------------------------------------------------
$comment
generated from CCJob.Templates
$end

$rem
sym_ignore = true
method = adc(2)
ee_states = 10
basis = cc-pVDZ
mem_static = 1024
mem_total = 30000
adc_davidson_maxiter = 900
adc_davidson_conv = 6
adc_print = 3
adc_prop_es = true
adc_prop_es2es = true
adc_prop_tpa = true
molden_format = True
state_analysis = true
print_orbitals = 15
gen_scfman = false
fde_export_density = true
fde_details = 3
$end

$molecule
0 1
H -0.0348278765 -0.2492097827 0.0636489606
C -1.0765972949 -0.5242748755 -0.0023551776
H -1.313264467 -1.5767591607 -0.0757276926
C -2.043634118 0.3926884087 0.0061254933
H -1.8137616575 1.4459188338 0.0804456828
H -3.085977293 0.114931858 -0.0593381042                     
$end
--------------------------------------------------------------
 ----------------------------------------------------------------
             Standard Nuclear Orientation (Angstroms)
    I     Atom           X                Y                Z
 ----------------------------------------------------------------
    1      H      -0.0348278765    -0.2492097827     0.0636489606
    2      C      -1.0765972949    -0.5242748755    -0.0023551776
    3      H      -1.3132644670    -1.5767591607    -0.0757276926
    4      C      -2.0436341180     0.3926884087     0.0061254933
    5      H      -1.8137616575     1.4459188338     0.0804456828
    6      H      -3.0859772930     0.1149318580    -0.0593381042
 ----------------------------------------------------------------
 Nuclear Repulsion Energy =          33.42628589 hartrees
 There are        8 alpha and        8 beta electrons
 Requested basis set is cc-pVDZ
 There are 24 shells and 48 basis functions
 Total memory of 30000 MB is distributed as follows: 
   MEM_STATIC is set to 1024 MB
   QALLOC/CCMAN JOB total memory use is  28976 MB
 Warning: actual memory use might exceed 30000 MB

 Total QAlloc Memory Limit  30000 MB
 Mega-Array Size      1001 MB
 MEM_STATIC part      1024 MB

                       Distance Matrix (Angstroms)
             H (  1)   C (  2)   H (  3)   C (  4)   H (  5)
   C (  2)  1.079491
   H (  3)  1.848300  1.081258
   C (  4)  2.109655  1.332687  2.102109
   H (  5)  2.457305  2.105215  3.067812  1.080583
   H (  6)  3.075262  2.109370  2.450428  1.080700  1.846510

 A cutoff of  1.0D-11 yielded    300 shell pairs
 There are      1220 function pairs (      1329 Cartesian)
 Smallest overlap matrix eigenvalue = 4.80E-03

 Scale SEOQF with 1.000000e-01/1.000000e-01/1.000000e+00

 Standard Electronic Orientation quadrupole field applied
 Nucleus-field energy     =     0.0000000022 hartrees
 Guess from superposition of atomic densities
 Warning:  Energy on first SCF cycle will be non-variational
 SAD guess density has 16.000000 electrons
 A restricted Hartree-Fock SCF calculation will be
 performed using Pulay DIIS extrapolation
 SCF converges when DIIS error is below 1.0E-08
 using 8 threads for integral computing
 -------------------------------------------------------
 OpenMP Integral computing Module                
 Release: version 1.0, May 2013, Q-Chem Inc. Pittsburgh 
 -------------------------------------------------------
 ---------------------------------------
  Cycle       Energy         DIIS Error
 ---------------------------------------
    1     -78.4395792781      1.01E-01
    2     -78.0176884412      7.21E-03
    3     -78.0383220911      1.84E-03
    4     -78.0398049454      5.73E-04
    5     -78.0399264636      5.79E-05
    6     -78.0399283401      9.21E-06
    7     -78.0399284004      1.95E-06
    8     -78.0399284031      2.22E-07
    9     -78.0399284032      9.91E-08
   10     -78.0399284032      1.02E-08
   11     -78.0399284032      1.53E-09 Convergence criterion met
 ---------------------------------------
 SCF time:  CPU 1.47 s  wall 1.94 s
 SCF   energy in the final basis set = -78.03992840
 Total energy in the final basis set = -78.03992840
Exporting Density Matrix to file 'Densmat_SCF.txt'.
Export successful
================================================================================
|                                                                              |
|                                 A D C  M A N                                 |
|                                                                              |
 ------------------------------------------------------------------------------ 
|                                                                              |
| Components:                                                                  |
|                                                                              |
| - libvmm - 1.3-trunk                                                         |
|   Authors:                                                                   |
|   Evgeny Epifanovsky, Ilya Kaliman                                           |
|                                                                              |
| - libtensor - 2.5-trunk                                                      |
|   Authors:                                                                   |
|   Evgeny Epifanovsky, Michael Wormit, Dmitry Zuev, Sam Manzer,               |
|   Ilya Kaliman                                                               |
|                                                                              |
| - libwfa - 1.1-trunk                                                         |
|   Authors:                                                                   |
|   Felix Plasser, Stefanie Mewes (Baeppler), Benjamin Thomitzni,              |
|   Michael Wormit, Feng Chen, Anna I. Krylov, Pavel Pokhilko                  |
|                                                                              |
| - libadc - 1.1-trunk                                                         |
|   Authors:                                                                   |
|   Michael Wormit, Adrian L. Dempwolff, Philipp H. P. Harbach,                |
|   Caroline Krauter, Dirk Rehn, Matthias Schneider, Jan Wenzel                |
|                                                                              |
| - adcman - 2.6-trunk                                                         |
|   Authors:                                                                   |
|   Michael Wormit, Adrian L. Dempwolff, Philipp H. P. Harbach,                |
|   Caroline Krauter, Daniel Lefrancois, Jan-Michael Mewes, Dirk Rehn,         |
|   Matthias Schneider, Jan Wenzel, Andreas Dreuw                              |
|                                                                              |
| Authors of earlier versions of ADCMAN:                                       |
| Andreas Dreuw, Jan Hendrik Starcke, Dirk Rehn, Michael Wormit                |
|                                                                              |
================================================================================

 Created directory /scratch/fum/qchem243209/plots
  Import QC data ...  CPU 0.00 s  wall 0.00 s

 Alpha MOs, Restricted
 -- Occupied --                  
-11.235 -11.233  -1.032  -0.790  -0.641  -0.582  -0.505  -0.374
  1 A     2 A     3 A     4 A     5 A     6 A     7 A     8 A                  
 -- Virtual --                   
  0.168   0.204   0.233   0.239   0.303   0.462   0.578   0.615
  9 A    10 A    11 A    12 A    13 A    14 A    15 A    16 A                  
  0.689   0.709   0.785   0.808   0.862   0.936   0.973   1.010
 17 A    18 A    19 A    20 A    21 A    22 A    23 A    24 A                  
  1.131   1.235   1.253   1.265   1.294   1.601   1.729   1.751
 25 A    26 A    27 A    28 A    29 A    30 A    31 A    32 A                  
  1.819   1.858   1.867   1.921   1.976   1.979   2.223   2.258
 33 A    34 A    35 A    36 A    37 A    38 A    39 A    40 A                  
  2.375   2.454   2.508   2.636   2.721   2.823   3.139   3.401
 41 A    42 A    43 A    44 A    45 A    46 A    47 A    48 A                  

 Beta MOs, Restricted
 -- Occupied --                  
-11.235 -11.233  -1.032  -0.790  -0.641  -0.582  -0.505  -0.374
  1 A     2 A     3 A     4 A     5 A     6 A     7 A     8 A                  
 -- Virtual --                   
  0.168   0.204   0.233   0.239   0.303   0.462   0.578   0.615
  9 A    10 A    11 A    12 A    13 A    14 A    15 A    16 A                  
  0.689   0.709   0.785   0.808   0.862   0.936   0.973   1.010
 17 A    18 A    19 A    20 A    21 A    22 A    23 A    24 A                  
  1.131   1.235   1.253   1.265   1.294   1.601   1.729   1.751
 25 A    26 A    27 A    28 A    29 A    30 A    31 A    32 A                  
  1.819   1.858   1.867   1.921   1.976   1.979   2.223   2.258
 33 A    34 A    35 A    36 A    37 A    38 A    39 A    40 A                  
  2.375   2.454   2.508   2.636   2.721   2.823   3.139   3.401
 41 A    42 A    43 A    44 A    45 A    46 A    47 A    48 A                  
  Import AO data ...  CPU 0.00 s  wall 0.00 s
  Using point group: C1
  Irreducible representations in point group: A
  Molecular orbitals: 
  Occupied MOs:
  Block   0:   1 (  A) A   2 (  A) A   3 (  A) A   4 (  A) A   5 (  A) A
                  -11.24      -11.23      -1.032     -0.7901      -0.641
               6 (  A) A   7 (  A) A   8 (  A) A
                 -0.5823     -0.5045      -0.374
  Block   1:   1 (  A) B   2 (  A) B   3 (  A) B   4 (  A) B   5 (  A) B
                  -11.24      -11.23      -1.032     -0.7901      -0.641
               6 (  A) B   7 (  A) B   8 (  A) B
                 -0.5823     -0.5045      -0.374
  Virtual MOs:
  Block   0:   9 (  A) A  10 (  A) A  11 (  A) A  12 (  A) A  13 (  A) A
                  0.1684      0.2038      0.2331      0.2393      0.3033
              14 (  A) A  15 (  A) A  16 (  A) A  17 (  A) A  18 (  A) A
                  0.4623      0.5777      0.6146      0.6891      0.7093
              19 (  A) A  20 (  A) A  21 (  A) A  22 (  A) A
                  0.7846       0.808      0.8623       0.936
  Block   1:  23 (  A) A  24 (  A) A  25 (  A) A  26 (  A) A  27 (  A) A
                  0.9727        1.01       1.131       1.235       1.253
              28 (  A) A  29 (  A) A  30 (  A) A  31 (  A) A  32 (  A) A
                   1.265       1.294       1.601       1.729       1.751
              33 (  A) A  34 (  A) A  35 (  A) A  36 (  A) A
                   1.819       1.858       1.867       1.921
  Block   2:  37 (  A) A  38 (  A) A  39 (  A) A  40 (  A) A  41 (  A) A
                   1.976       1.979       2.223       2.258       2.375
              42 (  A) A  43 (  A) A  44 (  A) A  45 (  A) A  46 (  A) A
                   2.454       2.508       2.636       2.721       2.823
              47 (  A) A  48 (  A) A
                   3.139       3.401
  Block   3:   9 (  A) B  10 (  A) B  11 (  A) B  12 (  A) B  13 (  A) B
                  0.1684      0.2038      0.2331      0.2393      0.3033
              14 (  A) B  15 (  A) B  16 (  A) B  17 (  A) B  18 (  A) B
                  0.4623      0.5777      0.6146      0.6891      0.7093
              19 (  A) B  20 (  A) B  21 (  A) B  22 (  A) B
                  0.7846       0.808      0.8623       0.936
  Block   4:  23 (  A) B  24 (  A) B  25 (  A) B  26 (  A) B  27 (  A) B
                  0.9727        1.01       1.131       1.235       1.253
              28 (  A) B  29 (  A) B  30 (  A) B  31 (  A) B  32 (  A) B
                   1.265       1.294       1.601       1.729       1.751
              33 (  A) B  34 (  A) B  35 (  A) B  36 (  A) B
                   1.819       1.858       1.867       1.921
  Block   5:  37 (  A) B  38 (  A) B  39 (  A) B  40 (  A) B  41 (  A) B
                   1.976       1.979       2.223       2.258       2.375
              42 (  A) B  43 (  A) B  44 (  A) B  45 (  A) B  46 (  A) B
                   2.454       2.508       2.636       2.721       2.823
              47 (  A) B  48 (  A) B
                   3.139       3.401
  Import MO data ...  CPU 0.01 s  wall 0.01 s
  Import HF data ...  CPU 0.07 s  wall 0.04 s
  Import 2e integrals ...  CPU 0.67 s  wall 0.13 s

--------------------------------------------------------------------------------
                                   HF Summary                                   
--------------------------------------------------------------------------------
  Energy:                                                  -78.0399284032 a.u.
  Dip. moment [a.u.]:                  [  -0.000178,    0.000312,    0.000547]
  Total dipole [Debye]:                                               0.001664
  <r^2> [a.u.]:                        [ 175.317824,   34.929959,   11.624588]
  Total <r^2> [a.u.]:                                               221.872371
--------------------------------------------------------------------------------
  HF properties ...  CPU 0.01 s  wall 0.00 s
  MP(1) calculation ...  CPU 0.01 s  wall 0.00 s
  N^6 prerequesite intermediates ...  CPU 0.44 s  wall 0.08 s
  Difference density matrix of state mp2_gs printed to ASCII file 'State_mp2_gs_Difference.txt'
Exporting MP density matrix to file 'Densmat_MP.txt'.
Export successful
  Total density matrix of state mp2_gs printed to ASCII file 'State_mp2_gs_Total.txt'
Exporting MP density matrix to file 'Densmat_MP.txt'.
Export successful

--------------------------------------------------------------------------------
                                 MP(2) Summary                                  
--------------------------------------------------------------------------------
  MP energy contribution:                                   -0.2796828795 a.u.
  Total energy:                                            -78.3196112827 a.u.
  Dip. moment [a.u.]:                  [  -0.000257,    0.000177,    0.000529]
  Total dipole [Debye]:                                               0.001561
  <r^2> [a.u.]:                        [ 175.364309,   34.970331,   11.456528]
  Total <r^2> [a.u.]:                                               221.791168

  Density matrix analysis:
  ------------------------
  NOs
    Occupation of frontier NOs:
       0.0453   1.9383
    Number of electrons: 16.000000
    Number of unpaired electrons: n_u =  0.40334, n_u,nl =  0.04506
    NO participation ratio (PR_NO): 13.856374
  
  
  Mulliken Population Analysis
  Atom      Charge (e)              h+              e-           Del q
  --------------------------------------------------------------------
   1 H        0.050627        0.014061       -0.011196        0.002865
   2 C       -0.100463        0.093081       -0.098833       -0.005752
   3 H        0.050334        0.014104       -0.011182        0.002922
   4 C       -0.101330        0.093032       -0.098886       -0.005854
   5 H        0.050181        0.014119       -0.011184        0.002934
   6 H        0.050650        0.014076       -0.011192        0.002884
  --------------------------------------------------------------------
  Sum:       -0.000000        0.242472       -0.242472        0.000000
  
  Multipole moment analysis of the density matrix
    Molecular charge:                      -0.000000
    Number of electrons:                   16.000000
      Center of electronic charge [Ang]: [ -1.560568,  -0.065921,   0.001961]
    Total nuclear charge:                  16.000000
      Center of nuclear charge [Ang]:    [ -1.560576,  -0.065915,   0.001978]
    Dipole moment [D]:                     0.001561
      Cartesian components [D]:          [ -0.000654,   0.000451,   0.001344]
    RMS size of the density [Ang]:         1.200841
      Cartesian components [Ang]:        [  0.796126,   0.779550,   0.447779]
  
  Exciton analysis of the difference density matrix
    <r_h> [Ang]:                  [ -1.560734,  -0.066109,   0.001855]
    <r_e> [Ang]:                  [ -1.560560,  -0.065815,   0.001896]
    |<r_e - r_h>| [Ang]:            0.000344
    Hole size [Ang]:                1.393658
      Cartesian components [Ang]: [  0.846440,   0.834327,   0.727820]
    Electron size [Ang]:            1.359811
      Cartesian components [Ang]: [  0.877889,   0.861839,   0.579336]
--------------------------------------------------------------------------------
  MP(2) calculation ...  CPU 0.20 s  wall 0.10 s
  Start ADC(2)-s ...  CPU 0.01 s  wall 0.00 s
  ADC(2) intermediates ...  CPU 0.02 s  wall 0.01 s
  Starting Davidson for singlet states of irrep A ... 
--------------------------------------------------------------------------------
   It NVec Conv  Avg. Norm  Max. Norm  Conv. states           Remark
--------------------------------------------------------------------------------
        10    0  1.330e-01  4.689e-01  0.4120 n n n n n n n n Guess.
    1   20    0  2.307e-02  1.110e-01  0.3262 n n n n n n n n 
    2   30    0  5.873e-03  2.614e-02  0.3215 n n n n n n n n 
    3   40    0  2.063e-03  1.461e-02  0.3211 n n n n n n n n 
    4   50    0  6.347e-04  4.833e-03  0.3211 n n n n n n n n 
    5   20    0  2.744e-04  2.033e-03  0.3211 n n n n n n n n Subspace collapsed.
    6   30    0  1.900e-04  1.725e-03  0.3211 n n n n n n n n 
    7   40    0  1.038e-04  8.889e-04  0.3211 n n n n n n n n 
    8   50    0  1.129e-04  1.083e-03  0.3211 n n n n n n n n 
    9   20    2  8.738e-05  8.440e-04  0.3211 n y n y n n n n Subspace collapsed.
   10   30    5  1.180e-04  1.166e-03  0.3211 n y y y y y n n 
   11   40    5  1.247e-04  1.244e-03  0.3211 n y y y y y n n 
   12   50    6  1.073e-04  1.073e-03  0.3211 y y y y y y n n 
   13   20    6  5.594e-05  5.591e-04  0.3211 y y y y y y n n Subspace collapsed.
   14   30    6  3.388e-05  3.385e-04  0.3211 y y y y y y n n 
   15   40    7  2.087e-05  2.084e-04  0.3211 y y y y y y n y 
   16   50    7  2.631e-05  2.631e-04  0.3211 y y y y y y n y 
   17   20    8  1.372e-05  1.372e-04  0.3211 y y y y y y n y Subspace collapsed.
   18   30    8  1.740e-05  1.740e-04  0.3211 y y y y y y n y 
   19   40    8  2.101e-05  2.101e-04  0.3211 y y y y y y n y 
   20   50    9  2.013e-05  2.013e-04  0.3211 y y y y y y y y 
   21   20    9  9.174e-06  9.174e-05  0.3211 y y y y y y y y Subspace collapsed.
   22   30    9  6.329e-06  6.329e-05  0.3211 y y y y y y y y 
   23   32    9  6.148e-06  6.148e-05  0.3211 y y y y y y y y 
   24   33    9  6.242e-06  6.242e-05  0.3211 y y y y y y y y 
   25   34    9  6.027e-06  6.027e-05  0.3211 y y y y y y y y 
   26   35    9  6.025e-06  6.025e-05  0.3211 y y y y y y y y 
   27   35    9  6.025e-06  6.025e-05  0.3211 y y y y y y y y 
   28   45    9  3.620e-06  3.620e-05  0.3211 y y y y y y y y 
   29   50    9  4.113e-06  4.113e-05  0.3211 y y y y y y y y 
   30   16    9  2.543e-06  2.543e-05  0.3211 y y y y y y y y Subspace collapsed.
   31   21    9  3.916e-06  3.916e-05  0.3211 y y y y y y y y 
   32   26    9  3.549e-06  3.549e-05  0.3211 y y y y y y y y 
   33   31    9  3.639e-06  3.639e-05  0.3211 y y y y y y y y 
   34   35    9  2.363e-06  2.363e-05  0.3211 y y y y y y y y 
   35   39    9  1.437e-06  1.437e-05  0.3211 y y y y y y y y 
   36   43    9  8.715e-07  8.715e-06  0.3211 y y y y y y y y 
   37   47    9  4.691e-07  4.691e-06  0.3211 y y y y y y y y 
   38   50    9  2.002e-07  2.002e-06  0.3211 y y y y y y y y 
   39   14   10  9.587e-08  9.587e-07  0.3211 y y y y y y y y Converged.
--------------------------------------------------------------------------------
  Davidson Summary: 
 ------------------------------------------------------------
  State  0: excitation energy =   0.3211 a.u.   (converged)
  State  1: excitation energy =   0.3326 a.u.   (converged)
  State  2: excitation energy =   0.3372 a.u.   (converged)
  State  3: excitation energy =   0.3614 a.u.   (converged)
  State  4: excitation energy =   0.3754 a.u.   (converged)
  State  5: excitation energy =   0.3873 a.u.   (converged)
  State  6: excitation energy =   0.4248 a.u.   (converged)
  State  7: excitation energy =   0.4470 a.u.   (converged)
  State  8: excitation energy =   0.4563 a.u.   (converged)
  State  9: excitation energy =   0.4647 a.u.   (converged)
 ------------------------------------------------------------

  Singlet states of irrep A ...  CPU 91.35 s  wall 28.35 s
  TDMs ...  CPU 0.58 s  wall 0.25 s
  SDMs ...  CPU 2.98 s  wall 0.68 s
  Starting TPA DIIS iterations ... 
------------------------------------ 
   It     Res. Norm  Remark
------------------------------------
                       Guess.
    1     4.408e+00  
    2     5.843e+00  
    3     1.077e+00  
    4     2.563e-01  
    5     6.573e-02  
    6     2.673e-02  
    7     8.238e-03  
    8     1.437e-03  
    9     5.338e-04  
   10     8.983e-05  
   11     2.816e-05  
   12     4.372e-06  
   13     1.412e-06  
   14     4.288e-07  Converged.
   ... Converged in 14 steps (norm: 4.28759e-07)
------------------------------------
  Starting TPA DIIS iterations ... 
------------------------------------ 
   It     Res. Norm  Remark
------------------------------------
                       Guess.
    1     4.184e+00  
    2     5.542e+00  
    3     1.030e+00  
    4     2.556e-01  
    5     6.532e-02  
    6     2.675e-02  
    7     8.125e-03  
    8     1.456e-03  
    9     5.376e-04  
   10     8.999e-05  
   11     2.842e-05  
   12     4.342e-06  
   13     1.426e-06  
   14     4.218e-07  Converged.
   ... Converged in 14 steps (norm: 4.21799e-07)
------------------------------------
  Starting TPA DIIS iterations ... 
------------------------------------ 
   It     Res. Norm  Remark
------------------------------------
                       Guess.
    1     6.873e-01  
    2     4.829e-01  
    3     1.705e-01  
    4     6.030e-02  
    5     1.830e-02  
    6     6.618e-03  
    7     1.033e-03  
    8     4.466e-04  
    9     1.235e-04  
   10     2.997e-05  
   11     5.138e-06  
   12     1.599e-06  
   13     8.981e-07  Converged.
   ... Converged in 13 steps (norm: 8.9812e-07)
------------------------------------
  Starting TPA DIIS iterations ... 
------------------------------------ 
   It     Res. Norm  Remark
------------------------------------
                       Guess.
    1     4.693e+00  
    2     6.356e+00  
    3     1.157e+00  
    4     2.846e-01  
    5     7.399e-02  
    6     3.034e-02  
    7     9.334e-03  
    8     1.626e-03  
    9     6.084e-04  
   10     1.029e-04  
   11     3.259e-05  
   12     5.102e-06  
   13     1.661e-06  
   14     5.035e-07  Converged.
   ... Converged in 14 steps (norm: 5.03548e-07)
------------------------------------
  Starting TPA DIIS iterations ... 
------------------------------------ 
   It     Res. Norm  Remark
------------------------------------
                       Guess.
    1     4.454e+00  
    2     6.027e+00  
    3     1.107e+00  
    4     2.837e-01  
    5     7.355e-02  
    6     3.039e-02  
    7     9.209e-03  
    8     1.648e-03  
    9     6.128e-04  
   10     1.031e-04  
   11     3.288e-05  
   12     5.064e-06  
   13     1.675e-06  
   14     4.952e-07  Converged.
   ... Converged in 14 steps (norm: 4.95159e-07)
------------------------------------
  Starting TPA DIIS iterations ... 
------------------------------------ 
   It     Res. Norm  Remark
------------------------------------
                       Guess.
    1     6.992e-01  
    2     5.001e-01  
    3     1.803e-01  
    4     6.817e-02  
    5     1.970e-02  
    6     7.229e-03  
    7     1.166e-03  
    8     5.259e-04  
    9     1.492e-04  
   10     3.434e-05  
   11     5.830e-06  
   12     1.886e-06  
   13     1.128e-06  
   14     4.241e-07  Converged.
   ... Converged in 14 steps (norm: 4.24115e-07)
------------------------------------
  Starting TPA DIIS iterations ... 
------------------------------------ 
   It     Res. Norm  Remark
------------------------------------
                       Guess.
    1     4.813e+00  
    2     6.575e+00  
    3     1.191e+00  
    4     2.969e-01  
    5     7.758e-02  
    6     3.192e-02  
    7     9.810e-03  
    8     1.708e-03  
    9     6.409e-04  
   10     1.087e-04  
   11     3.455e-05  
   12     5.425e-06  
   13     1.772e-06  
   14     5.367e-07  Converged.
   ... Converged in 14 steps (norm: 5.36731e-07)
------------------------------------
  Starting TPA DIIS iterations ... 
------------------------------------ 
   It     Res. Norm  Remark
------------------------------------
                       Guess.
    1     4.568e+00  
    2     6.234e+00  
    3     1.139e+00  
    4     2.958e-01  
    5     7.712e-02  
    6     3.198e-02  
    7     9.681e-03  
    8     1.732e-03  
    9     6.456e-04  
   10     1.089e-04  
   11     3.485e-05  
   12     5.384e-06  
   13     1.787e-06  
   14     5.277e-07  Converged.
   ... Converged in 14 steps (norm: 5.27747e-07)
------------------------------------
  Starting TPA DIIS iterations ... 
------------------------------------ 
   It     Res. Norm  Remark
------------------------------------
                       Guess.
    1     7.040e-01  
    2     5.072e-01  
    3     1.844e-01  
    4     7.164e-02  
    5     2.028e-02  
    6     7.495e-03  
    7     1.224e-03  
    8     5.614e-04  
    9     1.607e-04  
   10     3.589e-05  
   11     6.125e-06  
   12     2.014e-06  
   13     1.237e-06  
   14     4.593e-07  Converged.
   ... Converged in 14 steps (norm: 4.59253e-07)
------------------------------------
  Starting TPA DIIS iterations ... 
------------------------------------ 
   It     Res. Norm  Remark
------------------------------------
                       Guess.
    1     5.552e+00  
    2     7.952e+00  
    3     1.398e+00  
    4     3.767e-01  
    5     1.009e-01  
    6     4.226e-02  
    7     1.291e-02  
    8     2.238e-03  
    9     8.544e-04  
   10     1.463e-04  
   11     4.767e-05  
   12     7.590e-06  
   13     2.532e-06  
   14     7.618e-07  Converged.
   ... Converged in 14 steps (norm: 7.61794e-07)
------------------------------------
  Starting TPA DIIS iterations ... 
------------------------------------ 
   It     Res. Norm  Remark
------------------------------------
                       Guess.
    1     5.267e+00  
    2     7.540e+00  
    3     1.336e+00  
    4     3.747e-01  
    5     1.003e-01  
    6     4.242e-02  
    7     1.275e-02  
    8     2.273e-03  
    9     8.605e-04  
   10     1.467e-04  
   11     4.799e-05  
   12     7.522e-06  
   13     2.546e-06  
   14     7.496e-07  Converged.
   ... Converged in 14 steps (norm: 7.4963e-07)
------------------------------------
  Starting TPA DIIS iterations ... 
------------------------------------ 
   It     Res. Norm  Remark
------------------------------------
                       Guess.
    1     7.308e-01  
    2     5.485e-01  
    3     2.088e-01  
    4     9.492e-02  
    5     2.381e-02  
    6     9.224e-03  
    7     1.621e-03  
    8     7.982e-04  
    9     2.361e-04  
   10     4.151e-05  
   11     8.017e-06  
   12     2.907e-06  
   13     2.051e-06  
   14     7.134e-07  Converged.
   ... Converged in 14 steps (norm: 7.13445e-07)
------------------------------------
  Starting TPA DIIS iterations ... 
------------------------------------ 
   It     Res. Norm  Remark
------------------------------------
                       Guess.
    1     6.066e+00  
    2     8.944e+00  
    3     1.541e+00  
    4     4.364e-01  
    5     1.183e-01  
    6     5.008e-02  
    7     1.522e-02  
    8     2.632e-03  
    9     1.016e-03  
   10     1.748e-04  
   11     5.782e-05  
   12     9.263e-06  
   13     3.137e-06  
   14     9.407e-07  Converged.
   ... Converged in 14 steps (norm: 9.40677e-07)
------------------------------------
  Starting TPA DIIS iterations ... 
------------------------------------ 
   It     Res. Norm  Remark
------------------------------------
                       Guess.
    1     5.753e+00  
    2     8.480e+00  
    3     1.472e+00  
    4     4.335e-01  
    5     1.177e-01  
    6     5.033e-02  
    7     1.504e-02  
    8     2.676e-03  
    9     1.023e-03  
   10     1.752e-04  
   11     5.812e-05  
   12     9.173e-06  
   13     3.146e-06  
   14     9.273e-07  Converged.
   ... Converged in 14 steps (norm: 9.27284e-07)
------------------------------------
  Starting TPA DIIS iterations ... 
------------------------------------ 
   It     Res. Norm  Remark
------------------------------------
                       Guess.
    1     7.472e-01  
    2     5.753e-01  
    3     2.252e-01  
    4     1.130e-01  
    5     2.630e-02  
    6     1.053e-02  
    7     1.934e-03  
    8     9.706e-04  
    9     2.899e-04  
   10     4.269e-05  
   11     9.449e-06  
   12     3.624e-06  
   13     2.769e-06  
   14     9.313e-07  Converged.
   ... Converged in 14 steps (norm: 9.31317e-07)
------------------------------------
  Starting TPA DIIS iterations ... 
------------------------------------ 
   It     Res. Norm  Remark
------------------------------------
                       Guess.
    1     6.567e+00  
    2     9.935e+00  
    3     1.679e+00  
    4     4.976e-01  
    5     1.361e-01  
    6     5.817e-02  
    7     1.760e-02  
    8     3.036e-03  
    9     1.182e-03  
   10     2.043e-04  
   11     6.840e-05  
   12     1.101e-05  
   13     3.780e-06  
   14     1.134e-06  
   15     4.150e-07  Converged.
   ... Converged in 15 steps (norm: 4.15042e-07)
------------------------------------
  Starting TPA DIIS iterations ... 
------------------------------------ 
   It     Res. Norm  Remark
------------------------------------
                       Guess.
    1     6.227e+00  
    2     9.419e+00  
    3     1.604e+00  
    4     4.938e-01  
    5     1.355e-01  
    6     5.851e-02  
    7     1.739e-02  
    8     3.087e-03  
    9     1.190e-03  
   10     2.047e-04  
   11     6.866e-05  
   12     1.090e-05  
   13     3.780e-06  
   14     1.120e-06  
   15     3.533e-07  Converged.
   ... Converged in 15 steps (norm: 3.53251e-07)
------------------------------------
  Starting TPA DIIS iterations ... 
------------------------------------ 
   It     Res. Norm  Remark
------------------------------------
                       Guess.
    1     7.617e-01  
    2     6.001e-01  
    3     2.407e-01  
    4     1.318e-01  
    5     2.879e-02  
    6     1.187e-02  
    7     2.267e-03  
    8     1.134e-03  
    9     3.413e-04  
   10     4.315e-05  
   11     1.096e-05  
   12     4.391e-06  
   13     3.585e-06  
   14     1.178e-06  
   15     4.007e-07  Converged.
   ... Converged in 15 steps (norm: 4.00737e-07)
------------------------------------
  Starting TPA DIIS iterations ... 
------------------------------------ 
   It     Res. Norm  Remark
------------------------------------
                       Guess.
    1     8.675e+00  
    2     1.435e+01  
    3     2.252e+00  
    4     7.825e-01  
    5     2.193e-01  
    6     9.666e-02  
    7     2.867e-02  
    8     4.906e-03  
    9     1.973e-03  
   10     3.434e-04  
   11     1.184e-04  
   12     1.931e-05  
   13     6.908e-06  
   14     2.171e-06  
   15     8.598e-07  Converged.
   ... Converged in 15 steps (norm: 8.5979e-07)
------------------------------------
  Starting TPA DIIS iterations ... 
------------------------------------ 
   It     Res. Norm  Remark
------------------------------------
                       Guess.
    1     8.224e+00  
    2     1.360e+01  
    3     2.149e+00  
    4     7.737e-01  
    5     2.185e-01  
    6     9.751e-02  
    7     2.836e-02  
    8     4.997e-03  
    9     1.983e-03  
   10     3.440e-04  
   11     1.183e-04  
   12     1.914e-05  
   13     6.810e-06  
   14     2.177e-06  
   15     6.530e-07  Converged.
   ... Converged in 15 steps (norm: 6.53049e-07)
------------------------------------
  Starting TPA DIIS iterations ... 
------------------------------------ 
   It     Res. Norm  Remark
------------------------------------
                       Guess.
    1     8.118e-01  
    2     6.938e-01  
    3     3.024e-01  
    4     2.209e-01  
    5     4.012e-02  
    6     1.807e-02  
    7     3.930e-03  
    8     1.651e-03  
    9     5.391e-04  
   10     5.196e-05  
   11     1.867e-05  
   12     8.217e-06  
   13     8.172e-06  
   14     2.613e-06  
   15     9.254e-07  Converged.
   ... Converged in 15 steps (norm: 9.25428e-07)
------------------------------------
  Starting TPA DIIS iterations ... 
------------------------------------ 
   It     Res. Norm  Remark
------------------------------------
                       Guess.
    1     1.049e+01  
    2     1.842e+01  
    3     2.732e+00  
    4     1.055e+00  
    5     2.996e-01  
    6     1.347e-01  
    7     3.935e-02  
    8     6.698e-03  
    9     2.750e-03  
   10     4.788e-04  
   11     1.655e-04  
   12     2.746e-05  
   13     9.955e-06  
   14     3.381e-06  
   15     1.421e-06  
   16     5.005e-07  Converged.
   ... Converged in 16 steps (norm: 5.00497e-07)
------------------------------------
  Starting TPA DIIS iterations ... 
------------------------------------ 
   It     Res. Norm  Remark
------------------------------------
                       Guess.
    1     9.940e+00  
    2     1.746e+01  
    3     2.606e+00  
    4     1.040e+00  
    5     2.986e-01  
    6     1.361e-01  
    7     3.894e-02  
    8     6.826e-03  
    9     2.761e-03  
   10     4.795e-04  
   11     1.649e-04  
   12     2.736e-05  
   13     9.686e-06  
   14     3.426e-06  
   15     9.985e-07  Converged.
   ... Converged in 15 steps (norm: 9.98484e-07)
------------------------------------
  Starting TPA DIIS iterations ... 
------------------------------------ 
   It     Res. Norm  Remark
------------------------------------
                       Guess.
    1     8.451e-01  
    2     7.644e-01  
    3     3.513e-01  
    4     3.023e-01  
    5     5.073e-02  
    6     2.371e-02  
    7     5.597e-03  
    8     1.863e-03  
    9     6.900e-04  
   10     7.006e-05  
   11     2.691e-05  
   12     1.211e-05  
   13     1.347e-05  
   14     4.395e-06  
   15     1.837e-06  
   16     1.316e-06  
   17     5.158e-07  Converged.
   ... Converged in 17 steps (norm: 5.15791e-07)
------------------------------------
  Starting TPA DIIS iterations ... 
------------------------------------ 
   It     Res. Norm  Remark
------------------------------------
                       Guess.
    1     1.143e+01  
    2     2.063e+01  
    3     2.976e+00  
    4     1.203e+00  
    5     3.439e-01  
    6     1.559e-01  
    7     4.524e-02  
    8     7.684e-03  
    9     3.183e-03  
   10     5.537e-04  
   11     1.907e-04  
   12     3.205e-05  
   13     1.168e-05  
   14     4.129e-06  
   15     1.809e-06  
   16     6.584e-07  Converged.
   ... Converged in 16 steps (norm: 6.58422e-07)
------------------------------------
  Starting TPA DIIS iterations ... 
------------------------------------ 
   It     Res. Norm  Remark
------------------------------------
                       Guess.
    1     1.083e+01  
    2     1.955e+01  
    3     2.839e+00  
    4     1.186e+00  
    5     3.428e-01  
    6     1.577e-01  
    7     4.478e-02  
    8     7.831e-03  
    9     3.195e-03  
   10     5.544e-04  
   11     1.898e-04  
   12     3.206e-05  
   13     1.129e-05  
   14     4.196e-06  
   15     1.248e-06  
   16     7.059e-07  Converged.
   ... Converged in 16 steps (norm: 7.05881e-07)
------------------------------------
  Starting TPA DIIS iterations ... 
------------------------------------ 
   It     Res. Norm  Remark
------------------------------------
                       Guess.
    1     8.600e-01  
    2     7.984e-01  
    3     3.755e-01  
    4     3.434e-01  
    5     5.645e-02  
    6     2.659e-02  
    7     6.512e-03  
    8     1.921e-03  
    9     7.640e-04  
   10     8.113e-05  
   11     3.173e-05  
   12     1.434e-05  
   13     1.671e-05  
   14     5.529e-06  
   15     2.539e-06  
   16     1.717e-06  
   17     6.918e-07  Converged.
   ... Converged in 17 steps (norm: 6.9182e-07)
------------------------------------
  Starting TPA DIIS iterations ... 
------------------------------------ 
   It     Res. Norm  Remark
------------------------------------
                       Guess.
    1     1.241e+01  
    2     2.299e+01  
    3     3.228e+00  
    4     1.363e+00  
    5     3.919e-01  
    6     1.792e-01  
    7     5.163e-02  
    8     8.752e-03  
    9     3.656e-03  
   10     6.351e-04  
   11     2.176e-04  
   12     3.713e-05  
   13     1.364e-05  
   14     5.001e-06  
   15     2.305e-06  
   16     8.612e-07  Converged.
   ... Converged in 16 steps (norm: 8.61196e-07)
------------------------------------
  Starting TPA DIIS iterations ... 
------------------------------------ 
   It     Res. Norm  Remark
------------------------------------
                       Guess.
    1     1.176e+01  
    2     2.180e+01  
    3     3.079e+00  
    4     1.342e+00  
    5     3.907e-01  
    6     1.813e-01  
    7     5.111e-02  
    8     8.921e-03  
    9     3.668e-03  
   10     6.357e-04  
   11     2.165e-04  
   12     3.731e-05  
   13     1.309e-05  
   14     5.087e-06  
   15     1.582e-06  
   16     9.307e-07  Converged.
   ... Converged in 16 steps (norm: 9.30677e-07)
------------------------------------
  Starting TPA DIIS iterations ... 
------------------------------------ 
   It     Res. Norm  Remark
------------------------------------
                       Guess.
    1     8.742e-01  
    2     8.324e-01  
    3     4.000e-01  
    4     3.844e-01  
    5     6.255e-02  
    6     2.950e-02  
    7     7.491e-03  
    8     1.965e-03  
    9     8.393e-04  
   10     9.320e-05  
   11     3.716e-05  
   12     1.689e-05  
   13     2.052e-05  
   14     6.875e-06  
   15     3.453e-06  
   16     2.186e-06  
   17     8.960e-07  Converged.
   ... Converged in 17 steps (norm: 8.95986e-07)
------------------------------------
  Two-photon absorbption ...  CPU 85.22 s  wall 19.01 s
  Transition density matrix of state singlet_A_1 printed to ASCII file 'State_singlet_A_1_Transition.txt'
  Transition density matrix of state singlet_A_2 printed to ASCII file 'State_singlet_A_2_Transition.txt'
  Transition density matrix of state singlet_A_3 printed to ASCII file 'State_singlet_A_3_Transition.txt'
  Transition density matrix of state singlet_A_4 printed to ASCII file 'State_singlet_A_4_Transition.txt'
  Transition density matrix of state singlet_A_5 printed to ASCII file 'State_singlet_A_5_Transition.txt'
  Transition density matrix of state singlet_A_6 printed to ASCII file 'State_singlet_A_6_Transition.txt'
  Transition density matrix of state singlet_A_7 printed to ASCII file 'State_singlet_A_7_Transition.txt'
  Transition density matrix of state singlet_A_8 printed to ASCII file 'State_singlet_A_8_Transition.txt'
  Transition density matrix of state singlet_A_9 printed to ASCII file 'State_singlet_A_9_Transition.txt'
  Transition density matrix of state singlet_A_10 printed to ASCII file 'State_singlet_A_10_Transition.txt'
  Transition properties ...  CPU 0.13 s  wall 0.27 s
  Difference density matrix of state singlet_A_1 printed to ASCII file 'State_singlet_A_1_Difference.txt'
  Total density matrix of state singlet_A_1 printed to ASCII file 'State_singlet_A_1_Total.txt'
  Difference density matrix of state singlet_A_2 printed to ASCII file 'State_singlet_A_2_Difference.txt'
  Total density matrix of state singlet_A_2 printed to ASCII file 'State_singlet_A_2_Total.txt'
  Difference density matrix of state singlet_A_3 printed to ASCII file 'State_singlet_A_3_Difference.txt'
  Total density matrix of state singlet_A_3 printed to ASCII file 'State_singlet_A_3_Total.txt'
  Difference density matrix of state singlet_A_4 printed to ASCII file 'State_singlet_A_4_Difference.txt'
  Total density matrix of state singlet_A_4 printed to ASCII file 'State_singlet_A_4_Total.txt'
  Difference density matrix of state singlet_A_5 printed to ASCII file 'State_singlet_A_5_Difference.txt'
  Total density matrix of state singlet_A_5 printed to ASCII file 'State_singlet_A_5_Total.txt'
  Difference density matrix of state singlet_A_6 printed to ASCII file 'State_singlet_A_6_Difference.txt'
  Total density matrix of state singlet_A_6 printed to ASCII file 'State_singlet_A_6_Total.txt'
  Difference density matrix of state singlet_A_7 printed to ASCII file 'State_singlet_A_7_Difference.txt'
  Total density matrix of state singlet_A_7 printed to ASCII file 'State_singlet_A_7_Total.txt'
  Difference density matrix of state singlet_A_8 printed to ASCII file 'State_singlet_A_8_Difference.txt'
  Total density matrix of state singlet_A_8 printed to ASCII file 'State_singlet_A_8_Total.txt'
  Difference density matrix of state singlet_A_9 printed to ASCII file 'State_singlet_A_9_Difference.txt'
  Total density matrix of state singlet_A_9 printed to ASCII file 'State_singlet_A_9_Total.txt'
  Difference density matrix of state singlet_A_10 printed to ASCII file 'State_singlet_A_10_Difference.txt'
  Total density matrix of state singlet_A_10 printed to ASCII file 'State_singlet_A_10_Total.txt'
  Properties ...  CPU 0.24 s  wall 0.61 s
  ISR TDMS ...  CPU 14.48 s  wall 3.74 s
  ISR transition properties ...  CPU 0.14 s  wall 0.07 s
  Sum-over-states TPA ...  CPU 0.00 s  wall 0.00 s

--------------------------------------------------------------------------------
                   State-averaged natural transition orbitals
--------------------------------------------------------------------------------
--------------------------------------------------------------------------------
  SA-NTO decomposition ...  CPU 0.01 s  wall 0.02 s

--------------------------------------------------------------------------------
                             Excited State Summary
--------------------------------------------------------------------------------
--------------------------------------------------------------------------------

  Excited state 1 (singlet, A)                                     [converged]
  ----------------------------------------------------------------------------
  Term symbol:  2 (1) A                                     R^2 =  9.10782e-14

  Total energy:                                            -77.9985417158 a.u.
  Excitation energy:                                               8.736747 eV

  Osc. strength:                                                      0.445588
  Trans. dip. moment [a.u.]:           [   1.045069,   -0.994725,   -0.009339]
  <i|r^2|0> [a.u.]:                    [   6.164647,   -0.249041,   -0.000149]
  Two-photon absorption cross-section (SoS) [a.u.]:                   0.000229
  Two-photon absorption matrix (SoS) [a.u.]:
                                       |    0.006181    0.000517   -0.000149 |
                                       |    0.000517   -0.002126    0.000101 |
                                       |   -0.000149    0.000101    0.001007 |
  Two-photon absorption cross-section [a.u.]:                         0.000390
  Two-photon absorption matrix [a.u.]:
                                       |    0.005057   -0.000403    0.000284 |
                                       |   -0.000403   -0.008052    0.001296 |
                                       |    0.000284    0.001296    0.000593 |

  Dip. moment [a.u.]:                  [  -0.000319,   -0.000009,    0.000641]
  Total dipole [Debye]:                                               0.001821
  <r^2> [a.u.]:                        [ 176.117950,   35.659978,   11.866570]
  Total <r^2> [a.u.]:                                               223.644499

  V1^2 = 0.9715, V2^2 = 0.0285

  Important amplitudes:
      occ i     occ j     vir a      vir b          v   
    -----------------------------------------------------
     8 (A) A              9 (A) A                 0.6811
     6 (A) A             14 (A) A                -0.0623
     4 (A) A             10 (A) A                 0.0606
     7 (A) A             16 (A) A                 0.0571
     5 (A) A             13 (A) A                -0.0513
     6 (A) A             23 (A) A                -0.0485
     8 (A) A             20 (A) A                 0.0349
     6 (A) A             19 (A) A                -0.0309
     3 (A) A             12 (A) A                 0.0281
     5 (A) A             22 (A) A                 0.0215
     7 (A) A             11 (A) A                 0.0207
     4 (A) A             24 (A) A                 0.0187
     3 (A) A             26 (A) A                -0.0185
     8 (A) A   8 (A) B   17 (A) A   20 (A) B     -0.0184
     8 (A) A   8 (A) B    9 (A) A   28 (A) B     -0.0168
     6 (A) A             26 (A) A                -0.0164
     7 (A) A             21 (A) A                 0.0147
     3 (A) A             14 (A) A                -0.0139
     6 (A) A             12 (A) A                -0.0131
     3 (A) A   4 (A) B    9 (A) A    9 (A) B     -0.0129
     3 (A) A             19 (A) A                -0.0119
     8 (A) A   8 (A) B   18 (A) A   19 (A) B      0.0113
     7 (A) A             32 (A) A                 0.0096
     7 (A) A             36 (A) A                 0.0086
     3 (A) A             23 (A) A                -0.0080
     8 (A) A   8 (A) B   25 (A) A   29 (A) B      0.0076
     6 (A) A             35 (A) A                -0.0073
     6 (A) A             40 (A) A                -0.0068
     3 (A) A   6 (A) B    9 (A) A   28 (A) B     -0.0065
     6 (A) A   8 (A) A   19 (A) A   28 (A) A     -0.0061
     5 (A) A   7 (A) B    9 (A) A    9 (A) B     -0.0060
     5 (A) A   8 (A) B   11 (A) A   20 (A) B     -0.0059
     7 (A) A   8 (A) B   13 (A) A   20 (A) B      0.0059
     5 (A) A   8 (A) B   16 (A) A    9 (A) B     -0.0059
     5 (A) A   8 (A) B   11 (A) A    9 (A) B      0.0059
     3 (A) A   5 (A) B    9 (A) A   25 (A) B     -0.0058
     3 (A) A             40 (A) A                -0.0057
     7 (A) A   8 (A) B   22 (A) A   20 (A) B     -0.0057
     6 (A) A   8 (A) A    9 (A) A   18 (A) A     -0.0057
     8 (A) A   8 (A) B   19 (A) A   30 (A) B      0.0056
    -----------------------------------------------------

  Density matrix analysis:
  ------------------------
  NOs
    Occupation of frontier NOs:
       0.9495   1.0217
    Number of electrons: 16.000000
    Number of unpaired electrons: n_u =  2.31332, n_u,nl =  2.03262
    NO participation ratio (PR_NO):  2.863573
  
  
  Mulliken Population Analysis
  Atom      Charge (e)              h+              e-           Del q
  --------------------------------------------------------------------
   1 H        0.058430        0.020313       -0.012510        0.007803
   2 C       -0.115811        0.490845       -0.506194       -0.015349
   3 H        0.057937        0.020191       -0.012588        0.007603
   4 C       -0.116859        0.490771       -0.506300       -0.015529
   5 H        0.057822        0.020194       -0.012553        0.007641
   6 H        0.058480        0.020340       -0.012510        0.007830
  --------------------------------------------------------------------
  Sum:       -0.000000        1.062654       -1.062654       -0.000000
  
  Multipole moment analysis of the density matrix
    Molecular charge:                      0.000000
    Number of electrons:                   16.000000
      Center of electronic charge [Ang]: [ -1.560566,  -0.065915,   0.001957]
    Total nuclear charge:                  16.000000
      Center of nuclear charge [Ang]:    [ -1.560576,  -0.065915,   0.001978]
    Dipole moment [D]:                     0.001821
      Cartesian components [D]:          [ -0.000811,  -0.000024,   0.001630]
    RMS size of the density [Ang]:         1.214275
      Cartesian components [Ang]:        [  0.804371,   0.787254,   0.455722]
  
  Exciton analysis of the difference density matrix
    <r_h> [Ang]:                  [ -1.560272,  -0.065880,   0.001709]
    <r_e> [Ang]:                  [ -1.560242,  -0.065786,   0.001653]
    |<r_e - r_h>| [Ang]:            0.000113
    Hole size [Ang]:                1.285440
      Cartesian components [Ang]: [  0.728438,   0.712696,   0.783453]
    Electron size [Ang]:            1.463164
      Cartesian components [Ang]: [  0.854000,   0.830471,   0.849619]

  Transition density matrix analysis:
  -----------------------------------
  
  CT numbers (Mulliken)
    omega =     0.9535
    <Phe> =    -0.1607
  
  Exciton analysis of the transition density matrix
    Trans. dipole moment [D]:             1.833643
      Cartesian components [D]:         [  1.328150,  -1.264169,  -0.011869]
    <r_h> [Ang]:                        [ -1.560161,  -0.065921,   0.001763]
    <r_e> [Ang]:                        [ -1.560262,  -0.065789,   0.001610]
    |<r_e - r_h>| [Ang]:                  0.000226
    Hole size [Ang]:                      1.214136
      Cartesian components [Ang]:       [  0.649558,   0.636447,   0.804447]
    Electron size [Ang]:                  1.486031
      Cartesian components [Ang]:       [  0.864442,   0.839386,   0.869746]
    RMS electron-hole separation [Ang]:   1.936779
      Cartesian components [Ang]:       [  1.106827,   1.075173,   1.170491]
    Covariance(r_h, r_e) [Ang^2]:        -0.034349
    Correlation coefficient:             -0.019038
    Center-of-mass size [Ang]:            0.950489
      Cartesian components [Ang]:       [  0.527566,   0.515575,   0.599404]

  Decomposition into state-averaged NTOs
    H- 0 -> L+ 0: -0.6699 ( 89.8%)
    H- 2 -> L+ 5: -0.0836 (  1.4%)
                   omega =  95.4%
  ----------------------------------------------------------------------------


  Excited state 2 (singlet, A)                                     [converged]
  ----------------------------------------------------------------------------
  Term symbol:  3 (1) A                                     R^2 =  2.03304e-13

  Total energy:                                            -77.9869674202 a.u.
  Excitation energy:                                               9.051700 eV

  Osc. strength:                                                      0.000009
  Trans. dip. moment [a.u.]:           [  -0.001595,    0.002634,   -0.005724]
  <i|r^2|0> [a.u.]:                    [   0.054456,    0.087382,   -0.150553]
  Two-photon absorption cross-section (SoS) [a.u.]:                   4.833329
  Two-photon absorption matrix (SoS) [a.u.]:
                                       |    0.052111    0.058379   -0.536627 |
                                       |    0.058379    0.064930   -0.549986 |
                                       |   -0.536627   -0.549986   -0.116957 |
  Two-photon absorption cross-section [a.u.]:                         0.079043
  Two-photon absorption matrix [a.u.]:
                                       |   -0.002983   -0.007094    0.055570 |
                                       |   -0.007094   -0.011974    0.080950 |
                                       |    0.055570    0.080950    0.015034 |

  Dip. moment [a.u.]:                  [   0.002153,    0.010171,    0.001920]
  Total dipole [Debye]:                                               0.026872
  <r^2> [a.u.]:                        [ 174.564748,   33.963586,   13.172511]
  Total <r^2> [a.u.]:                                               221.700845

  V1^2 = 0.9542, V2^2 = 0.0458

  Important amplitudes:
      occ i     occ j     vir a      vir b          v   
    -----------------------------------------------------
     7 (A) A              9 (A) A                -0.6693
     8 (A) A             11 (A) A                -0.1473
     7 (A) A             20 (A) A                -0.0759
     5 (A) A   8 (A) B    9 (A) A    9 (A) B      0.0317
     8 (A) A             16 (A) A                 0.0272
     8 (A) A             21 (A) A                -0.0175
     5 (A) A             28 (A) A                 0.0151
     4 (A) A   7 (A) B    9 (A) A   19 (A) B     -0.0135
     5 (A) A   7 (A) B    9 (A) A   16 (A) B     -0.0134
     8 (A) A             10 (A) A                 0.0116
     7 (A) A   8 (A) B   20 (A) A   17 (A) B      0.0105
     7 (A) A   8 (A) A    9 (A) A   28 (A) A     -0.0098
     5 (A) A   8 (A) B    9 (A) A   20 (A) B      0.0096
     4 (A) A   6 (A) B    9 (A) A   16 (A) B      0.0091
     5 (A) A   6 (A) A    9 (A) A   23 (A) A      0.0091
     5 (A) A   6 (A) A    9 (A) A   14 (A) A      0.0089
     5 (A) A   6 (A) B    9 (A) A   19 (A) B      0.0087
     8 (A) A   7 (A) B    9 (A) A   28 (A) B      0.0085
     4 (A) A   5 (A) A    9 (A) A   10 (A) A      0.0084
     6 (A) A   7 (A) B    9 (A) A   18 (A) B      0.0083
     5 (A) A   6 (A) B    9 (A) A   23 (A) B      0.0080
     3 (A) A   7 (A) B    9 (A) A   18 (A) B     -0.0080
     5 (A) A   7 (A) A    9 (A) A   16 (A) A     -0.0079
     4 (A) A   8 (A) B    9 (A) A   25 (A) B      0.0077
     7 (A) A   8 (A) B   17 (A) A   20 (A) B      0.0074
     4 (A) A   7 (A) B   19 (A) A    9 (A) B     -0.0074
     5 (A) A   5 (A) B    9 (A) A   13 (A) B      0.0072
     7 (A) A   8 (A) B   19 (A) A   18 (A) B     -0.0072
     5 (A) A   8 (A) A    9 (A) A   20 (A) A      0.0069
     4 (A) A   5 (A) B    9 (A) A   18 (A) B     -0.0068
     7 (A) A   7 (A) B   20 (A) A   22 (A) B      0.0065
     7 (A) A   8 (A) B   17 (A) A    9 (A) B      0.0065
     5 (A) A   6 (A) B    9 (A) A   14 (A) B      0.0063
     4 (A) A   7 (A) A    9 (A) A   19 (A) A     -0.0061
     4 (A) A   5 (A) B   10 (A) A    9 (A) B     -0.0061
     5 (A) A             38 (A) A                 0.0060
     5 (A) A   7 (A) B   11 (A) A   20 (A) B      0.0060
     4 (A) A   7 (A) B    9 (A) A   14 (A) B      0.0060
     8 (A) A             12 (A) A                -0.0058
     4 (A) A   8 (A) A    9 (A) A   25 (A) A      0.0057
    -----------------------------------------------------

  Density matrix analysis:
  ------------------------
  NOs
    Occupation of frontier NOs:
       0.9583   1.0534
    Number of electrons: 16.000000
    Number of unpaired electrons: n_u =  2.35524, n_u,nl =  2.06253
    NO participation ratio (PR_NO):  3.025284
  
  
  Mulliken Population Analysis
  Atom      Charge (e)              h+              e-           Del q
  --------------------------------------------------------------------
   1 H        0.149068        0.120671       -0.022230        0.098441
   2 C       -0.301832        0.271399       -0.472768       -0.201369
   3 H        0.152294        0.128498       -0.026538        0.101960
   4 C       -0.302611        0.272727       -0.474008       -0.201281
   5 H        0.155768        0.128089       -0.022502        0.105587
   6 H        0.147313        0.122758       -0.026095        0.096663
  --------------------------------------------------------------------
  Sum:       -0.000000        1.044142       -1.044142       -0.000000
  
  Multipole moment analysis of the density matrix
    Molecular charge:                      -0.000000
    Number of electrons:                   16.000000
      Center of electronic charge [Ang]: [ -1.560647,  -0.066251,   0.001915]
    Total nuclear charge:                  16.000000
      Center of nuclear charge [Ang]:    [ -1.560576,  -0.065915,   0.001978]
    Dipole moment [D]:                     0.026872
      Cartesian components [D]:          [  0.005472,   0.025852,   0.004881]
    RMS size of the density [Ang]:         1.200061
      Cartesian components [Ang]:        [  0.787130,   0.768137,   0.480145]
  
  Exciton analysis of the difference density matrix
    <r_h> [Ang]:                  [ -1.564695,  -0.065843,   0.001852]
    <r_e> [Ang]:                  [ -1.565917,  -0.070908,   0.001147]
    |<r_e - r_h>| [Ang]:            0.005258
    Hole size [Ang]:                1.486353
      Cartesian components [Ang]: [  0.996882,   1.004562,   0.454233]
    Electron size [Ang]:            1.476654
      Cartesian components [Ang]: [  0.880633,   0.859333,   0.816419]

  Transition density matrix analysis:
  -----------------------------------
  
  CT numbers (Mulliken)
    omega =     0.9218
    <Phe> =    -0.0122
  
  Exciton analysis of the transition density matrix
    Trans. dipole moment [D]:             0.008260
      Cartesian components [D]:         [ -0.002026,   0.003348,  -0.007275]
    <r_h> [Ang]:                        [ -1.565119,  -0.065538,   0.001924]
    <r_e> [Ang]:                        [ -1.565832,  -0.071422,   0.001039]
    |<r_e - r_h>| [Ang]:                  0.005993
    Hole size [Ang]:                      1.515088
      Cartesian components [Ang]:       [  1.019288,   1.029354,   0.443819]
    Electron size [Ang]:                  1.473729
      Cartesian components [Ang]:       [  0.871297,   0.848560,   0.832265]
    RMS electron-hole separation [Ang]:   2.093784
      Cartesian components [Ang]:       [  1.325069,   1.319048,   0.942463]
    Covariance(r_h, r_e) [Ang^2]:         0.041736
    Correlation coefficient:              0.018692
    Center-of-mass size [Ang]:            1.066635
      Cartesian components [Ang]:       [  0.678308,   0.674424,   0.471976]

  Decomposition into state-averaged NTOs
    H- 1 -> L+ 0:  0.6617 ( 87.6%)
    H- 0 -> L+ 2: -0.1472 (  4.3%)
                   omega =  92.2%
  ----------------------------------------------------------------------------


  Excited state 3 (singlet, A)                                     [converged]
  ----------------------------------------------------------------------------
  Term symbol:  4 (1) A                                     R^2 =  2.14968e-13

  Total energy:                                            -77.9824287320 a.u.
  Excitation energy:                                               9.175204 eV

  Osc. strength:                                                      0.025308
  Trans. dip. moment [a.u.]:           [   0.015547,    0.020204,   -0.334571]
  <i|r^2|0> [a.u.]:                    [   0.091474,    0.002262,    0.004892]
  Two-photon absorption cross-section (SoS) [a.u.]:                   0.007450
  Two-photon absorption matrix (SoS) [a.u.]:
                                       |    0.009749    0.002597   -0.021813 |
                                       |    0.002597   -0.004213   -0.019565 |
                                       |   -0.021813   -0.019565    0.000571 |
  Two-photon absorption cross-section [a.u.]:                         0.007713
  Two-photon absorption matrix [a.u.]:
                                       |    0.009657    0.001842   -0.023051 |
                                       |    0.001842   -0.000626   -0.019159 |
                                       |   -0.023051   -0.019159   -0.001406 |

  Dip. moment [a.u.]:                  [   0.019110,    0.019145,    0.001325]
  Total dipole [Debye]:                                               0.068839
  <r^2> [a.u.]:                        [ 180.976364,   40.626340,   11.029489]
  Total <r^2> [a.u.]:                                               232.632193

  V1^2 = 0.9587, V2^2 = 0.0413

  Important amplitudes:
      occ i     occ j     vir a      vir b          v   
    -----------------------------------------------------
     8 (A) A             10 (A) A                 0.6890
     8 (A) A             24 (A) A                 0.0507
     8 (A) A             18 (A) A                -0.0312
     4 (A) A              9 (A) A                 0.0237
     8 (A) A   8 (A) B    9 (A) A   12 (A) B      0.0219
     8 (A) A   8 (A) B   10 (A) A   17 (A) B      0.0173
     8 (A) A             15 (A) A                 0.0167
     5 (A) A   8 (A) B   11 (A) A   10 (A) B      0.0165
     7 (A) A   8 (A) B   13 (A) A   10 (A) B     -0.0141
     7 (A) A              9 (A) A                 0.0120
     4 (A) A   8 (A) B   12 (A) A   10 (A) B      0.0111
     6 (A) A   8 (A) A   10 (A) A   15 (A) A     -0.0110
     7 (A) A   8 (A) B   22 (A) A   10 (A) B      0.0108
     6 (A) A   8 (A) B   15 (A) A   10 (A) B      0.0108
     4 (A) A   8 (A) A   10 (A) A   12 (A) A     -0.0106
     7 (A) A   8 (A) A   10 (A) A   22 (A) A     -0.0099
     7 (A) A   8 (A) A   10 (A) A   13 (A) A      0.0098
     5 (A) A   8 (A) B   21 (A) A   10 (A) B      0.0094
     5 (A) A   8 (A) A   10 (A) A   11 (A) A     -0.0094
     6 (A) A   8 (A) A   10 (A) A   18 (A) A     -0.0087
     6 (A) A   8 (A) B   10 (A) A   10 (A) B     -0.0087
     7 (A) A   8 (A) A   12 (A) A   16 (A) A      0.0082
     5 (A) A   8 (A) A   10 (A) A   21 (A) A     -0.0080
     3 (A) A   4 (A) B   10 (A) A    9 (A) B     -0.0079
     4 (A) A   8 (A) B   19 (A) A   10 (A) B     -0.0075
     8 (A) A   8 (A) B    9 (A) A   23 (A) B      0.0075
     8 (A) A   8 (A) B   10 (A) A   28 (A) B     -0.0073
     3 (A) A   8 (A) B   10 (A) A   10 (A) B      0.0072
     5 (A) A   8 (A) B   10 (A) A   11 (A) B      0.0071
     3 (A) A   8 (A) A   10 (A) A   24 (A) A     -0.0071
     7 (A) A   8 (A) B   16 (A) A   12 (A) B     -0.0071
     3 (A) A   8 (A) B   10 (A) A   18 (A) B     -0.0069
     8 (A) A   8 (A) B    9 (A) A   19 (A) B     -0.0068
     6 (A) A   8 (A) B   18 (A) A   10 (A) B      0.0066
     3 (A) A   6 (A) B   10 (A) A   28 (A) B     -0.0062
     7 (A) A   8 (A) B   12 (A) A   11 (A) B      0.0057
     6 (A) A             28 (A) A                 0.0057
     3 (A) A   5 (A) B   10 (A) A   25 (A) B     -0.0056
     5 (A) A   8 (A) A   10 (A) A   16 (A) A      0.0056
     3 (A) A   8 (A) A   10 (A) A   18 (A) A     -0.0056
    -----------------------------------------------------

  Density matrix analysis:
  ------------------------
  NOs
    Occupation of frontier NOs:
       0.9817   0.9848
    Number of electrons: 16.000000
    Number of unpaired electrons: n_u =  2.28573, n_u,nl =  2.02451
    NO participation ratio (PR_NO):  2.692971
  
  
  Mulliken Population Analysis
  Atom      Charge (e)              h+              e-           Del q
  --------------------------------------------------------------------
   1 H       -0.160335        0.054036       -0.264998       -0.210962
   2 C        0.328392        0.538072       -0.109218        0.428854
   3 H       -0.167741        0.053730       -0.271806       -0.218076
   4 C        0.327802        0.537953       -0.108821        0.429132
   5 H       -0.161844        0.054082       -0.266107       -0.212025
   6 H       -0.166274        0.053770       -0.270694       -0.216924
  --------------------------------------------------------------------
  Sum:       -0.000000        1.291644       -1.291644        0.000000
  
  Multipole moment analysis of the density matrix
    Molecular charge:                      -0.000000
    Number of electrons:                   16.000000
      Center of electronic charge [Ang]: [ -1.561208,  -0.066548,   0.001934]
    Total nuclear charge:                  16.000000
      Center of nuclear charge [Ang]:    [ -1.560576,  -0.065915,   0.001978]
    Dipole moment [D]:                     0.068839
      Cartesian components [D]:          [  0.048573,   0.048663,   0.003369]
    RMS size of the density [Ang]:         1.276587
      Cartesian components [Ang]:        [  0.854422,   0.840598,   0.439354]
  
  Exciton analysis of the difference density matrix
    <r_h> [Ang]:                  [ -1.560566,  -0.065992,   0.001810]
    <r_e> [Ang]:                  [ -1.568501,  -0.073763,   0.001483]
    |<r_e - r_h>| [Ang]:            0.011111
    Hole size [Ang]:                1.410428
      Cartesian components [Ang]: [  0.834084,   0.820060,   0.788106]
    Electron size [Ang]:            2.076952
      Cartesian components [Ang]: [  1.373886,   1.377547,   0.727001]

  Transition density matrix analysis:
  -----------------------------------
  
  CT numbers (Mulliken)
    omega =     0.9259
    <Phe> =    -0.0109
  
  Exciton analysis of the transition density matrix
    Trans. dipole moment [D]:             0.426429
      Cartesian components [D]:         [  0.019758,   0.025677,  -0.425197]
    <r_h> [Ang]:                        [ -1.559557,  -0.065263,   0.001756]
    <r_e> [Ang]:                        [ -1.571086,  -0.076391,   0.001340]
    |<r_e - r_h>| [Ang]:                  0.016029
    Hole size [Ang]:                      1.213034
      Cartesian components [Ang]:       [  0.636608,   0.623674,   0.822928]
    Electron size [Ang]:                  2.297319
      Cartesian components [Ang]:       [  1.518448,   1.525088,   0.803801]
    RMS electron-hole separation [Ang]:   2.588047
      Cartesian components [Ang]:       [  1.639042,   1.640735,   1.148701]
    Covariance(r_h, r_e) [Ang^2]:         0.025698
    Correlation coefficient:              0.009221
    Center-of-mass size [Ang]:            1.303890
      Cartesian components [Ang]:       [  0.826980,   0.827320,   0.575999]

  Decomposition into state-averaged NTOs
    H- 0 -> L+ 1:  0.6797 ( 92.4%)
                   omega =  92.6%
  ----------------------------------------------------------------------------


  Excited state 4 (singlet, A)                                     [converged]
  ----------------------------------------------------------------------------
  Term symbol:  5 (1) A                                     R^2 =  5.03507e-13

  Total energy:                                            -77.9581748081 a.u.
  Excitation energy:                                               9.835187 eV

  Osc. strength:                                                      0.000004
  Trans. dip. moment [a.u.]:           [   0.000555,   -0.000988,    0.003685]
  <i|r^2|0> [a.u.]:                    [   0.021108,    0.018286,   -0.036384]
  Two-photon absorption cross-section (SoS) [a.u.]:                 149.916137
  Two-photon absorption matrix (SoS) [a.u.]:
                                       |    0.291260    0.325483   -3.023011 |
                                       |    0.325483    0.359850   -3.029172 |
                                       |   -3.023011   -3.029172   -0.651058 |
  Two-photon absorption cross-section [a.u.]:                        91.925207
  Two-photon absorption matrix [a.u.]:
                                       |    0.229021    0.254889   -2.359534 |
                                       |    0.254889    0.281020   -2.379606 |
                                       |   -2.359534   -2.379606   -0.509988 |

  Dip. moment [a.u.]:                  [  -0.028187,   -0.027760,   -0.003762]
  Total dipole [Debye]:                                               0.101009
  <r^2> [a.u.]:                        [ 181.141359,   40.532366,   10.761569]
  Total <r^2> [a.u.]:                                               232.435294

  V1^2 = 0.9635, V2^2 = 0.0365

  Important amplitudes:
      occ i     occ j     vir a      vir b          v   
    -----------------------------------------------------
     8 (A) A             11 (A) A                -0.6698
     7 (A) A              9 (A) A                 0.1493
     8 (A) A             21 (A) A                -0.0781
     8 (A) A             16 (A) A                 0.0647
     8 (A) A   8 (A) B    9 (A) A   13 (A) B      0.0167
     5 (A) A   8 (A) B   11 (A) A   11 (A) B     -0.0155
     8 (A) A   8 (A) B   11 (A) A   17 (A) B     -0.0140
     7 (A) A             20 (A) A                 0.0136
     8 (A) A             12 (A) A                -0.0131
     7 (A) A   8 (A) B   13 (A) A   11 (A) B      0.0127
     5 (A) A   8 (A) A   11 (A) A   21 (A) A      0.0110
     4 (A) A   8 (A) B   12 (A) A   11 (A) B     -0.0110
     8 (A) A   8 (A) B    9 (A) A   22 (A) B     -0.0108
     7 (A) A   8 (A) A   11 (A) A   22 (A) A      0.0096
     6 (A) A   8 (A) B   15 (A) A   11 (A) B     -0.0090
     6 (A) A   8 (A) B   10 (A) A   11 (A) B      0.0090
     7 (A) A   8 (A) B   22 (A) A   11 (A) B     -0.0089
     6 (A) A              9 (A) A                -0.0087
     3 (A) A   4 (A) B   11 (A) A    9 (A) B      0.0083
     3 (A) A   8 (A) B   11 (A) A   18 (A) B      0.0081
     6 (A) A   8 (A) A   11 (A) A   15 (A) A      0.0080
     7 (A) A   8 (A) A   13 (A) A   16 (A) A      0.0078
     7 (A) A   8 (A) A   11 (A) A   13 (A) A     -0.0077
     5 (A) A   8 (A) B   21 (A) A   11 (A) B     -0.0071
     4 (A) A   8 (A) B   19 (A) A   11 (A) B      0.0070
     5 (A) A   8 (A) B    9 (A) A    9 (A) B     -0.0067
     4 (A) A   8 (A) A   11 (A) A   12 (A) A      0.0062
     6 (A) A   8 (A) A   11 (A) A   18 (A) A      0.0062
     3 (A) A   6 (A) B   11 (A) A   28 (A) B      0.0060
     6 (A) A   8 (A) B   18 (A) A   11 (A) B     -0.0060
     7 (A) A   8 (A) B   16 (A) A   13 (A) B     -0.0057
     3 (A) A   8 (A) A   11 (A) A   18 (A) A      0.0056
     5 (A) A   8 (A) B   10 (A) A   10 (A) B     -0.0056
     3 (A) A   8 (A) B   11 (A) A   30 (A) B      0.0055
     3 (A) A   5 (A) B   11 (A) A   25 (A) B      0.0055
     6 (A) A   8 (A) B   11 (A) A   10 (A) B      0.0054
     7 (A) A   8 (A) B   12 (A) A   10 (A) B     -0.0054
     8 (A) A   8 (A) B   20 (A) A   22 (A) B     -0.0053
     3 (A) A   8 (A) A   11 (A) A   24 (A) A      0.0053
     5 (A) A   8 (A) A   11 (A) A   16 (A) A     -0.0048
    -----------------------------------------------------

  Density matrix analysis:
  ------------------------
  NOs
    Occupation of frontier NOs:
       0.9413   1.0272
    Number of electrons: 16.000000
    Number of unpaired electrons: n_u =  2.31901, n_u,nl =  2.04871
    NO participation ratio (PR_NO):  2.911024
  
  
  Mulliken Population Analysis
  Atom      Charge (e)              h+              e-           Del q
  --------------------------------------------------------------------
   1 H       -0.150315        0.045630       -0.246572       -0.200943
   2 C        0.275170        0.497340       -0.121708        0.375633
   3 H       -0.124674        0.046939       -0.221948       -0.175009
   4 C        0.273669        0.497272       -0.122273        0.374999
   5 H       -0.134617        0.047067       -0.231866       -0.184798
   6 H       -0.139231        0.045588       -0.235470       -0.189881
  --------------------------------------------------------------------
  Sum:       -0.000000        1.179836       -1.179836        0.000000
  
  Multipole moment analysis of the density matrix
    Molecular charge:                      -0.000000
    Number of electrons:                   16.000000
      Center of electronic charge [Ang]: [ -1.559644,  -0.064997,   0.002103]
    Total nuclear charge:                  16.000000
      Center of nuclear charge [Ang]:    [ -1.560576,  -0.065915,   0.001978]
    Dipole moment [D]:                     0.101009
      Cartesian components [D]:          [ -0.071645,  -0.070558,  -0.009562]
    RMS size of the density [Ang]:         1.277229
      Cartesian components [Ang]:        [  0.858957,   0.839740,   0.433984]
  
  Exciton analysis of the difference density matrix
    <r_h> [Ang]:                  [ -1.559634,  -0.065051,   0.001885]
    <r_e> [Ang]:                  [ -1.547107,  -0.052521,   0.003810]
    |<r_e - r_h>| [Ang]:            0.017822
    Hole size [Ang]:                1.394596
      Cartesian components [Ang]: [  0.817704,   0.806962,   0.790615]
    Electron size [Ang]:            2.124055
      Cartesian components [Ang]: [  1.441774,   1.404558,   0.678318]

  Transition density matrix analysis:
  -----------------------------------
  
  CT numbers (Mulliken)
    omega =     0.9298
    <Phe> =    -0.0135
  
  Exciton analysis of the transition density matrix
    Trans. dipole moment [D]:             0.004899
      Cartesian components [D]:         [  0.000705,  -0.001256,   0.004683]
    <r_h> [Ang]:                        [ -1.560395,  -0.065851,   0.001702]
    <r_e> [Ang]:                        [ -1.544659,  -0.049888,   0.004165]
    |<r_e - r_h>| [Ang]:                  0.022550
    Hole size [Ang]:                      1.227728
      Cartesian components [Ang]:       [  0.657122,   0.650405,   0.807761]
    Electron size [Ang]:                  2.262347
      Cartesian components [Ang]:       [  1.536271,   1.496245,   0.720652]
    RMS electron-hole separation [Ang]:   2.563413
      Cartesian components [Ang]:       [  1.662429,   1.623768,   1.082033]
    Covariance(r_h, r_e) [Ang^2]:         0.027474
    Correlation coefficient:              0.009892
    Center-of-mass size [Ang]:            1.292331
      Cartesian components [Ang]:       [  0.839710,   0.819631,   0.541490]

  Decomposition into state-averaged NTOs
    H- 0 -> L+ 2: -0.6652 ( 88.5%)
    H- 1 -> L+ 0: -0.1473 (  4.3%)
                   omega =  93.0%
  ----------------------------------------------------------------------------


  Excited state 5 (singlet, A)                                     [converged]
  ----------------------------------------------------------------------------
  Term symbol:  6 (1) A                                     R^2 =  5.06446e-13

  Total energy:                                            -77.9441943810 a.u.
  Excitation energy:                                              10.215613 eV

  Osc. strength:                                                      0.000000
  Trans. dip. moment [a.u.]:           [   0.000065,    0.000117,    0.000430]
  <i|r^2|0> [a.u.]:                    [   0.087995,   -0.103073,    0.015653]
  Two-photon absorption cross-section (SoS) [a.u.]:                 184.415495
  Two-photon absorption matrix (SoS) [a.u.]:
                                       |    0.325381    0.041423   -3.405259 |
                                       |    0.041423   -0.398169    3.364406 |
                                       |   -3.405259    3.364406    0.077379 |
  Two-photon absorption cross-section [a.u.]:                        84.305073
  Two-photon absorption matrix [a.u.]:
                                       |    0.220030    0.027320   -2.287327 |
                                       |    0.027320   -0.269457    2.289865 |
                                       |   -2.287327    2.289865    0.055190 |

  Dip. moment [a.u.]:                  [   0.000282,   -0.005193,   -0.000054]
  Total dipole [Debye]:                                               0.013220
  <r^2> [a.u.]:                        [ 178.461749,   38.453678,   11.900496]
[...]
    16   -1.493949112975e-03
    17   -1.755735597910e-03
    18   -2.145525174173e-04
    19   -3.250112916556e-03
    20    1.063217483213e-02
    21    9.379438386151e-01
    22   -1.599096763723e-04
    23    1.399738164692e-02
    24    8.212729805124e-04
    25    7.033217296280e-02
    26   -5.227785238391e-02
    27   -1.401929383895e+00
    28    9.839736322854e-02
    29   -9.229356269183e-02
    30   -9.875939079970e-04
    31    3.863848578433e-01
    32   -3.605269504472e-01
    33   -3.775365747233e-03
    34    1.566304071917e-02
    35   -1.472999982193e-03
    36   -1.794372721576e-03
    37   -4.860064558888e-05
    38   -3.179821280196e-03
    39    9.649160225653e-03
    40    9.295970819227e-01
    41    2.466805254870e-04
    42   -1.390933876880e-02
    43   -8.276096149974e-04
    44    1.033818971155e-02
    45    9.443995833747e-01
    46    1.419207657417e-02
    47    3.968604864272e-04
    48    6.890631611571e-04
Sym=X
Ene= 0.233067
Spin=Alpha
Occup=0
     1    2.622655736070e-02
     2    1.239881927535e+00
     3   -1.441710783481e-02
     4   -3.851827119994e-03
     5   -9.090073027051e-04
     6    3.522839878503e-03
     7   -3.985828735641e-03
     8   -5.771509901805e-02
     9   -1.553505028688e-01
    10   -1.578985949113e-01
    11   -1.670418577300e-02
    12   -5.587657619656e-01
    13   -5.523756435636e-01
    14   -5.912538191862e-02
    15    6.059681227148e-04
    16   -8.077894229707e-05
    17   -7.042140366900e-05
    18   -2.140303745894e-04
    19   -3.984500829603e-04
    20   -2.521317493939e-02
    21   -1.151935001270e+00
    22   -2.423344840869e-03
    23   -1.347145260001e-02
    24   -9.138684929063e-04
    25   -2.787574368201e-03
    26    3.410507345160e-03
    27    3.775114636494e-02
    28   -1.537862355650e-01
    29   -1.594560365112e-01
    30   -1.683885985365e-02
    31   -5.489625666885e-01
    32   -5.568004680929e-01
    33   -5.940749570089e-02
    34   -4.609750597806e-04
    35    6.096858940411e-05
    36    2.748066877929e-05
    37    3.126476369125e-04
    38    3.436050137545e-04
    39    2.508316408047e-02
    40    1.160907752445e+00
    41   -2.443537199055e-03
    42   -1.365089679754e-02
    43   -9.340626179246e-04
    44   -2.632046586355e-02
    45   -1.223656687692e+00
    46   -1.420129462628e-02
    47   -3.789726892981e-03
    48   -8.994323007595e-04
Sym=X
Ene= 0.239342
Spin=Alpha
Occup=0
     1   -1.577151643951e-02
     2   -1.052028552342e+00
     3    1.658198813945e-02
     4    9.126281852508e-03
     5    1.340160533833e-03
     6   -8.647278697930e-02
     7    7.963111659076e-02
     8    1.593602762336e+00
     9    5.277531106538e-02
    10   -6.118429547636e-02
    11   -9.533563961133e-04
    12    2.128965384641e-01
    13   -2.381198200334e-01
    14   -3.258757513180e-03
    15   -2.259919884381e-02
    16    2.634947595970e-03
    17    2.952127405964e-03
    18   -3.484784415141e-04
    19    1.280663468126e-02
    20   -1.680893263067e-02
    21   -1.126486804487e+00
    22   -8.661146188605e-03
    23   -1.775000672523e-02
    24   -1.454045843200e-03
    25    8.637250266595e-02
    26   -7.937716761472e-02
    27   -1.592774072380e+00
    28    5.262436370764e-02
    29   -6.164830957146e-02
    30   -1.430133472821e-03
    31    2.082308824330e-01
    32   -2.447360287441e-01
    33   -5.730628567185e-03
    34    2.257798498653e-02
    35   -2.571963075041e-03
    36   -3.019647965057e-03
    37    7.924954012657e-04
    38   -1.273872143967e-02
    39    1.696976167383e-02
    40    1.135230307623e+00
    41   -8.620878186015e-03
    42   -1.795486338700e-02
    43   -1.496480361388e-03
    44    1.551444828597e-02
    45    1.042063367420e+00
    46    1.632227902050e-02
    47    9.258978113150e-03
    48    1.308559783501e-03
Sym=X
Ene= 0.303290
Spin=Alpha
Occup=0
     1   -2.089904945099e-02
     2    1.693596311884e+00
     3   -2.291881032893e-02
     4    3.893367704201e-04
     5   -1.073539551943e-03
     6   -3.715799077266e-04
     7    1.738607553808e-04
     8    5.659566415153e-03
     9   -1.342615274226e-01
    10   -1.397099894537e-01
    11   -1.464232027660e-02
    12   -1.147496671437e+00
    13   -1.190369375213e+00
    14   -1.251224862207e-01
    15   -2.077756032385e-04
    16   -1.657064214709e-03
    17    1.865399581929e-03
    18   -3.277631727340e-02
    19   -1.533514279484e-03
    20    1.965136866688e-02
    21   -1.692273536309e+00
    22    1.503670440601e-03
    23   -2.300237210659e-02
    24   -1.281848186698e-03
    25    2.387662819109e-04
    26    3.510044916876e-04
    27   -1.597412231356e-02
    28    1.347376341601e-01
    29    1.398449906951e-01
    30    1.474894335536e-02
    31    1.137949652382e+00
    32    1.198272738047e+00
    33    1.253957417991e-01
    34    1.765296653079e-04
    35   -1.625217783231e-03
    36    1.890505558649e-03
    37   -3.265824224445e-02
    38   -1.749196202847e-03
    39    1.963483577375e-02
    40   -1.688280530011e+00
    41   -1.651984111042e-03
    42    2.280113864341e-02
    43    1.290659821864e-03
    44   -2.027849245754e-02
    45    1.699012936152e+00
    46    2.313167897444e-02
    47   -3.425423644315e-04
    48    1.069916146517e-03
Sym=X
Ene= 0.462329
Spin=Alpha
Occup=0
     1   -1.123310119415e-01
     2   -7.216551900949e-01
     3   -1.557609316002e-02
     4   -1.042352080192e-02
     5   -1.350917501869e-03
     6    6.097242409767e-02
     7    1.683242216691e-02
     8   -3.595123521041e+00
     9    1.031785853644e-01
    10   -9.976114229527e-02
    11   -9.804719625408e-04
    12    2.428713636322e+00
    13   -2.305854068729e+00
    14   -2.094892895681e-02
    15    5.327552749402e-02
    16   -3.318130787815e-03
    17   -4.598816280159e-03
    18   -7.590143295988e-04
    19    1.834404187035e-02
    20   -1.201724058621e-01
    21   -7.029368627920e-01
    22    8.524242641612e-03
    23    1.629665534005e-02
    24    1.373169843720e-03
    25   -6.105872436098e-02
    26   -1.627523913040e-02
    27    3.595886593869e+00
    28    1.047959559679e-01
    29   -9.994879278643e-02
    30   -1.178303824941e-03
    31    2.427600180402e+00
    32   -2.302569541176e+00
    33   -2.200197916887e-02
    34   -5.285284495558e-02
    35    3.287661279866e-03
    36    4.549127626749e-03
    37    4.677392269018e-04
    38   -1.886918626005e-02
    39    1.164364526472e-01
    40    7.090656964695e-01
    41    8.656193009865e-03
    42    1.631302799957e-02
    43    1.378820999293e-03
    44    1.112578032335e-01
    45    7.193888611772e-01
    46   -1.538905056686e-02
    47   -1.005301341380e-02
    48   -1.339018220091e-03
Sym=X
Ene= 0.577740
Spin=Alpha
Occup=0
     1    2.427447915980e-01
     2    5.094506790001e-02
     3   -1.896188152491e-02
     4    2.592847202943e-02
     5    6.321017004181e-04
     6   -4.842320217522e-03
     7   -1.583061960788e-01
     8   -4.528193448506e-01
     9    2.979323024140e-01
    10   -2.888064601705e-01
    11   -3.014132197646e-03
    12   -7.292800718229e-01
    13    7.093877956478e-01
    14    7.531402292201e-03
    15   -5.381708368158e-03
    16    3.797705005456e-03
    17    3.722535711401e-03
    18   -5.002533628767e-03
    19    6.006965498303e-02
    20    2.563272186540e-01
    21    3.241178248306e-02
    22   -2.639158924605e-02
    23    1.655192010036e-02
    24   -2.764165163342e-04
    25   -5.422590861639e-03
    26   -1.587000062071e-01
    27   -4.243982192197e-01
    28   -2.983797997763e-01
    29    2.863449655263e-01
    30    2.810014126785e-03
    31    7.531342533828e-01
    32   -7.240526812970e-01
    33   -7.543708044032e-03
    34   -5.423016996217e-03
    35    3.864992896510e-03
    36    3.651667462832e-03
    37   -3.647939093560e-03
    38    6.008257515988e-02
    39    2.484111494578e-01
    40    4.720346693861e-02
    41    2.732980733436e-02
    42   -1.735041962075e-02
    43    2.503127086385e-04
    44    2.495133244813e-01
    45    5.279981320317e-02
    46    1.845516199278e-02
    47   -2.556766749018e-02
    48   -6.612867614214e-04
Sym=X
Ene= 0.614645
Spin=Alpha
Occup=0
     1   -5.254516689619e-01
     2    1.975066260195e-01
     3   -6.122089614236e-02
     4    3.706663561156e-02
     5   -7.322541883042e-04
     6   -7.618605154148e-04
     7   -3.756776628263e-04
     8   -1.702678529684e-02
     9   -4.226621482330e-02
    10   -3.806263653309e-02
    11   -4.288460044148e-03
    12    3.164659591523e-01
    13    2.725305572582e-01
    14    3.107623502875e-02
    15    2.310331359872e-03
    16   -7.644184418540e-03
    17    8.191855266727e-03
    18   -1.479384989647e-01
    19   -6.125457170490e-03
    20    5.060467388549e-01
    21   -2.075010991427e-01
    22    4.181055273237e-02
    23   -5.829061651316e-02
    24   -1.458925426557e-03
    25    4.345304565491e-04
    26   -1.286806402407e-03
    27    3.479300246942e-02
    28   -3.960101412539e-02
    29   -4.082884119323e-02
    30   -4.292744712047e-03
    31    3.039332826284e-01
    32    2.865303628092e-01
    33    3.162686752341e-02
    34   -1.609405950050e-03
    35    7.408990272979e-03
    36   -8.534046023905e-03
    37    1.486201018777e-01
    38    5.824786330640e-03
    39   -5.146933095441e-01
    40    2.078112029377e-01
    41    4.074810119442e-02
    42   -5.829448857799e-02
    43   -1.568324581090e-03
    44    5.203250993334e-01
    45   -2.034724513615e-01
    46   -6.142041347674e-02
    47    3.775610947186e-02
    48   -6.261693379328e-04
Sym=X
Ene= 0.689149
Spin=Alpha
Occup=0
     1    3.767970919744e-04
     2   -9.603636698192e-06
     3    1.097095171127e-03
     4    1.294286355336e-03
     5   -2.124571184474e-02
     6    2.588456686058e-05
     7    3.736759945127e-04
     8   -8.244724629124e-05
     9    3.164926011742e-02
    10    3.987975821426e-02
    11   -6.702441287118e-01
    12   -2.927644391560e-02
    13   -3.615672742631e-02
    14    6.135398236096e-01
    15   -1.397125899974e-03
    16    8.273777407673e-02
    17   -7.835860851260e-02
    18   -8.615524269240e-03
    19   -1.109446853198e-03
    20    4.070990900235e-04
    21   -1.422899488923e-04
    22    9.438134594918e-04
    23    1.140503305102e-03
    24   -2.093664263063e-02
    25    1.470087625950e-05
    26    4.862678425554e-04
    27   -4.342514668447e-04
    28    3.194287391905e-02
    29    3.986352317616e-02
    30   -6.701738938675e-01
    31   -2.959953502238e-02
    32   -3.619430950057e-02
    33    6.133373728225e-01
    34    1.123542412598e-03
    35   -8.272427102854e-02
    36    7.843958659569e-02
    37    8.568249938712e-03
    38    1.207992623654e-03
    39    2.126209177893e-04
    40   -4.883941005151e-04
    41    1.022139159842e-03
    42    1.382966169023e-03
    43   -2.106370725919e-02
    44    1.863786883051e-04
    45   -3.648725946091e-04
    46    8.828826168302e-04
    47    1.246863771938e-03
    48   -2.105378147848e-02
Sym=X
Ene= 0.709263
Spin=Alpha
Occup=0
     1   -4.733438130100e-01
     2    1.509569235218e-01
     3   -8.052889940929e-02
     4   -4.413650781218e-02
     5   -6.471482260495e-03
     6   -4.744222955183e-02
     7   -3.208136247016e-01
     8    5.007344780656e-01
     9    2.022232026774e-01
    10   -1.919491183602e-01
    11   -2.309612539420e-03
    12   -8.555182564791e-02
    13    6.888382622473e-02
    14    3.860008365562e-04
    15    1.938558483824e-01
    16   -2.046585583996e-02
    17   -2.390634821202e-02
    18    3.153066897016e-03
    19   -7.693644389366e-02
    20   -4.787609988091e-01
    21    1.452597195202e-01
    22    4.115175659720e-02
    23    8.142612302902e-02
    24    6.752039878788e-03
    25   -4.712056020608e-02
    26   -3.205605721106e-01
    27    4.799225696841e-01
    28   -2.034656406862e-01
    29    1.903776448500e-01
    30    1.162777164877e-03
    31    7.190033909653e-02
    32   -5.646694397685e-02
    33    8.983246397964e-04
    34    1.941051440539e-01
    35   -2.052535036806e-02
    36   -2.390040633969e-02
    37    1.996646564079e-03
    38   -7.616664679871e-02
    39   -4.741455201668e-01
    40    1.371864517876e-01
    41   -4.092621758008e-02
    42   -8.099299911778e-02
    43   -6.776667461020e-03
    44   -4.774658817694e-01
    45    1.508541188654e-01
    46    8.097814261507e-02
    47    4.417735678614e-02
    48    6.471930401300e-03
Sym=X
Ene= 0.784625
Spin=Alpha
Occup=0
     1    5.272611694136e-01
     2   -4.625966024023e-01
     3    1.103524081277e-01
     4    2.587962924911e-02
     5    6.785072667614e-03
     6    9.113220660579e-02
     7   -2.138865286402e-01
     8   -6.390236071243e-01
     9    1.113246926784e-01
    10   -1.059723288346e-01
    11   -8.437191097167e-05
    12    3.072778054619e-01
    13   -2.845190026763e-01
    14   -4.040939252137e-03
    15   -2.072245378443e-01
    16    1.763949775366e-02
    17    2.179005045654e-02
    18   -1.130327875023e-03
    19    8.459861822080e-03
    20    5.391430856703e-01
    21   -4.654998733806e-01
    22   -2.061431025573e-02
    23   -1.125119105477e-01
    24   -7.627371673201e-03
    25   -9.116850662079e-02
    26    2.143731006935e-01
    27    6.426008383749e-01
    28    1.129045850427e-01
    29   -1.054166580805e-01
    30   -1.725976105841e-03
    31    3.029961414756e-01
    32   -2.831696877556e-01
    33   -7.110936414087e-04
    34    2.072271208564e-01
    35   -1.739336436683e-02
    36   -2.220494379512e-02
    37    2.555566250911e-03
    38   -8.044791395115e-03
    39   -5.408718203045e-01
    40    4.657593055269e-01
    41   -2.015877347718e-02
    42   -1.131130816498e-01
    43   -7.723147291160e-03
    44   -5.285944518870e-01
    45    4.606041906873e-01
    46    1.094064771515e-01
    47    2.658399167668e-02
    48    6.768386511869e-03
Sym=X
Ene= 0.807960
Spin=Alpha
Occup=0
     1    5.502564012597e-04
     2   -8.126020849907e-04
     3    1.794766073005e-03
     4    2.001547093163e-03
     5   -3.377336342260e-02
     6    1.094310922361e-04
     7   -3.151962482231e-04
     8   -1.265551798219e-04
     9    3.645938082778e-02
    10    4.490894419979e-02
    11   -7.630615138137e-01
    12   -5.319494478567e-02
    13   -6.690213595614e-02
    14    1.127025499747e+00
    15    6.837986245507e-04
    16   -6.520473522269e-02
    17    6.185172157832e-02
    18    6.823507366476e-03
    19    8.566816867575e-04
    20    5.572355861101e-04
    21   -4.567914714749e-04
    22    1.677651982070e-03
    23    1.894597358994e-03
    24   -3.451003160905e-02
    25   -1.004950962532e-04
    26    1.238558808132e-04
    27    2.319833651609e-04
    28   -3.601097018715e-02
    29   -4.581661086117e-02
    30    7.631570099902e-01
    31    5.387336236537e-02
    32    6.705138509973e-02
    33   -1.126987096404e+00
    34    1.323100536852e-03
    35   -6.522210969567e-02
    36    6.181073375511e-02
    37    6.726447335158e-03
    38    9.896842696855e-04
    39   -5.563818755960e-04
    40    5.126013120562e-04
    41   -1.569039236736e-03
    42   -2.241307639369e-03
    43    3.424335879474e-02
    44   -5.461482080489e-04
    45    8.602266556890e-04
    46   -1.365233934063e-03
    47   -2.026560914984e-03
    48    3.374961179247e-02
Sym=X
Ene= 0.862288
Spin=Alpha
Occup=0
     1    1.377301329815e-02
     2   -1.094975342087e+00
     3    1.486269147806e-01
     4    5.536677201057e-02
     5    1.034409050376e-02
     6    4.604092655385e-04
     7    7.304081778349e-04
     8    1.891534033104e-03
     9   -4.058545795602e-01
    10   -4.286874965039e-01
    11   -4.455855199787e-02
    12    9.470802516564e-01
    13    9.972656421159e-01
    14    1.038120352056e-01
    15   -1.576954223474e-03
    16    1.181285061182e-02
    17   -1.350039672874e-02
    18    2.360572970580e-01
    19    8.348980440001e-03
    20   -1.251007269810e-02
    21    1.103316153615e+00
    22    5.010211799499e-02
    23    1.512712863791e-01
    24    1.134754889356e-02
    25   -2.072425879859e-04
    26    3.541486050922e-03
    27   -4.158816360538e-03
    28   -4.060610214648e-01
    29   -4.306082533100e-01
    30   -4.507928682453e-02
    31    9.445059946749e-01
    32    1.004077320349e+00
    33    1.049861726399e-01
    34    5.226544691934e-04
    35   -1.180167217662e-02
    36    1.361695622753e-02
    37   -2.366523011843e-01
    38   -9.789844173729e-03
    39    1.277906006274e-02
    40   -1.104166566215e+00
    41    4.888535435097e-02
    42    1.516544371407e-01
    43    1.141540158045e-02
    44   -1.301685451253e-02
    45    1.095731509868e+00
    46    1.490506139490e-01
    47    5.557503805334e-02
    48    1.033188320166e-02
Sym=X
Ene= 0.936032
Spin=Alpha
Occup=0
     1   -1.129898247646e-01
     2    1.273708028232e+00
     3   -1.805588128992e-01
     4    7.085500215556e-03
     5   -8.203526568554e-03
     6   -2.344098753615e-04
     7   -6.899472896855e-03
     8    2.208868145395e-04
     9    4.701962973109e-01
    10    5.022640676013e-01
    11    5.211684167681e-02
    12   -1.457426561145e+00
    13   -1.546421963891e+00
    14   -1.609414158272e-01
    15   -6.599046488075e-04
    16   -5.768245075747e-03
    17    7.166081125453e-03
    18   -1.214926336937e-01
    19    6.722540723625e-04
    20    1.185019568053e-01
    21   -1.294923838473e+00
    22    1.097656652812e-02
    23   -1.841427084482e-01
    24   -1.033269572522e-02
    25    1.727236315170e-04
    26   -2.111410179521e-03
    27    7.799311132128e-03
    28   -4.768901286116e-01
    29   -4.945558750309e-01
    30   -5.210454408298e-02
    31    1.476861562340e+00
    32    1.522130332600e+00
    33    1.607885380384e-01
    34   -8.342971369805e-04
    35   -5.950713436446e-03
    36    7.113741548486e-03
    37   -1.206966234316e-01
    38   -6.289313903220e-03
    39    1.164337943846e-01
    40   -1.275221666394e+00
    41   -1.382897860117e-02
    42    1.817065697044e-01
    43    1.021465002129e-02
    44   -1.155265427118e-01
    45    1.288922667155e+00
    46    1.821533328050e-01
    47   -5.124141079006e-03
    48    8.315786033064e-03
Sym=X
Ene= 0.972655
Spin=Alpha
Occup=0
     1   -6.491950766607e-02
     2    9.377018980784e-01
     3   -9.273913445108e-02
     4   -9.799374766734e-02
     5   -1.026032546174e-02
     6    2.515422519378e-02
     7    2.486963882301e-01
     8    5.246689206530e-01
     9    4.837289131948e-01
    10   -4.502290462147e-01
    11   -3.508255723061e-03
    12   -1.509193983606e+00
    13    1.392884589185e+00
    14    1.030760560760e-02
    15   -5.285390675512e-02
    16   -1.299290697921e-02
    17   -9.610332472256e-03
    18    1.160590649026e-02
    19   -3.003855996255e-01
    20   -6.318066969440e-02
    21    8.951562632072e-01
    22    9.534173376980e-02
    23    9.122682504452e-02
    24    9.911091499519e-03
    25   -2.511465629383e-02
    26   -2.444995778406e-01
    27   -5.317284638541e-01
    28    4.754215837668e-01
    29   -4.585832402370e-01
    30   -5.055695091231e-03
    31   -1.473435525148e+00
    32    1.431018919842e+00
    33    1.608324081150e-02
    34    5.250625561668e-02
    35    1.278306796588e-02
    36    9.798042295584e-03
    37   -1.439276901106e-02
    38    2.994101451305e-01
    39    6.177835163697e-02
    40   -9.223565634810e-01
    41    9.447485602257e-02
    42    9.474426130918e-02
    43    1.021760516764e-02
    44    6.715960979755e-02
    45   -9.066203310482e-01
    46   -8.881884163243e-02
    47   -9.816927908560e-02
    48   -9.961531750450e-03
[5D]

======= END OF MOLDEN-FORMATTED INPUT FILE =======


        *************************************************************
        *                                                           *
        *  Thank you very much for using Q-Chem.  Have a nice day.  *
        *                                                           *
        *************************************************************


