                  Welcome to Q-Chem
     A Quantum Leap Into The Future Of Chemistry


 Q-Chem 5.4 (devel), Q-Chem, Inc., Pleasanton, CA (2021)

 E. Epifanovsky,  A. T. B. Gilbert,  Xintian Feng,  Joonho Lee,  Yuezhi Mao,  
 N. Mardirossian,  P. Pokhilko,  A. White,  M. Wormit,  M. P. Coons,  
 A. L. Dempwolff,  Zhengting Gan,  D. Hait,  P. R. Horn,  L. D. Jacobson,  
 I. Kaliman,  J. Kussmann,  A. W. Lange,  Ka Un Lao,  D. S. Levine,  Jie Liu,  
 S. C. McKenzie,  A. F. Morrison,  K. Nanda,  F. Plasser,  D. R. Rehn,  
 M. L. Vidal,  Zhi-Qiang You,  Ying Zhu,  B. Alam,  B. Albrecht,  
 A. Aldossary,  E. Alguire,  J. H. Andersen,  D. Barton,  K. Begam,  A. Behn,  
 Y. A. Bernard,  E. J. Berquist,  H. Burton,  A. Carreras,  K. Carter-Fenk,  
 R. Chakraborty,  A. D. Chien,  K. D. Closser,  V. Cofer-Shabica,  
 S. Dasgupta,  Jia Deng,  M. de Wergifosse,  M. Diedenhofen,  Hainam Do,  
 S. Ehlert,  Po-Tung Fang,  S. Fatehi,  Qingguo Feng,  T. Friedhoff,  
 J. Gayvert,  Qinghui Ge,  G. Gidofalvi,  M. Goldey,  J. Gomes,  
 C. Gonzalez-Espinoza,  S. Gulania,  A. Gunina,  M. W. D. Hanson-Heine,  
 P. H. P. Harbach,  A. W. Hauser,  M. F. Herbst,  M. Hernandez Vera,  
 M. Hodecker,  Z. C. Holden,  S. Houck,  Xunkun Huang,  Kerwin Hui,  
 B. C. Huynh,  M. Ivanov,  Hyunjun Ji,  Hanjie Jiang,  B. Kaduk,  S. Kaehler,  
 K. Khistyaev,  Jaehoon Kim,  P. Klunzinger,  Z. Koczor-Benda,  
 Joong Hoon Koh,  D. Kosenkov,  L. Koulias,  T. Kowalczyk,  C. M. Krauter,  
 K. Kue,  A. Kunitsa,  T. Kus,  A. Landau,  K. V. Lawler,  D. Lefrancois,  
 S. Lehtola,  Rain Li,  Yi-Pei Li,  Jiashu Liang,  M. Liebenthal,  
 Hung-Hsuan Lin,  You-Sheng Lin,  Fenglai Liu,  Kuan-Yu Liu,  
 M. Loipersberger,  A. Luenser,  A. Manjanath,  P. Manohar,  E. Mansoor,  
 S. F. Manzer,  Shan-Ping Mao,  A. V. Marenich,  T. Markovich,  S. Mason,  
 S. A. Maurer,  P. F. McLaughlin,  M. F. S. J. Menger,  J.-M. Mewes,  
 S. A. Mewes,  P. Morgante,  J. W. Mullinax,  K. J. Oosterbaan,  G. Paran,  
 Alexander C. Paul,  Suranjan K. Paul,  F. Pavosevic,  Zheng Pei,  S. Prager,  
 E. I. Proynov,  E. Ramos,  B. Rana,  A. E. Rask,  A. Rettig,  R. M. Richard,  
 F. Rob,  E. Rossomme,  T. Scheele,  M. Scheurer,  M. Schneider,  
 N. Sergueev,  S. M. Sharada,  W. Skomorowski,  D. W. Small,  C. J. Stein,  
 Yu-Chuan Su,  E. J. Sundstrom,  Zhen Tao,  J. Thirman,  T. Tsuchimochi,  
 N. M. Tubman,  S. P. Veccham,  O. Vydrov,  J. Wenzel,  J. Witte,  A. Yamada,  
 Kun Yao,  S. Yeganeh,  S. R. Yost,  A. Zech,  Igor Ying Zhang,  Xing Zhang,  
 Yu Zhang,  D. Zuev,  A. Aspuru-Guzik,  A. T. Bell,  N. A. Besley,  
 K. B. Bravaya,  B. R. Brooks,  D. Casanova,  Jeng-Da Chai,  S. Coriani,  
 C. J. Cramer,  A. E. DePrince, III,  R. A. DiStasio Jr.,  A. Dreuw,  
 B. D. Dunietz,  T. R. Furlani,  W. A. Goddard III,  S. Grimme,  
 S. Hammes-Schiffer,  T. Head-Gordon,  W. J. Hehre,  Chao-Ping Hsu,  
 T.-C. Jagau,  Yousung Jung,  A. Klamt,  Jing Kong,  D. S. Lambrecht,  
 WanZhen Liang,  N. J. Mayhall,  C. W. McCurdy,  J. B. Neaton,  
 C. Ochsenfeld,  J. A. Parkhill,  R. Peverati,  V. A. Rassolov,  Yihan Shao,  
 L. V. Slipchenko,  T. Stauch,  R. P. Steele,  J. E. Subotnik,  
 A. J. W. Thom,  A. Tkatchenko,  D. G. Truhlar,  T. Van Voorhis,  
 T. A. Wesolowski,  K. B. Whaley,  H. L. Woodcock III,  P. M. Zimmerman,  
 S. Faraji,  P. M. W. Gill,  M. Head-Gordon,  J. M. Herbert,  A. I. Krylov

 Additional authors for Version 5.4.1: 
 S. Kotaru,  Shaozhi Li,  Xiangyuan Li,  F. Matz,  A. Molle,  Haisheng Ren,  
 Yingli Su,  Hung-Yi Tsai,  C. Utku,  Fang Wang

 Contributors to earlier versions of Q-Chem not listed above: 
 R. D. Adamson,  B. Austin,  R. Baer,  J. Baker,  G. J. O. Beran,  
 K. Brandhorst,  S. T. Brown,  E. F. C. Byrd,  A. K. Chakraborty,  
 G. K. L. Chan,  Chun-Min Chang,  Yunqing Chen,  C.-L. Cheng,  
 Siu Hung Chien,  D. M. Chipman,  D. L. Crittenden,  H. Dachsel,  
 R. J. Doerksen,  A. D. Dutoi,  R. G. Edgar,  J. Fosso-Tande,  
 L. Fusti-Molnar,  D. Ghosh,  A. Ghysels,  A. Golubeva-Zadorozhnaya,  
 J. Gonthier,  M. S. Gordon,  S. R. Gwaltney,  G. Hawkins,  J. E. Herr,  
 A. Heyden,  S. Hirata,  E. G. Hohenstein,  G. Kedziora,  F. J. Keil,  
 C. Kelley,  Jihan Kim,  R. A. King,  R. Z. Khaliullin,  P. P. Korambath,  
 W. Kurlancheek,  A. Laurent,  A. M. Lee,  M. S. Lee,  S. V. Levchenko,  
 Ching Yeh Lin,  D. Liotard,  E. Livshits,  R. C. Lochan,  I. Lotan,  
 L. A. Martinez-Martinez,  P. E. Maslen,  N. Nair,  D. P. O'Neill,  
 D. Neuhauser,  E. Neuscamman,  C. M. Oana,  R. Olivares-Amaya,  R. Olson,  
 T. M. Perrine,  B. Peters,  P. A. Pieniazek,  A. Prociuk,  Y. M. Rhee,  
 J. Ritchie,  M. A. Rohrdanz,  E. Rosta,  N. J. Russ,  H. F. Schaefer III,  
 M. W. Schmidt,  N. E. Schultz,  S. Sharma,  N. Shenvi,  C. D. Sherrill,  
 A. C. Simmonett,  A. Sodt,  T. Stein,  D. Stuck,  K. S. Thanthiriwatte,  
 V. Vanovschi,  L. Vogt,  Tao Wang,  A. Warshel,  M. A. Watson,  
 C. F. Williams,  Q. Wu,  X. Xu,  Jun Yang,  W. Zhang,  Yan Zhao

 Please cite Q-Chem as follows:
 Y. Shao et al., Mol. Phys. 113, 184-215 (2015)
 DOI: 10.1080/00268976.2014.952696

 Q-Chem 5.4.1 for Intel X86 EM64T Linux

 Parts of Q-Chem use Armadillo 9.800.1 (Horizon Scraper).
 http://arma.sourceforge.net/

 Q-Chem begins on Wed Mar 15 16:15:41 2023  

 Host: cpu121.yggdrasil
0

     Scratch files written to /srv/beegfs/scratch/users/f/fum/qchem66239//
 Processing $rem in /home/share/wesolowski/qc5.aug2021.FDE/config/preferences:
 Processing $rem in /home/fum/.qchemrc:

 Checking the input file for inconsistencies... 	...done.

--------------------------------------------------------------
User input:
--------------------------------------------------------------
$comment
generated from CCJob.Templates
$end

$rem
sym_ignore = true
method = adc(2)
ee_states = 10
basis = cc-pVDZ
mem_static = 1024
mem_total = 40000
adc_davidson_maxiter = 900
adc_davidson_conv = 6
adc_print = 3
adc_prop_es = true
adc_prop_es2es = true
adc_prop_tpa = true
molden_format = True
state_analysis = true
print_orbitals = 15
gen_scfman = false
fde_export_density = true
fde_details = 3
$end

$molecule
0 1
H -0.0348278765 -0.2442097827 0.0636489606
C -1.0765972949 -0.5642748755 -0.0023551776
H -1.313264467 -1.5767591607 -0.0757276926
C -2.043634118 0.3926884087 0.0061254933
H -1.8137616575 1.4459188338 0.0804456828
H -3.085977293 0.114931858 -0.0593381042                     
$end
--------------------------------------------------------------
 ----------------------------------------------------------------
             Standard Nuclear Orientation (Angstroms)
    I     Atom           X                Y                Z
 ----------------------------------------------------------------
    1      H      -0.0348278765    -0.2442097827     0.0636489606
    2      C      -1.0765972949    -0.5642748755    -0.0023551776
    3      H      -1.3132644670    -1.5767591607    -0.0757276926
    4      C      -2.0436341180     0.3926884087     0.0061254933
    5      H      -1.8137616575     1.4459188338     0.0804456828
    6      H      -3.0859772930     0.1149318580    -0.0593381042
 ----------------------------------------------------------------
 Nuclear Repulsion Energy =          33.17584554 hartrees
 There are        8 alpha and        8 beta electrons
 Requested basis set is cc-pVDZ
 There are 24 shells and 48 basis functions
 Total memory of 40000 MB is distributed as follows: 
   MEM_STATIC is set to 1024 MB
   QALLOC/CCMAN JOB total memory use is  38976 MB
 Warning: actual memory use might exceed 40000 MB

 Total QAlloc Memory Limit  40000 MB
 Mega-Array Size      1001 MB
 MEM_STATIC part      1024 MB

                       Distance Matrix (Angstroms)
             H (  1)   C (  2)   H (  3)   C (  4)   H (  5)
   C (  2)  1.091825
   H (  3)  1.851895  1.042362
   C (  4)  2.108139  1.360519  2.102109
   H (  5)  2.453859  2.142696  3.067812  1.080583
   H (  6)  3.074674  2.121833  2.450428  1.080700  1.846510

 A cutoff of  1.0D-11 yielded    300 shell pairs
 There are      1220 function pairs (      1329 Cartesian)
 Smallest overlap matrix eigenvalue = 5.29E-03

 Scale SEOQF with 1.000000e-01/1.000000e-01/1.000000e+00

 Standard Electronic Orientation quadrupole field applied
 Nucleus-field energy     =     0.0000000022 hartrees
 Guess from superposition of atomic densities
 Warning:  Energy on first SCF cycle will be non-variational
 SAD guess density has 16.000000 electrons
 A restricted Hartree-Fock SCF calculation will be
 performed using Pulay DIIS extrapolation
 SCF converges when DIIS error is below 1.0E-08
 using 10 threads for integral computing
 -------------------------------------------------------
 OpenMP Integral computing Module                
 Release: version 1.0, May 2013, Q-Chem Inc. Pittsburgh 
 -------------------------------------------------------
 ---------------------------------------
  Cycle       Energy         DIIS Error
 ---------------------------------------
    1     -78.4037735784      9.91E-02
    2     -78.0145111513      7.12E-03
    3     -78.0350123333      1.81E-03
    4     -78.0364755112      5.34E-04
    5     -78.0365815803      6.27E-05
    6     -78.0365835704      1.66E-05
    7     -78.0365836935      6.54E-06
    8     -78.0365837100      1.20E-06
    9     -78.0365837114      3.87E-07
   10     -78.0365837115      9.94E-08
   11     -78.0365837115      7.05E-09 Convergence criterion met
 ---------------------------------------
 SCF time:  CPU 1.95 s  wall 2.55 s
 SCF   energy in the final basis set = -78.03658371
 Total energy in the final basis set = -78.03658371
Exporting Density Matrix to file 'Densmat_SCF.txt'.
Export successful
================================================================================
|                                                                              |
|                                 A D C  M A N                                 |
|                                                                              |
 ------------------------------------------------------------------------------ 
|                                                                              |
| Components:                                                                  |
|                                                                              |
| - libvmm - 1.3-trunk                                                         |
|   Authors:                                                                   |
|   Evgeny Epifanovsky, Ilya Kaliman                                           |
|                                                                              |
| - libtensor - 2.5-trunk                                                      |
|   Authors:                                                                   |
|   Evgeny Epifanovsky, Michael Wormit, Dmitry Zuev, Sam Manzer,               |
|   Ilya Kaliman                                                               |
|                                                                              |
| - libwfa - 1.1-trunk                                                         |
|   Authors:                                                                   |
|   Felix Plasser, Stefanie Mewes (Baeppler), Benjamin Thomitzni,              |
|   Michael Wormit, Feng Chen, Anna I. Krylov, Pavel Pokhilko                  |
|                                                                              |
| - libadc - 1.1-trunk                                                         |
|   Authors:                                                                   |
|   Michael Wormit, Adrian L. Dempwolff, Philipp H. P. Harbach,                |
|   Caroline Krauter, Dirk Rehn, Matthias Schneider, Jan Wenzel                |
|                                                                              |
| - adcman - 2.6-trunk                                                         |
|   Authors:                                                                   |
|   Michael Wormit, Adrian L. Dempwolff, Philipp H. P. Harbach,                |
|   Caroline Krauter, Daniel Lefrancois, Jan-Michael Mewes, Dirk Rehn,         |
|   Matthias Schneider, Jan Wenzel, Andreas Dreuw                              |
|                                                                              |
| Authors of earlier versions of ADCMAN:                                       |
| Andreas Dreuw, Jan Hendrik Starcke, Dirk Rehn, Michael Wormit                |
|                                                                              |
================================================================================

 Created directory /srv/beegfs/scratch/users/f/fum/qchem66239/plots
  Import QC data ...  CPU 0.00 s  wall 0.01 s

 Alpha MOs, Restricted
 -- Occupied --                  
-11.238 -11.236  -1.026  -0.795  -0.643  -0.576  -0.512  -0.367
  1 A     2 A     3 A     4 A     5 A     6 A     7 A     8 A                  
 -- Virtual --                   
  0.162   0.203   0.235   0.240   0.302   0.455   0.581   0.616
  9 A    10 A    11 A    12 A    13 A    14 A    15 A    16 A                  
  0.695   0.712   0.778   0.805   0.868   0.934   0.960   1.011
 17 A    18 A    19 A    20 A    21 A    22 A    23 A    24 A                  
  1.133   1.226   1.256   1.256   1.290   1.611   1.716   1.748
 25 A    26 A    27 A    28 A    29 A    30 A    31 A    32 A                  
  1.818   1.847   1.864   1.924   1.969   1.992   2.205   2.241
 33 A    34 A    35 A    36 A    37 A    38 A    39 A    40 A                  
  2.378   2.462   2.499   2.611   2.738   2.838   3.157   3.384
 41 A    42 A    43 A    44 A    45 A    46 A    47 A    48 A                  

 Beta MOs, Restricted
 -- Occupied --                  
-11.238 -11.236  -1.026  -0.795  -0.643  -0.576  -0.512  -0.367
  1 A     2 A     3 A     4 A     5 A     6 A     7 A     8 A                  
 -- Virtual --                   
  0.162   0.203   0.235   0.240   0.302   0.455   0.581   0.616
  9 A    10 A    11 A    12 A    13 A    14 A    15 A    16 A                  
  0.695   0.712   0.778   0.805   0.868   0.934   0.960   1.011
 17 A    18 A    19 A    20 A    21 A    22 A    23 A    24 A                  
  1.133   1.226   1.256   1.256   1.290   1.611   1.716   1.748
 25 A    26 A    27 A    28 A    29 A    30 A    31 A    32 A                  
  1.818   1.847   1.864   1.924   1.969   1.992   2.205   2.241
 33 A    34 A    35 A    36 A    37 A    38 A    39 A    40 A                  
  2.378   2.462   2.499   2.611   2.738   2.838   3.157   3.384
 41 A    42 A    43 A    44 A    45 A    46 A    47 A    48 A                  
  Import AO data ...  CPU 0.00 s  wall 0.06 s
  Using point group: C1
  Irreducible representations in point group: A
  Molecular orbitals: 
  Occupied MOs:
  Block   0:   1 (  A) A   2 (  A) A   3 (  A) A   4 (  A) A   5 (  A) A
                  -11.24      -11.24      -1.026     -0.7948     -0.6428
               6 (  A) A   7 (  A) A   8 (  A) A
                 -0.5762     -0.5115     -0.3673
  Block   1:   1 (  A) B   2 (  A) B   3 (  A) B   4 (  A) B   5 (  A) B
                  -11.24      -11.24      -1.026     -0.7948     -0.6428
               6 (  A) B   7 (  A) B   8 (  A) B
                 -0.5762     -0.5115     -0.3673
  Virtual MOs:
  Block   0:   9 (  A) A  10 (  A) A  11 (  A) A  12 (  A) A  13 (  A) A
                  0.1621      0.2033       0.235      0.2401      0.3015
              14 (  A) A  15 (  A) A  16 (  A) A  17 (  A) A  18 (  A) A
                  0.4551      0.5811      0.6163      0.6948      0.7117
              19 (  A) A  20 (  A) A  21 (  A) A  22 (  A) A
                  0.7776       0.805      0.8683      0.9339
  Block   1:  23 (  A) A  24 (  A) A  25 (  A) A  26 (  A) A  27 (  A) A
                  0.9604       1.011       1.133       1.226       1.256
              28 (  A) A  29 (  A) A  30 (  A) A  31 (  A) A  32 (  A) A
                   1.256        1.29       1.611       1.716       1.748
              33 (  A) A  34 (  A) A  35 (  A) A  36 (  A) A
                   1.818       1.847       1.864       1.924
  Block   2:  37 (  A) A  38 (  A) A  39 (  A) A  40 (  A) A  41 (  A) A
                   1.969       1.992       2.205       2.241       2.378
              42 (  A) A  43 (  A) A  44 (  A) A  45 (  A) A  46 (  A) A
                   2.462       2.499       2.611       2.738       2.838
              47 (  A) A  48 (  A) A
                   3.157       3.384
  Block   3:   9 (  A) B  10 (  A) B  11 (  A) B  12 (  A) B  13 (  A) B
                  0.1621      0.2033       0.235      0.2401      0.3015
              14 (  A) B  15 (  A) B  16 (  A) B  17 (  A) B  18 (  A) B
                  0.4551      0.5811      0.6163      0.6948      0.7117
              19 (  A) B  20 (  A) B  21 (  A) B  22 (  A) B
                  0.7776       0.805      0.8683      0.9339
  Block   4:  23 (  A) B  24 (  A) B  25 (  A) B  26 (  A) B  27 (  A) B
                  0.9604       1.011       1.133       1.226       1.256
              28 (  A) B  29 (  A) B  30 (  A) B  31 (  A) B  32 (  A) B
                   1.256        1.29       1.611       1.716       1.748
              33 (  A) B  34 (  A) B  35 (  A) B  36 (  A) B
                   1.818       1.847       1.864       1.924
  Block   5:  37 (  A) B  38 (  A) B  39 (  A) B  40 (  A) B  41 (  A) B
                   1.969       1.992       2.205       2.241       2.378
              42 (  A) B  43 (  A) B  44 (  A) B  45 (  A) B  46 (  A) B
                   2.462       2.499       2.611       2.738       2.838
              47 (  A) B  48 (  A) B
                   3.157       3.384
  Import MO data ...  CPU 0.01 s  wall 0.01 s
  Import HF data ...  CPU 0.07 s  wall 0.03 s
  Import 2e integrals ...  CPU 0.92 s  wall 0.15 s

--------------------------------------------------------------------------------
                                   HF Summary                                   
--------------------------------------------------------------------------------
  Energy:                                                  -78.0365837115 a.u.
  Dip. moment [a.u.]:                  [  -0.006087,   -0.000989,   -0.001208]
  Total dipole [Debye]:                                               0.015971
  <r^2> [a.u.]:                        [ 175.365106,   35.744983,   11.680860]
  Total <r^2> [a.u.]:                                               222.790950
--------------------------------------------------------------------------------
  HF properties ...  CPU 0.01 s  wall 0.00 s
  MP(1) calculation ...  CPU 0.01 s  wall 0.02 s
  N^6 prerequesite intermediates ...  CPU 0.44 s  wall 0.07 s
  Difference density matrix of state mp2_gs printed to ASCII file 'State_mp2_gs_Difference.txt'
Exporting MP density matrix to file 'Densmat_MP.txt'.
Export successful
  Total density matrix of state mp2_gs printed to ASCII file 'State_mp2_gs_Total.txt'
Exporting MP density matrix to file 'Densmat_MP.txt'.
Export successful

--------------------------------------------------------------------------------
                                 MP(2) Summary                                  
--------------------------------------------------------------------------------
  MP energy contribution:                                   -0.2809938141 a.u.
  Total energy:                                            -78.3175775256 a.u.
  Dip. moment [a.u.]:                  [  -0.004702,   -0.000477,   -0.001099]
  Total dipole [Debye]:                                               0.012333
  <r^2> [a.u.]:                        [ 175.407745,   35.792549,   11.495349]
  Total <r^2> [a.u.]:                                               222.695643

  Density matrix analysis:
  ------------------------
  NOs
    Occupation of frontier NOs:
       0.0477   1.9361
    Number of electrons: 16.000000
    Number of unpaired electrons: n_u =  0.40916, n_u,nl =  0.04720
    NO participation ratio (PR_NO): 13.589393
  
  
  Mulliken Population Analysis
  Atom      Charge (e)              h+              e-           Del q
  --------------------------------------------------------------------
   1 H        0.054508        0.013907       -0.011199        0.002708
   2 C       -0.088773        0.094940       -0.100561       -0.005621
   3 H        0.043622        0.014399       -0.011157        0.003243
   4 C       -0.113652        0.095712       -0.101788       -0.006076
   5 H        0.053089        0.014007       -0.011253        0.002754
   6 H        0.051206        0.014198       -0.011206        0.002992
  --------------------------------------------------------------------
  Sum:       -0.000000        0.247164       -0.247164        0.000000
  
  Multipole moment analysis of the density matrix
    Molecular charge:                      -0.000000
    Number of electrons:                   16.000000
      Center of electronic charge [Ang]: [ -1.560421,  -0.080587,   0.002015]
    Total nuclear charge:                  16.000000
      Center of nuclear charge [Ang]:    [ -1.560576,  -0.080602,   0.001978]
    Dipole moment [D]:                     0.012333
      Cartesian components [D]:          [ -0.011952,  -0.001212,  -0.002793]
    RMS size of the density [Ang]:         1.206714
      Cartesian components [Ang]:        [  0.796891,   0.787362,   0.448537]
  
  Exciton analysis of the difference density matrix
    <r_h> [Ang]:                  [ -1.559180,  -0.076763,   0.002438]
    <r_e> [Ang]:                  [ -1.562145,  -0.077858,   0.002206]
    |<r_e - r_h>| [Ang]:            0.003169
    Hole size [Ang]:                1.402578
      Cartesian components [Ang]: [  0.850444,   0.834801,   0.739648]
    Electron size [Ang]:            1.360083
      Cartesian components [Ang]: [  0.873104,   0.866380,   0.580433]
--------------------------------------------------------------------------------
  MP(2) calculation ...  CPU 0.11 s  wall 0.42 s
  Start ADC(2)-s ...  CPU 0.01 s  wall 0.00 s
  ADC(2) intermediates ...  CPU 0.02 s  wall 0.01 s
  Starting Davidson for singlet states of irrep A ... 
--------------------------------------------------------------------------------
   It NVec Conv  Avg. Norm  Max. Norm  Conv. states           Remark
--------------------------------------------------------------------------------
        10    0  1.327e-01  4.673e-01  0.4062 n n n n n n n n Guess.
    1   20    0  2.604e-02  1.526e-01  0.3178 n n n n n n n n 
    2   30    0  7.015e-03  4.470e-02  0.3128 n n n n n n n n 
    3   40    0  2.473e-03  1.914e-02  0.3124 n n n n n n n n 
    4   50    0  9.297e-04  8.001e-03  0.3123 n n n n n n n n 
    5   20    0  6.403e-04  5.909e-03  0.3123 n n n n n n n n Subspace collapsed.
    6   30    0  1.172e-03  1.165e-02  0.3123 n n n n n n n n 
    7   40    0  1.019e-03  1.015e-02  0.3123 n n n n n n n n 
    8   50    0  8.784e-04  8.770e-03  0.3123 n n n n n n n n 
    9   20    0  5.156e-04  5.143e-03  0.3123 n n n n n n n n Subspace collapsed.
   10   30    3  4.021e-04  4.013e-03  0.3123 n y y y n n n n 
   11   40    5  2.069e-04  2.065e-03  0.3123 n y y y y y n n 
   12   50    5  1.976e-04  1.975e-03  0.3123 n y y y y y n n 
   13   20    6  1.129e-04  1.129e-03  0.3123 y y y y y y n n Subspace collapsed.
   14   30    6  2.385e-04  2.385e-03  0.3123 y y y y y y n n 
   15   40    7  2.042e-04  2.042e-03  0.3123 y y y y y y n y 
   16   50    8  1.947e-04  1.947e-03  0.3123 y y y y y y n y 
   17   20    8  1.097e-04  1.097e-03  0.3123 y y y y y y n y Subspace collapsed.
   18   30    8  8.677e-05  8.677e-04  0.3123 y y y y y y n y 
   19   40    8  3.816e-05  3.816e-04  0.3123 y y y y y y n y 
   20   50    8  5.758e-05  5.758e-04  0.3123 y y y y y y n y 
   21   20    9  2.555e-05  2.555e-04  0.3123 y y y y y y y y Subspace collapsed.
   22   30    9  4.220e-05  4.220e-04  0.3123 y y y y y y y y 
   23   31    9  4.221e-05  4.221e-04  0.3123 y y y y y y y y 
   24   32    9  4.140e-05  4.140e-04  0.3123 y y y y y y y y 
   25   40    9  5.532e-05  5.532e-04  0.3123 y y y y y y y y 
   26   47    9  5.002e-05  5.002e-04  0.3123 y y y y y y y y 
   27   50    9  5.086e-05  5.086e-04  0.3123 y y y y y y y y 
   28   16    9  2.353e-05  2.353e-04  0.3123 y y y y y y y y Subspace collapsed.
   29   22    9  1.559e-05  1.559e-04  0.3123 y y y y y y y y 
   30   27    9  1.084e-05  1.084e-04  0.3123 y y y y y y y y 
   31   31    9  9.383e-06  9.383e-05  0.3123 y y y y y y y y 
   32   35    9  1.072e-05  1.072e-04  0.3123 y y y y y y y y 
   33   39    9  1.088e-05  1.088e-04  0.3123 y y y y y y y y 
   34   43    9  8.880e-06  8.880e-05  0.3123 y y y y y y y y 
   35   47    9  6.845e-06  6.845e-05  0.3123 y y y y y y y y 
   36   50    9  4.717e-06  4.717e-05  0.3123 y y y y y y y y 
   37   14    9  1.714e-06  1.714e-05  0.3123 y y y y y y y y Subspace collapsed.
   38   18    9  1.818e-06  1.818e-05  0.3123 y y y y y y y y 
   39   22    9  1.426e-06  1.426e-05  0.3123 y y y y y y y y 
   40   26    9  7.054e-07  7.054e-06  0.3123 y y y y y y y y 
   41   30    9  5.175e-07  5.175e-06  0.3123 y y y y y y y y 
   42   34    9  3.744e-07  3.744e-06  0.3123 y y y y y y y y 
   43   37    9  3.101e-07  3.101e-06  0.3123 y y y y y y y y 
   44   40    9  3.220e-07  3.220e-06  0.3123 y y y y y y y y 
   45   43    9  2.792e-07  2.792e-06  0.3123 y y y y y y y y 
   46   46    9  2.554e-07  2.554e-06  0.3123 y y y y y y y y 
   47   48    9  1.785e-07  1.785e-06  0.3123 y y y y y y y y 
   48   48    9  1.785e-07  1.785e-06  0.3123 y y y y y y y y 
   49   50    9  1.779e-07  1.779e-06  0.3123 y y y y y y y y 
   50   12   10  8.016e-08  8.016e-07  0.3123 y y y y y y y y Converged.
--------------------------------------------------------------------------------
  Davidson Summary: 
 ------------------------------------------------------------
  State  0: excitation energy =   0.3123 a.u.   (converged)
  State  1: excitation energy =   0.3315 a.u.   (converged)
  State  2: excitation energy =   0.3331 a.u.   (converged)
  State  3: excitation energy =   0.3609 a.u.   (converged)
  State  4: excitation energy =   0.3678 a.u.   (converged)
  State  5: excitation energy =   0.3809 a.u.   (converged)
  State  6: excitation energy =   0.4296 a.u.   (converged)
  State  7: excitation energy =   0.4418 a.u.   (converged)
  State  8: excitation energy =   0.4510 a.u.   (converged)
  State  9: excitation energy =   0.4721 a.u.   (converged)
 ------------------------------------------------------------

  Singlet states of irrep A ...  CPU 127.44 s  wall 32.86 s
  TDMs ...  CPU 0.58 s  wall 0.23 s
  SDMs ...  CPU 1.38 s  wall 0.45 s
  Starting TPA DIIS iterations ... 
------------------------------------ 
   It     Res. Norm  Remark
------------------------------------
                       Guess.
    1     4.645e+00  
    2     6.291e+00  
    3     1.125e+00  
    4     2.850e-01  
    5     7.481e-02  
    6     2.981e-02  
    7     8.868e-03  
    8     1.491e-03  
    9     5.357e-04  
   10     9.356e-05  
   11     2.860e-05  
   12     4.627e-06  
   13     1.355e-06  
   14     4.414e-07  Converged.
   ... Converged in 14 steps (norm: 4.41352e-07)
------------------------------------
  Starting TPA DIIS iterations ... 
------------------------------------ 
   It     Res. Norm  Remark
------------------------------------
                       Guess.
    1     4.654e+00  
    2     6.266e+00  
    3     1.079e+00  
    4     2.666e-01  
    5     7.339e-02  
    6     2.721e-02  
    7     8.462e-03  
    8     1.300e-03  
    9     4.843e-04  
   10     8.460e-05  
   11     2.463e-05  
   12     4.152e-06  
   13     1.266e-06  
   14     4.364e-07  Converged.
   ... Converged in 14 steps (norm: 4.36395e-07)
------------------------------------
  Starting TPA DIIS iterations ... 
------------------------------------ 
   It     Res. Norm  Remark
------------------------------------
                       Guess.
    1     6.898e-01  
    2     4.866e-01  
    3     1.718e-01  
    4     5.617e-02  
    5     1.871e-02  
    6     6.912e-03  
    7     1.158e-03  
    8     4.017e-04  
    9     1.896e-04  
   10     4.049e-05  
   11     2.590e-05  
   12     9.079e-06  
   13     4.368e-06  
   14     1.811e-06  
   15     5.272e-07  Converged.
   ... Converged in 15 steps (norm: 5.27156e-07)
------------------------------------
  Starting TPA DIIS iterations ... 
------------------------------------ 
   It     Res. Norm  Remark
------------------------------------
                       Guess.
    1     5.183e+00  
    2     7.281e+00  
    3     1.273e+00  
    4     3.415e-01  
    5     9.144e-02  
    6     3.688e-02  
    7     1.092e-02  
    8     1.830e-03  
    9     6.653e-04  
   10     1.172e-04  
   11     3.650e-05  
   12     5.974e-06  
   13     1.770e-06  
   14     5.793e-07  Converged.
   ... Converged in 14 steps (norm: 5.79339e-07)
------------------------------------
  Starting TPA DIIS iterations ... 
------------------------------------ 
   It     Res. Norm  Remark
------------------------------------
                       Guess.
    1     5.192e+00  
    2     7.251e+00  
    3     1.221e+00  
    4     3.189e-01  
    5     8.969e-02  
    6     3.355e-02  
    7     1.040e-02  
    8     1.590e-03  
    9     6.015e-04  
   10     1.058e-04  
   11     3.142e-05  
   12     5.372e-06  
   13     1.682e-06  
   14     5.798e-07  Converged.
   ... Converged in 14 steps (norm: 5.79785e-07)
------------------------------------
  Starting TPA DIIS iterations ... 
------------------------------------ 
   It     Res. Norm  Remark
------------------------------------
                       Guess.
    1     7.098e-01  
    2     5.162e-01  
    3     1.888e-01  
    4     6.906e-02  
    5     2.128e-02  
    6     7.961e-03  
    7     1.420e-03  
    8     4.917e-04  
    9     2.394e-04  
   10     5.788e-05  
   11     3.422e-05  
   12     1.222e-05  
   13     6.358e-06  
   14     2.788e-06  
   15     7.543e-07  Converged.
   ... Converged in 15 steps (norm: 7.54325e-07)
------------------------------------
  Starting TPA DIIS iterations ... 
------------------------------------ 
   It     Res. Norm  Remark
------------------------------------
                       Guess.
    1     5.234e+00  
    2     7.377e+00  
    3     1.287e+00  
    4     3.471e-01  
    5     9.308e-02  
    6     3.759e-02  
    7     1.112e-02  
    8     1.864e-03  
    9     6.782e-04  
   10     1.195e-04  
   11     3.730e-05  
   12     6.110e-06  
   13     1.812e-06  
   14     5.935e-07  Converged.
   ... Converged in 14 steps (norm: 5.93457e-07)
------------------------------------
  Starting TPA DIIS iterations ... 
------------------------------------ 
   It     Res. Norm  Remark
------------------------------------
                       Guess.
    1     5.243e+00  
    2     7.347e+00  
    3     1.234e+00  
    4     3.240e-01  
    5     9.130e-02  
    6     3.417e-02  
    7     1.059e-02  
    8     1.618e-03  
    9     6.131e-04  
   10     1.079e-04  
   11     3.211e-05  
   12     5.495e-06  
   13     1.726e-06  
   14     5.945e-07  Converged.
   ... Converged in 14 steps (norm: 5.94538e-07)
------------------------------------
  Starting TPA DIIS iterations ... 
------------------------------------ 
   It     Res. Norm  Remark
------------------------------------
                       Guess.
    1     7.116e-01  
    2     5.189e-01  
    3     1.904e-01  
    4     7.037e-02  
    5     2.152e-02  
    6     8.064e-03  
    7     1.446e-03  
    8     5.003e-04  
    9     2.443e-04  
   10     5.972e-05  
   11     3.507e-05  
   12     1.255e-05  
   13     6.576e-06  
   14     2.896e-06  
   15     7.762e-07  Converged.
   ... Converged in 15 steps (norm: 7.76169e-07)
------------------------------------
  Starting TPA DIIS iterations ... 
------------------------------------ 
   It     Res. Norm  Remark
------------------------------------
                       Guess.
    1     6.236e+00  
    2     9.310e+00  
    3     1.560e+00  
    4     4.626e-01  
    5     1.271e-01  
    6     5.228e-02  
    7     1.531e-02  
    8     2.552e-03  
    9     9.462e-04  
   10     1.686e-04  
   11     5.420e-05  
   12     8.997e-06  
   13     2.736e-06  
   14     9.059e-07  Converged.
   ... Converged in 14 steps (norm: 9.05936e-07)
------------------------------------
  Starting TPA DIIS iterations ... 
------------------------------------ 
   It     Res. Norm  Remark
------------------------------------
                       Guess.
    1     6.244e+00  
    2     9.270e+00  
    3     1.498e+00  
    4     4.303e-01  
    5     1.246e-01  
    6     4.726e-02  
    7     1.454e-02  
    8     2.204e-03  
    9     8.561e-04  
   10     1.520e-04  
   11     4.673e-05  
   12     8.125e-06  
   13     2.694e-06  
   14     9.233e-07  Converged.
   ... Converged in 14 steps (norm: 9.23267e-07)
------------------------------------
  Starting TPA DIIS iterations ... 
------------------------------------ 
   It     Res. Norm  Remark
------------------------------------
                       Guess.
    1     7.430e-01  
    2     5.689e-01  
    3     2.203e-01  
    4     9.858e-02  
    5     2.605e-02  
    6     1.019e-02  
    7     2.004e-03  
    8     6.680e-04  
    9     3.456e-04  
   10     1.013e-04  
   11     5.400e-05  
   12     2.036e-05  
   13     1.214e-05  
   14     5.495e-06  
   15     1.217e-06  
   16     4.338e-07  Converged.
   ... Converged in 16 steps (norm: 4.33809e-07)
------------------------------------
  Starting TPA DIIS iterations ... 
------------------------------------ 
   It     Res. Norm  Remark
------------------------------------
                       Guess.
    1     6.533e+00  
    2     9.902e+00  
    3     1.641e+00  
    4     4.990e-01  
    5     1.378e-01  
    6     5.697e-02  
    7     1.663e-02  
    8     2.768e-03  
    9     1.031e-03  
   10     1.841e-04  
   11     5.966e-05  
   12     9.931e-06  
   13     3.043e-06  
   14     1.013e-06  
   15     3.235e-07  Converged.
   ... Converged in 15 steps (norm: 3.23548e-07)
------------------------------------
  Starting TPA DIIS iterations ... 
------------------------------------ 
   It     Res. Norm  Remark
------------------------------------
                       Guess.
    1     6.540e+00  
    2     9.859e+00  
    3     1.575e+00  
    4     4.637e-01  
    5     1.351e-01  
    6     5.142e-02  
    7     1.578e-02  
    8     2.387e-03  
    9     9.334e-04  
   10     1.660e-04  
   11     5.150e-05  
   12     8.981e-06  
   13     3.027e-06  
   14     1.036e-06  
   15     5.329e-07  Converged.
   ... Converged in 15 steps (norm: 5.32942e-07)
------------------------------------
  Starting TPA DIIS iterations ... 
------------------------------------ 
   It     Res. Norm  Remark
------------------------------------
                       Guess.
    1     7.513e-01  
    2     5.827e-01  
    3     2.289e-01  
    4     1.079e-01  
    5     2.738e-02  
    6     1.085e-02  
    7     2.185e-03  
    8     7.155e-04  
    9     3.771e-04  
   10     1.155e-04  
   11     6.044e-05  
   12     2.316e-05  
   13     1.435e-05  
   14     6.420e-06  
   15     1.366e-06  
   16     4.957e-07  Converged.
   ... Converged in 16 steps (norm: 4.95742e-07)
------------------------------------
  Starting TPA DIIS iterations ... 
------------------------------------ 
   It     Res. Norm  Remark
------------------------------------
                       Guess.
    1     7.161e+00  
    2     1.118e+01  
    3     1.810e+00  
    4     5.788e-01  
    5     1.614e-01  
    6     6.732e-02  
    7     1.952e-02  
    8     3.241e-03  
    9     1.219e-03  
   10     2.185e-04  
   11     7.174e-05  
   12     1.200e-05  
   13     3.736e-06  
   14     1.263e-06  
   15     4.090e-07  Converged.
   ... Converged in 15 steps (norm: 4.08967e-07)
------------------------------------
  Starting TPA DIIS iterations ... 
------------------------------------ 
   It     Res. Norm  Remark
------------------------------------
                       Guess.
    1     7.168e+00  
    2     1.113e+01  
    3     1.738e+00  
    4     5.369e-01  
    5     1.582e-01  
    6     6.059e-02  
    7     1.851e-02  
    8     2.788e-03  
    9     1.104e-03  
   10     1.969e-04  
   11     6.213e-05  
   12     1.089e-05  
   13     3.803e-06  
   14     1.301e-06  
   15     7.127e-07  Converged.
   ... Converged in 15 steps (norm: 7.12742e-07)
------------------------------------
  Starting TPA DIIS iterations ... 
------------------------------------ 
   It     Res. Norm  Remark
------------------------------------
                       Guess.
    1     7.673e-01  
    2     6.106e-01  
    3     2.466e-01  
    4     1.288e-01  
    5     3.025e-02  
    6     1.231e-02  
    7     2.588e-03  
    8     8.109e-04  
    9     4.453e-04  
   10     1.480e-04  
   11     7.530e-05  
   12     2.986e-05  
   13     2.008e-05  
   14     8.574e-06  
   15     1.741e-06  
   16     6.442e-07  Converged.
   ... Converged in 16 steps (norm: 6.44184e-07)
------------------------------------
  Starting TPA DIIS iterations ... 
------------------------------------ 
   It     Res. Norm  Remark
------------------------------------
                       Guess.
    1     1.064e+01  
    2     1.884e+01  
    3     2.720e+00  
    4     1.076e+00  
    5     3.095e-01  
    6     1.340e-01  
    7     3.764e-02  
    8     6.177e-03  
    9     2.417e-03  
   10     4.358e-04  
   11     1.471e-04  
   12     2.550e-05  
   13     8.472e-06  
   14     3.282e-06  
   15     1.098e-06  
   16     4.346e-07  Converged.
   ... Converged in 16 steps (norm: 4.34582e-07)
------------------------------------
  Starting TPA DIIS iterations ... 
------------------------------------ 
   It     Res. Norm  Remark
------------------------------------
                       Guess.
    1     1.063e+01  
    2     1.875e+01  
    3     2.615e+00  
    4     9.893e-01  
    5     3.029e-01  
    6     1.193e-01  
    7     3.554e-02  
    8     5.263e-03  
    9     2.204e-03  
   10     3.929e-04  
   11     1.313e-04  
   12     2.331e-05  
   13     9.866e-06  
   14     3.601e-06  
   15     2.322e-06  
   16     9.154e-07  Converged.
   ... Converged in 16 steps (norm: 9.15441e-07)
------------------------------------
  Starting TPA DIIS iterations ... 
------------------------------------ 
   It     Res. Norm  Remark
------------------------------------
                       Guess.
    1     8.344e-01  
    2     7.424e-01  
    3     3.355e-01  
    4     2.656e-01  
    5     4.759e-02  
    6     2.089e-02  
    7     5.180e-03  
    8     1.284e-03  
    9     8.503e-04  
   10     3.686e-04  
   11     1.852e-04  
   12     8.424e-05  
   13     7.509e-05  
   14     2.449e-05  
   15     5.813e-06  
   16     2.023e-06  
   17     6.645e-07  Converged.
   ... Converged in 17 steps (norm: 6.64524e-07)
------------------------------------
  Starting TPA DIIS iterations ... 
------------------------------------ 
   It     Res. Norm  Remark
------------------------------------
                       Guess.
    1     1.193e+01  
    2     2.192e+01  
    3     3.048e+00  
    4     1.278e+00  
    5     3.710e-01  
    6     1.622e-01  
    7     4.513e-02  
    8     7.385e-03  
    9     2.922e-03  
   10     5.262e-04  
   11     1.774e-04  
   12     3.139e-05  
   13     1.064e-05  
   14     4.300e-06  
   15     1.502e-06  
   16     6.150e-07  Converged.
   ... Converged in 16 steps (norm: 6.14972e-07)
------------------------------------
  Starting TPA DIIS iterations ... 
------------------------------------ 
   It     Res. Norm  Remark
------------------------------------
                       Guess.
    1     1.192e+01  
    2     2.181e+01  
    3     2.932e+00  
    4     1.173e+00  
    5     3.628e-01  
    6     1.440e-01  
    7     4.258e-02  
    8     6.278e-03  
    9     2.671e-03  
   10     4.748e-04  
   11     1.604e-04  
   12     2.861e-05  
   13     1.292e-05  
   14     4.928e-06  
   15     3.200e-06  
   16     1.327e-06  
   17     8.429e-07  Converged.
   ... Converged in 17 steps (norm: 8.42898e-07)
------------------------------------
  Starting TPA DIIS iterations ... 
------------------------------------ 
   It     Res. Norm  Remark
------------------------------------
                       Guess.
    1     8.533e-01  
    2     7.846e-01  
    3     3.656e-01  
    4     3.200e-01  
    5     5.457e-02  
    6     2.401e-02  
    7     6.237e-03  
    8     1.487e-03  
    9     1.010e-03  
   10     4.616e-04  
   11     2.365e-04  
   12     1.098e-04  
   13     1.011e-04  
   14     3.177e-05  
   15     8.229e-06  
   16     2.874e-06  
   17     9.515e-07  Converged.
   ... Converged in 17 steps (norm: 9.51459e-07)
------------------------------------
  Starting TPA DIIS iterations ... 
------------------------------------ 
   It     Res. Norm  Remark
------------------------------------
                       Guess.
    1     1.308e+01  
    2     2.474e+01  
    3     3.334e+00  
    4     1.463e+00  
    5     4.278e-01  
    6     1.885e-01  
    7     5.205e-02  
    8     8.496e-03  
    9     3.390e-03  
   10     6.097e-04  
   11     2.049e-04  
   12     3.704e-05  
   13     1.278e-05  
   14     5.314e-06  
   15     1.963e-06  
   16     8.157e-07  Converged.
   ... Converged in 16 steps (norm: 8.15663e-07)
------------------------------------
  Starting TPA DIIS iterations ... 
------------------------------------ 
   It     Res. Norm  Remark
------------------------------------
                       Guess.
    1     1.307e+01  
    2     2.461e+01  
    3     3.208e+00  
    4     1.341e+00  
    5     4.182e-01  
    6     1.671e-01  
    7     4.907e-02  
    8     7.211e-03  
    9     3.107e-03  
   10     5.505e-04  
   11     1.872e-04  
   12     3.358e-05  
   13     1.599e-05  
   14     6.351e-06  
   15     4.108e-06  
   16     1.758e-06  
   17     1.089e-06  
   18     4.703e-07  Converged.
   ... Converged in 18 steps (norm: 4.70348e-07)
------------------------------------
  Starting TPA DIIS iterations ... 
------------------------------------ 
   It     Res. Norm  Remark
------------------------------------
                       Guess.
    1     8.682e-01  
    2     8.198e-01  
    3     3.912e-01  
    4     3.671e-01  
    5     6.089e-02  
    6     2.663e-02  
    7     7.189e-03  
    8     1.693e-03  
    9     1.154e-03  
   10     5.464e-04  
   11     2.856e-04  
   12     1.337e-04  
   13     1.244e-04  
   14     3.869e-05  
   15     1.076e-05  
   16     3.825e-06  
   17     1.284e-06  
   18     4.742e-07  Converged.
   ... Converged in 18 steps (norm: 4.74152e-07)
------------------------------------
  Starting TPA DIIS iterations ... 
------------------------------------ 
   It     Res. Norm  Remark
------------------------------------
                       Guess.
    1     1.649e+01  
    2     3.358e+01  
    3     4.161e+00  
    4     2.033e+00  
    5     6.075e-01  
    6     2.731e-01  
    7     7.390e-02  
    8     1.200e-02  
    9     4.887e-03  
   10     8.729e-04  
   11     2.919e-04  
   12     5.654e-05  
   13     2.027e-05  
   14     9.037e-06  
   15     3.966e-06  
   16     1.704e-06  
   17     8.432e-07  Converged.
   ... Converged in 17 steps (norm: 8.4319e-07)
------------------------------------
  Starting TPA DIIS iterations ... 
------------------------------------ 
   It     Res. Norm  Remark
------------------------------------
                       Guess.
    1     1.646e+01  
    2     3.338e+01  
    3     4.006e+00  
    4     1.858e+00  
    5     5.931e-01  
    6     2.409e-01  
    7     6.957e-02  
    8     1.015e-02  
    9     4.511e-03  
   10     7.906e-04  
   11     2.731e-04  
   12     5.011e-05  
   13     2.711e-05  
   14     1.194e-05  
   15     7.595e-06  
   16     3.410e-06  
   17     1.993e-06  
   18     9.135e-07  Converged.
   ... Converged in 18 steps (norm: 9.13483e-07)
------------------------------------
  Starting TPA DIIS iterations ... 
------------------------------------ 
   It     Res. Norm  Remark
------------------------------------
                       Guess.
    1     9.053e-01  
    2     9.148e-01  
    3     4.620e-01  
    4     4.912e-01  
    5     8.010e-02  
    6     3.331e-02  
    7     1.004e-02  
    8     2.433e-03  
    9     1.597e-03  
   10     8.043e-04  
   11     4.491e-04  
   12     2.101e-04  
   13     1.879e-04  
   14     6.164e-05  
   15     2.026e-05  
   16     8.104e-06  
   17     2.267e-06  
   18     9.517e-07  Converged.
   ... Converged in 18 steps (norm: 9.51689e-07)
------------------------------------
  Two-photon absorbption ...  CPU 102.09 s  wall 19.34 s
  Transition density matrix of state singlet_A_1 printed to ASCII file 'State_singlet_A_1_Transition.txt'
  Transition density matrix of state singlet_A_2 printed to ASCII file 'State_singlet_A_2_Transition.txt'
  Transition density matrix of state singlet_A_3 printed to ASCII file 'State_singlet_A_3_Transition.txt'
  Transition density matrix of state singlet_A_4 printed to ASCII file 'State_singlet_A_4_Transition.txt'
  Transition density matrix of state singlet_A_5 printed to ASCII file 'State_singlet_A_5_Transition.txt'
  Transition density matrix of state singlet_A_6 printed to ASCII file 'State_singlet_A_6_Transition.txt'
  Transition density matrix of state singlet_A_7 printed to ASCII file 'State_singlet_A_7_Transition.txt'
  Transition density matrix of state singlet_A_8 printed to ASCII file 'State_singlet_A_8_Transition.txt'
  Transition density matrix of state singlet_A_9 printed to ASCII file 'State_singlet_A_9_Transition.txt'
  Transition density matrix of state singlet_A_10 printed to ASCII file 'State_singlet_A_10_Transition.txt'
  Transition properties ...  CPU 0.15 s  wall 0.74 s
  Difference density matrix of state singlet_A_1 printed to ASCII file 'State_singlet_A_1_Difference.txt'
  Total density matrix of state singlet_A_1 printed to ASCII file 'State_singlet_A_1_Total.txt'
  Difference density matrix of state singlet_A_2 printed to ASCII file 'State_singlet_A_2_Difference.txt'
  Total density matrix of state singlet_A_2 printed to ASCII file 'State_singlet_A_2_Total.txt'
  Difference density matrix of state singlet_A_3 printed to ASCII file 'State_singlet_A_3_Difference.txt'
  Total density matrix of state singlet_A_3 printed to ASCII file 'State_singlet_A_3_Total.txt'
  Difference density matrix of state singlet_A_4 printed to ASCII file 'State_singlet_A_4_Difference.txt'
  Total density matrix of state singlet_A_4 printed to ASCII file 'State_singlet_A_4_Total.txt'
  Difference density matrix of state singlet_A_5 printed to ASCII file 'State_singlet_A_5_Difference.txt'
  Total density matrix of state singlet_A_5 printed to ASCII file 'State_singlet_A_5_Total.txt'
  Difference density matrix of state singlet_A_6 printed to ASCII file 'State_singlet_A_6_Difference.txt'
  Total density matrix of state singlet_A_6 printed to ASCII file 'State_singlet_A_6_Total.txt'
  Difference density matrix of state singlet_A_7 printed to ASCII file 'State_singlet_A_7_Difference.txt'
  Total density matrix of state singlet_A_7 printed to ASCII file 'State_singlet_A_7_Total.txt'
  Difference density matrix of state singlet_A_8 printed to ASCII file 'State_singlet_A_8_Difference.txt'
  Total density matrix of state singlet_A_8 printed to ASCII file 'State_singlet_A_8_Total.txt'
  Difference density matrix of state singlet_A_9 printed to ASCII file 'State_singlet_A_9_Difference.txt'
  Total density matrix of state singlet_A_9 printed to ASCII file 'State_singlet_A_9_Total.txt'
  Difference density matrix of state singlet_A_10 printed to ASCII file 'State_singlet_A_10_Difference.txt'
  Total density matrix of state singlet_A_10 printed to ASCII file 'State_singlet_A_10_Total.txt'
  Properties ...  CPU 0.27 s  wall 0.95 s
  ISR TDMS ...  CPU 7.65 s  wall 2.64 s
  ISR transition properties ...  CPU 0.14 s  wall 0.07 s
  Sum-over-states TPA ...  CPU 0.00 s  wall 0.00 s

--------------------------------------------------------------------------------
                   State-averaged natural transition orbitals
--------------------------------------------------------------------------------
--------------------------------------------------------------------------------
  SA-NTO decomposition ...  CPU 0.01 s  wall 0.04 s

--------------------------------------------------------------------------------
                             Excited State Summary
--------------------------------------------------------------------------------
--------------------------------------------------------------------------------

  Excited state 1 (singlet, A)                                     [converged]
  ----------------------------------------------------------------------------
  Term symbol:  2 (1) A                                     R^2 =  1.42574e-13

  Total energy:                                            -78.0052419442 a.u.
  Excitation energy:                                               8.499083 eV

  Osc. strength:                                                      0.432434
  Trans. dip. moment [a.u.]:           [  -1.037152,    1.000523,    0.006696]
  <i|r^2|0> [a.u.]:                    [  -6.095258,    0.285755,   -0.001772]
  Two-photon absorption cross-section (SoS) [a.u.]:                   0.028732
  Two-photon absorption matrix (SoS) [a.u.]:
                                       |    0.010843   -0.021456   -0.001908 |
                                       |   -0.021456   -0.069432   -0.007049 |
                                       |   -0.001908   -0.007049    0.012560 |
  Two-photon absorption cross-section [a.u.]:                         0.020391
  Two-photon absorption matrix [a.u.]:
                                       |    0.052082   -0.001665   -0.001052 |
                                       |   -0.001665   -0.023614   -0.003498 |
                                       |   -0.001052   -0.003498    0.022399 |

  Dip. moment [a.u.]:                  [  -0.003304,   -0.000432,   -0.001289]
  Total dipole [Debye]:                                               0.009082
  <r^2> [a.u.]:                        [ 176.125681,   36.504670,   11.865887]
  Total <r^2> [a.u.]:                                               224.496238

  V1^2 = 0.9715, V2^2 = 0.0285

  Important amplitudes:
      occ i     occ j     vir a      vir b          v   
    -----------------------------------------------------
     8 (A) A              9 (A) A                -0.6808
     6 (A) A             14 (A) A                -0.0678
     4 (A) A             10 (A) A                -0.0581
     7 (A) A             16 (A) A                 0.0543
     5 (A) A             13 (A) A                -0.0492
     6 (A) A             23 (A) A                 0.0468
     8 (A) A             20 (A) A                -0.0360
     6 (A) A             19 (A) A                 0.0354
     3 (A) A             12 (A) A                 0.0283
     7 (A) A             11 (A) A                -0.0236
     5 (A) A             22 (A) A                -0.0195
     8 (A) A   8 (A) B   17 (A) A   20 (A) B      0.0186
     4 (A) A             24 (A) A                -0.0182
     3 (A) A             26 (A) A                 0.0181
     8 (A) A   8 (A) B    9 (A) A   28 (A) B     -0.0168
     6 (A) A             26 (A) A                -0.0155
     7 (A) A             21 (A) A                 0.0149
     3 (A) A             14 (A) A                 0.0142
     3 (A) A   4 (A) B    9 (A) A    9 (A) B      0.0130
     3 (A) A             19 (A) A                -0.0125
     6 (A) A             22 (A) A                -0.0121
     8 (A) A   8 (A) B   18 (A) A   19 (A) B      0.0113
     7 (A) A             32 (A) A                 0.0090
     7 (A) A             36 (A) A                 0.0083
     6 (A) A             12 (A) A                 0.0080
     8 (A) A   8 (A) B   25 (A) A   29 (A) B      0.0076
     3 (A) A             23 (A) A                -0.0076
     7 (A) A             14 (A) A                -0.0071
     6 (A) A             16 (A) A                -0.0069
     5 (A) A             23 (A) A                -0.0067
     6 (A) A             40 (A) A                -0.0067
     3 (A) A   6 (A) B    9 (A) A   28 (A) B      0.0066
     6 (A) A             35 (A) A                 0.0065
     6 (A) A   8 (A) A   19 (A) A   28 (A) A     -0.0064
     7 (A) A             23 (A) A                 0.0060
     5 (A) A   7 (A) B    9 (A) A    9 (A) B     -0.0059
     5 (A) A   8 (A) B   11 (A) A   20 (A) B     -0.0059
     7 (A) A   8 (A) B   13 (A) A   20 (A) B     -0.0058
     6 (A) A   8 (A) A    9 (A) A   18 (A) A     -0.0057
     5 (A) A   8 (A) B   16 (A) A    9 (A) B      0.0057
    -----------------------------------------------------

  Density matrix analysis:
  ------------------------
  NOs
    Occupation of frontier NOs:
       0.9489   1.0221
    Number of electrons: 16.000000
    Number of unpaired electrons: n_u =  2.31450, n_u,nl =  2.03366
    NO participation ratio (PR_NO):  2.869141
  
  
  Mulliken Population Analysis
  Atom      Charge (e)              h+              e-           Del q
  --------------------------------------------------------------------
   1 H        0.060770        0.019021       -0.012758        0.006263
   2 C       -0.100717        0.489229       -0.501172       -0.011944
   3 H        0.050085        0.019058       -0.012595        0.006463
   4 C       -0.128006        0.488492       -0.502847       -0.014355
   5 H        0.060238        0.019408       -0.012259        0.007149
   6 H        0.057629        0.018980       -0.012556        0.006424
  --------------------------------------------------------------------
  Sum:       -0.000000        1.054186       -1.054186        0.000000
  
  Multipole moment analysis of the density matrix
    Molecular charge:                      -0.000000
    Number of electrons:                   16.000000
      Center of electronic charge [Ang]: [ -1.560467,  -0.080588,   0.002021]
    Total nuclear charge:                  16.000000
      Center of nuclear charge [Ang]:    [ -1.560576,  -0.080602,   0.001978]
    Dipole moment [D]:                     0.009082
      Cartesian components [D]:          [ -0.008398,  -0.001099,  -0.003278]
    RMS size of the density [Ang]:         1.219643
      Cartesian components [Ang]:        [  0.804647,   0.795237,   0.455708]
  
  Exciton analysis of the difference density matrix
    <r_h> [Ang]:                  [ -1.559938,  -0.084249,   0.002267]
    <r_e> [Ang]:                  [ -1.560640,  -0.084271,   0.002363]
    |<r_e - r_h>| [Ang]:            0.000709
    Hole size [Ang]:                1.289094
      Cartesian components [Ang]: [  0.725523,   0.719452,   0.785983]
    Electron size [Ang]:            1.462146
      Cartesian components [Ang]: [  0.845519,   0.840697,   0.846284]

  Transition density matrix analysis:
  -----------------------------------
  
  CT numbers (Mulliken)
    omega =     0.9535
    <Phe> =    -0.1677
  
  Exciton analysis of the transition density matrix
    Trans. dipole moment [D]:             1.831458
      Cartesian components [D]:         [ -1.318089,   1.271538,   0.008510]
    <r_h> [Ang]:                        [ -1.559067,  -0.086097,   0.002116]
    <r_e> [Ang]:                        [ -1.560705,  -0.083942,   0.002432]
    |<r_e - r_h>| [Ang]:                  0.002725
    Hole size [Ang]:                      1.224603
      Cartesian components [Ang]:       [  0.652682,   0.648886,   0.807840]
    Electron size [Ang]:                  1.481511
      Cartesian components [Ang]:       [  0.853838,   0.848378,   0.863765]
    RMS electron-hole separation [Ang]:   1.944562
      Cartesian components [Ang]:       [  1.101502,   1.096202,   1.168912]
    Covariance(r_h, r_e) [Ang^2]:        -0.043394
    Correlation coefficient:             -0.023918
    Center-of-mass size [Ang]:            0.949702
      Cartesian components [Ang]:       [  0.523632,   0.519601,   0.598129]

  Decomposition into state-averaged NTOs
    H- 0 -> L+ 0: -0.6693 ( 89.6%)
    H- 2 -> L+ 5:  0.0885 (  1.6%)
    H- 5 -> L+ 6:  0.0732 (  1.1%)
                   omega =  95.4%
  ----------------------------------------------------------------------------


  Excited state 2 (singlet, A)                                     [converged]
  ----------------------------------------------------------------------------
  Term symbol:  3 (1) A                                     R^2 =  9.96991e-14

  Total energy:                                            -77.9861081263 a.u.
  Excitation energy:                                               9.019741 eV

  Osc. strength:                                                      0.010548
  Trans. dip. moment [a.u.]:           [   0.010357,    0.013526,   -0.217816]
  <i|r^2|0> [a.u.]:                    [  -0.002306,   -0.046044,    0.115673]
  Two-photon absorption cross-section (SoS) [a.u.]:                   5.447926
  Two-photon absorption matrix (SoS) [a.u.]:
                                       |   -0.071456   -0.063655    0.632048 |
                                       |   -0.063655   -0.062167    0.515825 |
                                       |    0.632048    0.515825    0.116822 |
  Two-photon absorption cross-section [a.u.]:                         0.240180
  Two-photon absorption matrix [a.u.]:
                                       |   -0.007556    0.000467   -0.125891 |
                                       |    0.000467   -0.001015    0.118836 |
                                       |   -0.125891    0.118836   -0.000895 |

  Dip. moment [a.u.]:                  [  -0.387886,   -0.298136,   -0.036824]
  Total dipole [Debye]:                                               1.247002
  <r^2> [a.u.]:                        [ 174.540919,   37.697202,   12.308969]
  Total <r^2> [a.u.]:                                               224.547090

  V1^2 = 0.9557, V2^2 = 0.0443

  Important amplitudes:
      occ i     occ j     vir a      vir b          v   
    -----------------------------------------------------
     7 (A) A              9 (A) A                -0.5174
     8 (A) A             10 (A) A                 0.4320
     8 (A) A             11 (A) A                -0.1297
     7 (A) A             20 (A) A                -0.0586
     8 (A) A             24 (A) A                 0.0302
     8 (A) A             16 (A) A                -0.0253
     5 (A) A   8 (A) B    9 (A) A    9 (A) B     -0.0250
     8 (A) A             18 (A) A                -0.0196
     8 (A) A             21 (A) A                 0.0185
     6 (A) A              9 (A) A                -0.0183
     8 (A) A   8 (A) B    9 (A) A   12 (A) B     -0.0138
     4 (A) A              9 (A) A                 0.0120
     5 (A) A             28 (A) A                 0.0111
     8 (A) A             15 (A) A                 0.0109
     8 (A) A   8 (A) B   10 (A) A   17 (A) B      0.0105
     4 (A) A   7 (A) B    9 (A) A   19 (A) B      0.0103
     5 (A) A   7 (A) B    9 (A) A   16 (A) B     -0.0101
     5 (A) A   8 (A) B   11 (A) A   10 (A) B     -0.0099
     7 (A) A   8 (A) B   13 (A) A   10 (A) B     -0.0086
     7 (A) A   8 (A) B   20 (A) A   17 (A) B      0.0081
     7 (A) A   8 (A) A    9 (A) A   28 (A) A      0.0075
     5 (A) A   8 (A) B    9 (A) A   20 (A) B     -0.0073
     5 (A) A   6 (A) A    9 (A) A   14 (A) A      0.0073
     5 (A) A   6 (A) B    9 (A) A   19 (A) B     -0.0070
     5 (A) A   6 (A) A    9 (A) A   23 (A) A     -0.0068
     4 (A) A   6 (A) B    9 (A) A   16 (A) B      0.0068
     4 (A) A   8 (A) B   12 (A) A   10 (A) B     -0.0068
     8 (A) A   7 (A) B    9 (A) A   28 (A) B     -0.0066
     7 (A) A   8 (A) B   22 (A) A   10 (A) B     -0.0065
     4 (A) A   5 (A) A    9 (A) A   10 (A) A     -0.0065
     6 (A) A   8 (A) A   10 (A) A   15 (A) A      0.0064
     4 (A) A   8 (A) A   10 (A) A   12 (A) A      0.0064
     6 (A) A   8 (A) B   15 (A) A   10 (A) B     -0.0064
     3 (A) A   7 (A) B    9 (A) A   18 (A) B     -0.0062
     5 (A) A   7 (A) A    9 (A) A   16 (A) A     -0.0060
     7 (A) A   8 (A) A   10 (A) A   22 (A) A      0.0060
     3 (A) A              9 (A) A                 0.0060
     4 (A) A   8 (A) B    9 (A) A   25 (A) B     -0.0060
     7 (A) A   8 (A) A   10 (A) A   13 (A) A      0.0059
     7 (A) A   8 (A) B   17 (A) A   20 (A) B      0.0058
    -----------------------------------------------------

  Density matrix analysis:
  ------------------------
  NOs
    Occupation of frontier NOs:
       0.5833   1.4191
    Number of electrons: 16.000000
    Number of unpaired electrons: n_u =  2.35149, n_u,nl =  2.35343
    NO participation ratio (PR_NO):  5.091569
  
  
  Mulliken Population Analysis
  Atom      Charge (e)              h+              e-           Del q
  --------------------------------------------------------------------
   1 H       -0.031375        0.109722       -0.195604       -0.085882
   2 C       -0.032805        0.337284       -0.281316        0.055968
   3 H        0.058990        0.065619       -0.050250        0.015369
   4 C       -0.063249        0.342522       -0.292120        0.050403
   5 H       -0.039035        0.087160       -0.179284       -0.092124
   6 H        0.107473        0.102482       -0.046215        0.056267
  --------------------------------------------------------------------
  Sum:       -0.000000        1.044789       -1.044789        0.000000
  
  Multipole moment analysis of the density matrix
    Molecular charge:                      0.000000
    Number of electrons:                   16.000000
      Center of electronic charge [Ang]: [ -1.547747,  -0.070742,   0.003196]
    Total nuclear charge:                  16.000000
      Center of nuclear charge [Ang]:    [ -1.560576,  -0.080602,   0.001978]
    Dipole moment [D]:                     1.247002
      Cartesian components [D]:          [ -0.985907,  -0.757786,  -0.093597]
    RMS size of the density [Ang]:         1.236704
      Cartesian components [Ang]:        [  0.811945,   0.809175,   0.464132]
  
  Exciton analysis of the difference density matrix
    <r_h> [Ang]:                  [ -1.542435,  -0.032229,   0.005769]
    <r_e> [Ang]:                  [ -1.348355,   0.118533,   0.023863]
    |<r_e - r_h>| [Ang]:            0.246421
    Hole size [Ang]:                1.472538
      Cartesian components [Ang]: [  0.987214,   0.881204,   0.645954]
    Electron size [Ang]:            1.792233
      Cartesian components [Ang]: [  1.141624,   1.128717,   0.796737]

  Transition density matrix analysis:
  -----------------------------------
  
  CT numbers (Mulliken)
    omega =     0.9220
    <Phe> =    -0.0113
  
  Exciton analysis of the transition density matrix
    Trans. dipole moment [D]:             0.277661
      Cartesian components [D]:         [  0.013162,   0.017189,  -0.276816]
    <r_h> [Ang]:                        [ -1.554934,  -0.039727,   0.004727]
    <r_e> [Ang]:                        [ -1.327136,   0.132158,   0.025733]
    |<r_e - r_h>| [Ang]:                  0.286143
    Hole size [Ang]:                      1.400789
      Cartesian components [Ang]:       [  0.945197,   0.822440,   0.626423]
    Electron size [Ang]:                  1.819067
      Cartesian components [Ang]:       [  1.154880,   1.145313,   0.814565]
    RMS electron-hole separation [Ang]:   2.303344
      Cartesian components [Ang]:       [  1.498263,   1.416511,   1.026693]
    Covariance(r_h, r_e) [Ang^2]:         0.023850
    Correlation coefficient:              0.009360
    Center-of-mass size [Ang]:            1.153139
      Cartesian components [Ang]:       [  0.751896,   0.706990,   0.514340]

  Decomposition into state-averaged NTOs
    H- 1 -> L+ 0: -0.5113 ( 52.3%)
    H- 0 -> L+ 1: -0.4340 ( 37.7%)
    H- 0 -> L+ 2:  0.0981 (  1.9%)
                   omega =  92.2%
  ----------------------------------------------------------------------------


  Excited state 3 (singlet, A)                                     [converged]
  ----------------------------------------------------------------------------
  Term symbol:  4 (1) A                                     R^2 =  4.13499e-13

  Total energy:                                            -77.9844545355 a.u.
  Excitation energy:                                               9.064738 eV

  Osc. strength:                                                      0.014884
  Trans. dip. moment [a.u.]:           [  -0.008783,   -0.018351,    0.258081]
  <i|r^2|0> [a.u.]:                    [  -0.105472,   -0.041775,    0.086971]
  Two-photon absorption cross-section (SoS) [a.u.]:                   1.286053
  Two-photon absorption matrix (SoS) [a.u.]:
                                       |   -0.048720   -0.028628    0.369411 |
                                       |   -0.028628   -0.011948    0.143160 |
                                       |    0.369411    0.143160    0.058628 |
  Two-photon absorption cross-section [a.u.]:                         0.273168
  Two-photon absorption matrix [a.u.]:
                                       |    0.002087    0.012646   -0.166822 |
                                       |    0.012646    0.024553   -0.075044 |
                                       |   -0.166822   -0.075044   -0.020600 |

  Dip. moment [a.u.]:                  [   0.162485,    0.087536,    0.012764]
  Total dipole [Debye]:                                               0.470235
  <r^2> [a.u.]:                        [ 179.169534,   38.945413,   11.926602]
  Total <r^2> [a.u.]:                                               230.041548

  V1^2 = 0.9569, V2^2 = 0.0431

  Important amplitudes:
      occ i     occ j     vir a      vir b          v   
    -----------------------------------------------------
     8 (A) A             10 (A) A                -0.5361
     7 (A) A              9 (A) A                -0.4251
     8 (A) A             11 (A) A                -0.0669
     7 (A) A             20 (A) A                -0.0477
     8 (A) A             24 (A) A                -0.0392
     8 (A) A             18 (A) A                 0.0235
     5 (A) A   8 (A) B    9 (A) A    9 (A) B     -0.0206
     4 (A) A              9 (A) A                -0.0202
     6 (A) A              9 (A) A                -0.0179
     8 (A) A   8 (A) B    9 (A) A   12 (A) B      0.0173
     8 (A) A             15 (A) A                -0.0147
     8 (A) A   8 (A) B   10 (A) A   17 (A) B     -0.0131
     5 (A) A   8 (A) B   11 (A) A   10 (A) B      0.0124
     7 (A) A   8 (A) B   13 (A) A   10 (A) B      0.0106
     8 (A) A             16 (A) A                -0.0099
     5 (A) A             28 (A) A                 0.0095
     8 (A) A             13 (A) A                 0.0093
     4 (A) A   8 (A) B   12 (A) A   10 (A) B      0.0085
     4 (A) A   7 (A) B    9 (A) A   19 (A) B      0.0085
     5 (A) A   7 (A) B    9 (A) A   16 (A) B     -0.0083
     6 (A) A   8 (A) A   10 (A) A   15 (A) A     -0.0082
     4 (A) A   8 (A) A   10 (A) A   12 (A) A     -0.0081
     6 (A) A   8 (A) B   15 (A) A   10 (A) B      0.0080
     7 (A) A   8 (A) B   22 (A) A   10 (A) B      0.0080
     7 (A) A   8 (A) A   10 (A) A   13 (A) A     -0.0073
     7 (A) A   8 (A) A   10 (A) A   22 (A) A     -0.0073
     5 (A) A   8 (A) B   21 (A) A   10 (A) B     -0.0072
     6 (A) A   8 (A) A   10 (A) A   18 (A) A     -0.0071
     5 (A) A   8 (A) A   10 (A) A   11 (A) A     -0.0070
     7 (A) A   8 (A) B   20 (A) A   17 (A) B      0.0067
     6 (A) A   8 (A) B   10 (A) A   10 (A) B     -0.0064
     3 (A) A   4 (A) B   10 (A) A    9 (A) B      0.0063
     8 (A) A   8 (A) B    9 (A) A   23 (A) B      0.0063
     7 (A) A   8 (A) A    9 (A) A   28 (A) A      0.0062
     5 (A) A   8 (A) A   10 (A) A   21 (A) A      0.0061
     7 (A) A   8 (A) A   12 (A) A   16 (A) A     -0.0061
     5 (A) A   8 (A) B    9 (A) A   20 (A) B     -0.0060
     5 (A) A   6 (A) A    9 (A) A   14 (A) A      0.0060
     5 (A) A   6 (A) B    9 (A) A   19 (A) B     -0.0057
     3 (A) A   8 (A) B   10 (A) A   10 (A) B     -0.0057
    -----------------------------------------------------

  Density matrix analysis:
  ------------------------
  NOs
    Occupation of frontier NOs:
       0.6091   1.3540
    Number of electrons: 16.000000
    Number of unpaired electrons: n_u =  2.34526, n_u,nl =  2.33291
    NO participation ratio (PR_NO):  4.917782
  
  
  Mulliken Population Analysis
  Atom      Charge (e)              h+              e-           Del q
  --------------------------------------------------------------------
   1 H        0.005156        0.083958       -0.133309       -0.049352
   2 C        0.081225        0.382173       -0.212175        0.169998
   3 H       -0.071664        0.067615       -0.182901       -0.115286
   4 C        0.074312        0.395768       -0.207804        0.187964
   5 H       -0.024530        0.068834       -0.146454       -0.077619
   6 H       -0.064499        0.096630       -0.212335       -0.115705
  --------------------------------------------------------------------
  Sum:       -0.000000        1.094978       -1.094978        0.000000
  
  Multipole moment analysis of the density matrix
    Molecular charge:                      -0.000000
    Number of electrons:                   16.000000
      Center of electronic charge [Ang]: [ -1.565950,  -0.083497,   0.001556]
    Total nuclear charge:                  16.000000
      Center of nuclear charge [Ang]:    [ -1.560576,  -0.080602,   0.001978]
    Dipole moment [D]:                     0.470235
      Cartesian components [D]:          [  0.412995,   0.222495,   0.032443]
    RMS size of the density [Ang]:         1.251784
      Cartesian components [Ang]:        [  0.826793,   0.821366,   0.456875]
  
  Exciton analysis of the difference density matrix
    <r_h> [Ang]:                  [ -1.591974,  -0.075125,   0.000919]
    <r_e> [Ang]:                  [ -1.672771,  -0.117660,  -0.005781]
    |<r_e - r_h>| [Ang]:            0.091555
    Hole size [Ang]:                1.463106
      Cartesian components [Ang]: [  0.942305,   0.865667,   0.709480]
    Electron size [Ang]:            1.935794
      Cartesian components [Ang]: [  1.259441,   1.243981,   0.783338]

  Transition density matrix analysis:
  -----------------------------------
  
  CT numbers (Mulliken)
    omega =     0.9233
    <Phe> =    -0.0130
  
  Exciton analysis of the transition density matrix
    Trans. dipole moment [D]:             0.329006
      Cartesian components [D]:         [ -0.011163,  -0.023322,   0.327989]
    <r_h> [Ang]:                        [ -1.590208,  -0.072533,   0.001230]
    <r_e> [Ang]:                        [ -1.689522,  -0.125201,  -0.007017]
    |<r_e - r_h>| [Ang]:                  0.112718
    Hole size [Ang]:                      1.345783
      Cartesian components [Ang]:       [  0.859828,   0.764683,   0.697916]
    Electron size [Ang]:                  2.002742
      Cartesian components [Ang]:       [  1.300993,   1.285427,   0.816132]
    RMS electron-hole separation [Ang]:   2.403148
      Cartesian components [Ang]:       [  1.554256,   1.486263,   1.072582]
    Covariance(r_h, r_e) [Ang^2]:         0.029846
    Correlation coefficient:              0.011074
    Center-of-mass size [Ang]:            1.212621
      Cartesian components [Ang]:       [  0.783888,   0.752981,   0.537577]

  Decomposition into state-averaged NTOs
    H- 0 -> L+ 1:  0.5227 ( 54.6%)
    H- 1 -> L+ 0: -0.4202 ( 35.3%)
    H- 0 -> L+ 2:  0.1013 (  2.1%)
                   omega =  92.3%
  ----------------------------------------------------------------------------


  Excited state 4 (singlet, A)                                     [converged]
  ----------------------------------------------------------------------------
  Term symbol:  5 (1) A                                     R^2 =  3.82611e-13

  Total energy:                                            -77.9566468799 a.u.
  Excitation energy:                                               9.821422 eV

  Osc. strength:                                                      0.000549
  Trans. dip. moment [a.u.]:           [   0.003433,    0.001822,   -0.047610]
  <i|r^2|0> [a.u.]:                    [   0.035039,    0.029145,   -0.042665]
  Two-photon absorption cross-section (SoS) [a.u.]:                 161.673473
  Two-photon absorption matrix (SoS) [a.u.]:
                                       |    0.345672    0.336699   -3.127112 |
                                       |    0.336699    0.339007   -3.157596 |
                                       |   -3.127112   -3.157596   -0.677285 |
  Two-photon absorption cross-section [a.u.]:                       107.756049
  Two-photon absorption matrix [a.u.]:
                                       |    0.309902    0.278363   -2.703467 |
                                       |    0.278363    0.244451   -2.419709 |
                                       |   -2.703467   -2.419709   -0.548428 |

  Dip. moment [a.u.]:                  [   0.297207,    0.225419,    0.028805]
  Total dipole [Debye]:                                               0.950951
  <r^2> [a.u.]:                        [ 183.764887,   41.004155,   10.812114]
  Total <r^2> [a.u.]:                                               235.581156

  V1^2 = 0.9635, V2^2 = 0.0365

  Important amplitudes:
      occ i     occ j     vir a      vir b          v   
    -----------------------------------------------------
     8 (A) A             11 (A) A                 0.6692
     7 (A) A              9 (A) A                -0.1429
     8 (A) A             21 (A) A                -0.0774
     8 (A) A             16 (A) A                 0.0609
     6 (A) A              9 (A) A                -0.0388
     8 (A) A             10 (A) A                 0.0305
     8 (A) A             12 (A) A                 0.0295
     8 (A) A   8 (A) B    9 (A) A   13 (A) B     -0.0173
     5 (A) A   8 (A) B   11 (A) A   11 (A) B     -0.0154
     8 (A) A   8 (A) B   11 (A) A   17 (A) B      0.0139
     7 (A) A             20 (A) A                -0.0131
     7 (A) A   8 (A) B   13 (A) A   11 (A) B     -0.0126
     5 (A) A   8 (A) A   11 (A) A   21 (A) A     -0.0109
     4 (A) A   8 (A) B   12 (A) A   11 (A) B     -0.0108
     8 (A) A   8 (A) B    9 (A) A   22 (A) B     -0.0104
     8 (A) A             13 (A) A                -0.0098
     7 (A) A   8 (A) A   11 (A) A   22 (A) A      0.0094
     6 (A) A   8 (A) B   15 (A) A   11 (A) B     -0.0088
     7 (A) A   8 (A) B   22 (A) A   11 (A) B     -0.0086
     6 (A) A   8 (A) B   10 (A) A   11 (A) B      0.0085
     3 (A) A   4 (A) B   11 (A) A    9 (A) B     -0.0083
     3 (A) A   8 (A) B   11 (A) A   18 (A) B     -0.0080
     6 (A) A   8 (A) A   11 (A) A   15 (A) A      0.0078
     7 (A) A   8 (A) A   11 (A) A   13 (A) A      0.0077
     7 (A) A   8 (A) A   13 (A) A   16 (A) A      0.0076
     5 (A) A   8 (A) B   21 (A) A   11 (A) B      0.0071
     8 (A) A             14 (A) A                 0.0070
     4 (A) A   8 (A) B   19 (A) A   11 (A) B      0.0067
     8 (A) A             24 (A) A                 0.0066
     8 (A) A             19 (A) A                 0.0066
     6 (A) A   8 (A) A   11 (A) A   18 (A) A      0.0066
     5 (A) A   8 (A) B    9 (A) A    9 (A) B     -0.0063
     4 (A) A   8 (A) A   11 (A) A   12 (A) A      0.0063
     3 (A) A   6 (A) B   11 (A) A   28 (A) B     -0.0061
     6 (A) A   8 (A) B   18 (A) A   11 (A) B     -0.0061
     6 (A) A             20 (A) A                -0.0058
     7 (A) A   8 (A) B   16 (A) A   13 (A) B     -0.0057
     3 (A) A   8 (A) A   11 (A) A   18 (A) A     -0.0056
     3 (A) A              9 (A) A                 0.0055
     5 (A) A   8 (A) B   10 (A) A   10 (A) B     -0.0055
    -----------------------------------------------------

  Density matrix analysis:
  ------------------------
  NOs
    Occupation of frontier NOs:
       0.9419   1.0260
    Number of electrons: 16.000000
    Number of unpaired electrons: n_u =  2.32078, n_u,nl =  2.04893
    NO participation ratio (PR_NO):  2.909779
  
  
  Mulliken Population Analysis
  Atom      Charge (e)              h+              e-           Del q
  --------------------------------------------------------------------
   1 H       -0.109284        0.048320       -0.212112       -0.163792
   2 C        0.298799        0.495205       -0.107634        0.387572
   3 H       -0.173112        0.043607       -0.260340       -0.216734
   4 C        0.271890        0.502203       -0.116661        0.385542
   5 H       -0.067330        0.043031       -0.163450       -0.120419
   6 H       -0.220963        0.049145       -0.321314       -0.272169
  --------------------------------------------------------------------
  Sum:       -0.000000        1.181511       -1.181511        0.000000
  
  Multipole moment analysis of the density matrix
    Molecular charge:                      -0.000000
    Number of electrons:                   16.000000
      Center of electronic charge [Ang]: [ -1.570406,  -0.088058,   0.001026]
    Total nuclear charge:                  16.000000
      Center of nuclear charge [Ang]:    [ -1.560576,  -0.080602,   0.001978]
    Dipole moment [D]:                     0.950951
      Cartesian components [D]:          [  0.755424,   0.572959,   0.073214]
    RMS size of the density [Ang]:         1.284196
      Cartesian components [Ang]:        [  0.866048,   0.842551,   0.435006]
  
  Exciton analysis of the difference density matrix
    <r_h> [Ang]:                  [ -1.570601,  -0.086948,   0.001415]
    <r_e> [Ang]:                  [ -1.705820,  -0.188123,  -0.011978]
    |<r_e - r_h>| [Ang]:            0.169411
    Hole size [Ang]:                1.403543
      Cartesian components [Ang]: [  0.833044,   0.803462,   0.793990]
    Electron size [Ang]:            2.133754
      Cartesian components [Ang]: [  1.493868,   1.361219,   0.684358]

  Transition density matrix analysis:
  -----------------------------------
  
  CT numbers (Mulliken)
    omega =     0.9289
    <Phe> =    -0.0120
  
  Exciton analysis of the transition density matrix
    Trans. dipole moment [D]:             0.060707
      Cartesian components [D]:         [  0.004362,   0.002315,  -0.060506]
    <r_h> [Ang]:                        [ -1.560233,  -0.084179,   0.002250]
    <r_e> [Ang]:                        [ -1.734895,  -0.207249,  -0.014634]
    |<r_e - r_h>| [Ang]:                  0.214332
    Hole size [Ang]:                      1.236569
      Cartesian components [Ang]:       [  0.674038,   0.644624,   0.811934]
    Electron size [Ang]:                  2.272303
      Cartesian components [Ang]:       [  1.593800,   1.446651,   0.728261]
    RMS electron-hole separation [Ang]:   2.585013
      Cartesian components [Ang]:       [  1.730290,   1.581000,   1.090333]
    Covariance(r_h, r_e) [Ang^2]:         0.028056
    Correlation coefficient:              0.009985
    Center-of-mass size [Ang]:            1.298901
      Cartesian components [Ang]:       [  0.869721,   0.795654,   0.545587]

  Decomposition into state-averaged NTOs
    H- 0 -> L+ 2: -0.6437 ( 82.9%)
    H- 0 -> L+ 4:  0.1514 (  4.6%)
    H- 1 -> L+ 0: -0.1412 (  4.0%)
                   omega =  92.9%
  ----------------------------------------------------------------------------


  Excited state 5 (singlet, A)                                     [converged]
  ----------------------------------------------------------------------------
[...]
    16   -1.317055316536e-03
    17   -2.010422347771e-03
    18    2.223250963575e-03
    19   -3.564161914523e-03
    20    8.512736433936e-03
    21    8.880925879665e-01
    22   -1.356573480546e-03
    23    1.439626775327e-02
    24    8.355975881496e-04
    25    7.256995253997e-02
    26   -5.651176216348e-02
    27   -1.411470132508e+00
    28    9.022594952607e-02
    29   -9.852043294439e-02
    30   -2.195395351627e-03
    31    3.609061790980e-01
    32   -3.982419390342e-01
    33   -9.177346860936e-03
    34    1.619829211264e-02
    35   -1.490336944556e-03
    36   -1.909684897516e-03
    37    8.493012198030e-05
    38   -3.380715535085e-03
    39    1.490310299604e-02
    40    1.012276177481e+00
    41   -4.494797162076e-05
    42   -1.504073203668e-02
    43   -9.278425215602e-04
    44    6.632196552678e-03
    45    8.985474474775e-01
    46    1.349928191993e-02
    47    3.759628539100e-04
    48    6.416146183089e-04
Sym=X
Ene= 0.234983
Spin=Alpha
Occup=0
     1   -2.762105448307e-02
     2   -1.266592167327e+00
     3    1.498383213982e-02
     4    3.816341037937e-03
     5    9.063439872113e-04
     6   -5.661940674661e-03
     7    3.925728161732e-03
     8    6.766841096709e-02
     9    1.541887763524e-01
    10    1.510300487954e-01
    11    1.611789427031e-02
    12    5.461416169742e-01
    13    6.061018004307e-01
    14    6.134446964489e-02
    15   -1.186002565784e-03
    16    8.986826480760e-05
    17   -5.602136799931e-05
    18    1.538306810928e-03
    19    4.104895164221e-04
    20    1.571165362580e-02
    21    1.190728253343e+00
    22    3.292401867730e-03
    23    1.390168212685e-02
    24    9.895659349356e-04
    25    1.190157485831e-02
    26   -7.917303508884e-03
    27   -2.646014737892e-01
    28    1.651938625293e-01
    29    1.467933361042e-01
    30    1.666047207729e-02
    31    5.691751681814e-01
    32    5.334353094598e-01
    33    5.899764062576e-02
    34    4.184131465839e-03
    35   -5.768788328606e-04
    36   -2.385971045413e-04
    37   -3.536824216041e-03
    38   -2.082576189139e-03
    39   -1.929022312433e-02
    40   -1.022134960110e+00
    41    2.359870542824e-03
    42    1.134134203279e-02
    43    8.098435879009e-04
    44    2.289457282538e-02
    45    1.340861964563e+00
    46    1.725104605879e-02
    47    4.367159133902e-03
    48    1.067183359478e-03
Sym=X
Ene= 0.240101
Spin=Alpha
Occup=0
     1    1.277897976789e-02
     2    9.589993699718e-01
     3   -1.525659815652e-02
     4   -9.097098126924e-03
     5   -1.215556108348e-03
     6    8.872818893704e-02
     7   -8.195330729766e-02
     8   -1.672899529995e+00
     9   -4.412962065603e-02
    10    6.345503121365e-02
    11    2.362560239132e-03
    12   -1.523109248646e-01
    13    2.623995101830e-01
    14    1.097038919854e-02
    15    2.346698866774e-02
    16   -2.627330387957e-03
    17   -3.242731664386e-03
    18    2.247051652187e-03
    19   -1.355772055356e-02
    20    1.742688135923e-02
    21    1.274725483784e+00
    22    8.223643305393e-03
    23    2.076952949055e-02
    24    1.685694126518e-03
    25   -8.487931421999e-02
    26    7.671251160508e-02
    27    1.575043903860e+00
    28   -3.805938991765e-02
    29    6.914225287508e-02
    30    2.410380824339e-03
    31   -1.524638957006e-01
    32    2.478590862330e-01
    33    7.514696669576e-03
    34   -2.168343999284e-02
    35    2.497436880302e-03
    36    2.911168042036e-03
    37   -1.575969266576e-03
    38    1.241554670481e-02
    39   -1.658204378823e-02
    40   -1.175099375702e+00
    41    9.079865926240e-03
    42    1.811037037844e-02
    43    1.522359332702e-03
    44   -1.660965714096e-02
    45   -9.356993540363e-01
    46   -1.487485538155e-02
    47   -9.003538993296e-03
    48   -1.230654613119e-03
Sym=X
Ene= 0.301500
Spin=Alpha
Occup=0
     1    1.415173661545e-02
     2   -1.656815648886e+00
     3    2.228917799340e-02
     4   -3.445274858081e-04
     5    1.031959511045e-03
     6   -2.377582063096e-04
     7    9.466464774795e-04
     8   -8.838367639093e-02
     9    1.319659116980e-01
    10    1.387807330686e-01
    11    1.443578028022e-02
    12    1.123838107539e+00
    13    1.199426776898e+00
    14    1.244399913773e-01
    15    1.301363497048e-03
    16    1.301762348256e-03
    17   -2.247637165491e-03
    18    3.290061368379e-02
    19   -5.171630826229e-04
    20   -2.725007510105e-02
    21    1.761958990754e+00
    22   -7.666810153039e-05
    23    2.255417719380e-02
    24    1.324953763003e-03
    25    3.748783043303e-04
    26    4.336493169512e-05
    27   -3.089392811515e-02
    28   -1.342077470482e-01
    29   -1.428463396260e-01
    30   -1.489590922652e-02
    31   -1.126526359648e+00
    32   -1.162993893923e+00
    33   -1.227557226848e-01
    34    2.578369004318e-04
    35    1.462688011458e-03
    36   -1.841111557537e-03
    37    3.075874982108e-02
    38    3.860080794574e-04
    39   -1.671755234510e-02
    40    1.698962499385e+00
    41    6.906242776656e-04
    42   -2.269251001271e-02
    43   -1.281207376685e-03
    44    1.317883792296e-02
    45   -1.674328550109e+00
    46   -2.239533676540e-02
    47    5.576031275444e-04
    48   -1.067323971729e-03
Sym=X
Ene= 0.455063
Spin=Alpha
Occup=0
     1   -1.470262490074e-01
     2   -6.005223596455e-01
     3   -1.559691905337e-02
     4   -8.440998243188e-03
     5   -1.262846433219e-03
     6    6.017647539323e-02
     7    1.462658869918e-02
     8   -3.211745159587e+00
     9    1.085771642323e-01
    10   -1.009169212024e-01
    11   -1.703520443658e-03
    12    2.244322829137e+00
    13   -2.270044588209e+00
    14   -2.443343163724e-02
    15    5.112011101244e-02
    16   -3.704546983017e-03
    17   -4.473801668183e-03
    18   -3.172289019767e-03
    19    1.159508962880e-02
    20   -1.075813746167e-01
    21   -7.853129076487e-01
    22    1.209191070188e-02
    23    1.419281570367e-02
    24    1.385897427910e-03
    25   -6.183057976972e-02
    26   -8.704729095121e-03
    27    3.243746262195e+00
    28    1.179866041898e-01
    29   -1.132920696642e-01
    30   -1.546271715926e-03
    31    2.253671368691e+00
    32   -2.204799561819e+00
    33   -1.818419911999e-02
    34   -4.643802244585e-02
    35    2.857936107112e-03
    36    3.817013008868e-03
    37    2.080986253744e-03
    38   -1.835738869595e-02
    39    8.787830448838e-02
    40    7.187061942074e-01
    41    1.053671146609e-02
    42    1.262860276493e-02
    43    1.253119695756e-03
    44    1.124707382601e-01
    45    6.919768161753e-01
    46   -1.395206067212e-02
    47   -7.753309472530e-03
    48   -1.133910707038e-03
Sym=X
Ene= 0.581117
Spin=Alpha
Occup=0
     1    2.819054672651e-01
     2   -6.309430159885e-02
     3   -1.497790345216e-02
     4    2.729665928270e-02
     5    9.556833474591e-04
     6    1.712080063211e-03
     7   -1.286519812046e-01
     8   -6.341378401940e-01
     9    3.041174801649e-01
    10   -2.831164056040e-01
    11   -1.865924049738e-03
    12   -6.031142284382e-01
    13    6.042746555090e-01
    14    8.415869601467e-03
    15   -9.238510882566e-03
    16    4.916357201383e-03
    17    4.045425699497e-03
    18    2.547565240477e-03
    19    6.780600074224e-02
    20    2.764226418420e-01
    21    4.747390342600e-02
    22   -2.121017174720e-02
    23    1.009610390476e-02
    24   -3.546660433289e-04
    25   -6.013134487537e-03
    26   -1.347855374108e-01
    27   -3.059287914149e-01
    28   -2.912207752573e-01
    29    2.681222666341e-01
    30    1.373089978265e-03
    31    8.501908986694e-01
    32   -7.851545907803e-01
    33   -6.291206211299e-03
    34   -9.207816344332e-03
    35    5.137566943731e-03
    36    3.752167668525e-03
    37    7.698668921204e-03
    38    6.756015459734e-02
    39    2.460204673401e-01
    40    1.105919062310e-01
    41    2.912044294472e-02
    42   -1.807667348758e-02
    43    2.997550534953e-04
    44    2.917374155743e-01
    45    5.343282568063e-02
    46    1.423853527475e-02
    47   -2.828070021923e-02
    48   -1.013446384536e-03
Sym=X
Ene= 0.616305
Spin=Alpha
Occup=0
     1   -4.986129516979e-01
     2    1.916881757078e-01
     3   -5.795122380546e-02
     4    4.134329310076e-02
     5   -2.207975811760e-04
     6    2.085866824539e-03
     7    1.460231774649e-02
     8    5.543829070554e-02
     9   -4.249357143858e-02
    10   -5.550878511461e-02
    11   -5.288030117650e-03
    12    2.156064703732e-01
    13    4.555092528542e-01
    14    3.697493799022e-02
    15   -6.122485105902e-04
    16   -7.156260960596e-03
    17    8.108040131950e-03
    18   -1.410271372882e-01
    19   -1.406901156323e-02
    20    4.974735854057e-01
    21   -4.528104719981e-02
    22    4.013450644021e-02
    23   -5.824127255737e-02
    24   -1.629466646897e-03
    25   -2.033983223530e-03
    26    3.981776317745e-03
    27   -1.161343334728e-01
    28   -3.272238946648e-02
    29   -5.609358248852e-02
    30   -4.726090245963e-03
    31    1.901145460474e-01
    32    4.374694292452e-01
    33    3.489532422433e-02
    34    8.902089537087e-03
    35    6.806972797965e-03
    36   -9.718120435315e-03
    37    1.520936477542e-01
    38    5.574499365542e-03
    39   -5.595071995526e-01
    40    1.748205612282e-01
    41    3.734570614030e-02
    42   -6.160980346899e-02
    43   -1.856069236179e-03
    44    4.897531777011e-01
    45   -2.213169409706e-01
    46   -5.789827606199e-02
    47    4.087979833730e-02
    48   -3.320585467280e-04
Sym=X
Ene= 0.694848
Spin=Alpha
Occup=0
     1    9.953746141282e-04
     2    1.695272327579e-03
     3    7.124427028935e-04
     4    1.255022088309e-03
     5   -1.953251784570e-02
     6    1.006622195312e-04
     7   -1.032435158728e-03
     8    7.362549082223e-04
     9    3.201283878303e-02
    10    4.006066331903e-02
    11   -6.769251382355e-01
    12   -3.182414206878e-02
    13   -3.353112624721e-02
    14    6.169308087843e-01
    15   -1.320480532129e-03
    16    7.987923179984e-02
    17   -8.030003716550e-02
    18   -8.586813858698e-03
    19   -4.995686752592e-04
    20    1.087833315138e-03
    21    2.030876663342e-03
    22    1.261023187713e-03
    23    1.955821845834e-03
    24   -2.905579207404e-02
    25   -8.096406308366e-05
    26    2.477807221437e-04
    27   -5.732360097196e-04
    28    3.243218671321e-02
    29    4.006461171912e-02
    30   -6.767140939590e-01
    31   -3.227671721020e-02
    32   -3.348996401291e-02
    33    6.125040919166e-01
    34    1.343374012831e-03
    35   -8.024999943668e-02
    36    7.957821551509e-02
    37    8.524479339353e-03
    38    4.816061901405e-04
    39   -1.267357767367e-03
    40   -1.449555391982e-03
    41    9.265785677311e-04
    42    1.348753997728e-03
    43   -2.228508902702e-02
    44   -1.237452758561e-03
    45   -1.265114128238e-03
    46    1.035244272958e-03
    47    1.482426167162e-03
    48   -2.207279881459e-02
Sym=X
Ene= 0.711659
Spin=Alpha
Occup=0
     1   -4.481620897217e-01
     2    1.991356923643e-01
     3   -7.764021521055e-02
     4   -4.678688460514e-02
     5   -6.573683786674e-03
     6   -4.729187929616e-02
     7   -3.390535011829e-01
     8    5.666726948893e-01
     9    2.385758222562e-01
    10   -2.003442260628e-01
    11   -5.918048830556e-05
    12   -2.038190276303e-01
    13    1.209641288105e-01
    14   -5.631018169936e-03
    15    1.886550058580e-01
    16   -1.998008220549e-02
    17   -2.336684146184e-02
    18    5.321586865387e-03
    19   -7.688418105302e-02
    20   -4.343696373178e-01
    21    8.585502144738e-02
    22    3.827986399950e-02
    23    8.345908705745e-02
    24    6.647343409881e-03
    25   -4.837737071292e-02
    26   -3.167542119692e-01
    27    3.637668018171e-01
    28   -2.091533468428e-01
    29    2.153550255589e-01
    30    2.796471923572e-03
    31    2.817768895470e-02
    32   -8.331166770107e-02
    33   -1.517607670404e-03
    34    2.034536564740e-01
    35   -2.106073214883e-02
    36   -2.422621737001e-02
    37    2.617422542991e-03
    38   -6.799476405328e-02
    39   -4.574010156080e-01
    40    1.656575924476e-01
    41   -4.133390372465e-02
    42   -8.842030257429e-02
    43   -7.062887989436e-03
    44   -4.925052206189e-01
    45    1.365837843385e-01
    46    8.506106230994e-02
    47    4.166863674882e-02
    48    6.690273003686e-03
Sym=X
Ene= 0.777644
Spin=Alpha
Occup=0
     1   -5.634594091512e-01
     2    5.253318347868e-01
     3   -1.203290924885e-01
     4   -2.497040343265e-02
     5   -7.187596832433e-03
     6   -9.253721103349e-02
     7    1.878540175692e-01
     8    5.328527242400e-01
     9   -9.486356127688e-02
    10    1.654821458316e-01
    11    5.599691740447e-03
    12   -2.886988778193e-01
    13    1.157596042812e-01
    14   -9.474032674816e-03
    15    2.137207702053e-01
    16   -1.822681103439e-02
    17   -2.169321011609e-02
    18   -1.317014976834e-02
    19   -5.093225385339e-03
    20   -4.914036940561e-01
    21    2.968818768254e-01
    22    1.656712043687e-02
    23    1.025613756350e-01
    24    6.803712800829e-03
    25    8.917803837410e-02
    26   -2.338372384600e-01
    27   -5.032241513653e-01
    28   -1.465822425438e-01
    29    1.510293098916e-01
    30   -1.083564113970e-04
    31   -1.558006020441e-01
    32    1.825884224507e-01
    33    5.711251526222e-03
    34   -1.987088397001e-01
    35    1.676958010862e-02
    36    1.983107908448e-02
    37    9.657873440316e-03
    38   -3.670889104531e-03
    39    5.099744596190e-01
    40   -4.041884121446e-01
    41    1.705815996635e-02
    42    9.956162154458e-02
    43    6.645087716783e-03
    44    5.328406130601e-01
    45   -4.170728235676e-01
    46   -1.065899021216e-01
    47   -2.217935969376e-02
    48   -6.475063118756e-03
Sym=X
Ene= 0.805038
Spin=Alpha
Occup=0
     1   -6.911456069821e-04
     2    1.205899512329e-03
     3    1.034185054600e-03
     4    2.092992177205e-03
     5   -3.376128777812e-02
     6   -8.975571788388e-05
     7   -7.751802250361e-04
     8    1.391968144237e-04
     9    3.604907525872e-02
    10    4.525198656127e-02
    11   -7.607586434204e-01
    12   -5.372081313026e-02
    13   -6.558352814127e-02
    14    1.113628805292e+00
    15    1.386100677937e-03
    16   -5.695590844576e-02
    17    5.591996860139e-02
    18    6.042628318697e-03
    19    5.972335060539e-04
    20   -6.302220922458e-04
    21    8.994333000216e-04
    22    1.770309683090e-03
    23    2.881706635738e-03
    24   -3.982703762865e-02
    25    1.780099546959e-04
    26   -1.378861474988e-03
    27    9.448942758362e-04
    28   -3.750452463435e-02
    29   -4.444704381531e-02
    30    7.635535430620e-01
    31    5.436880620458e-02
    32    6.526086218110e-02
    33   -1.113230065023e+00
    34    5.678003982930e-04
    35   -5.629198439247e-02
    36    5.613559318320e-02
    37    5.965858813779e-03
    38    3.038357647272e-04
    39    6.858391687763e-04
    40   -6.467403325091e-04
    41   -1.513915547739e-03
    42   -1.857540379294e-03
    43    3.195671508548e-02
    44    6.633112843077e-04
    45   -2.134679963782e-04
    46   -1.623563646003e-03
    47   -2.026890638935e-03
    48    3.435923068900e-02
Sym=X
Ene= 0.868295
Spin=Alpha
Occup=0
     1   -4.160479647334e-03
     2   -1.096722925120e+00
     3    1.404652478926e-01
     4    6.594130121778e-02
     5    1.024205125527e-02
     6   -7.567005913468e-03
     7   -3.522908067050e-02
     8   -1.417390413600e-02
     9   -4.211511698029e-01
    10   -3.681324092055e-01
    11   -4.159279481940e-02
    12    9.745790336203e-01
    13    8.785352346109e-01
    14    9.778988249690e-02
    15    2.427561526876e-02
    16    1.031310481053e-02
    17   -1.529228922060e-02
    18    2.327605285510e-01
    19    2.592498841872e-02
    20   -3.032679028621e-02
    21    1.042599523443e+00
    22    4.979280438800e-02
    23    1.480184188939e-01
    24    1.139030574200e-02
    25    3.726948891485e-03
    26   -4.435133830457e-02
    27    8.583114476219e-02
    28   -4.615533580862e-01
    29   -4.174474087482e-01
    30   -4.691928863217e-02
    31    1.062666077271e+00
    32    9.741352555552e-01
    33    1.089570886677e-01
    34   -7.427407719269e-03
    35   -1.248371189079e-02
    36    1.444656012525e-02
    37   -2.480935728613e-01
    38   -2.543238694488e-02
    39    3.670589514038e-02
    40   -1.120300890267e+00
    41    4.567871958750e-02
    42    1.630351370810e-01
    43    1.206458616331e-02
    44   -1.911048721804e-02
    45    1.152540777825e+00
    46    1.570070939637e-01
    47    5.800981821393e-02
    48    1.074498179296e-02
Sym=X
Ene= 0.933945
Spin=Alpha
Occup=0
     1   -1.157509493370e-01
     2    1.500464119689e+00
     3   -2.025338745083e-01
     4   -2.652048397355e-02
     5   -1.119465333964e-02
     6    8.949594207909e-03
     7    1.281539112027e-01
     8    1.600225096881e-02
     9    5.820100842160e-01
    10    3.847648878836e-01
    11    5.029335369892e-02
    12   -1.777469112419e+00
    13   -1.239136228973e+00
    14   -1.575774872505e-01
    15   -2.357897068601e-02
    16   -8.362800380733e-03
    17    5.856006453879e-03
    18   -1.237662292684e-01
    19   -7.818798076972e-02
    20    9.657478327450e-02
    21   -1.101249616188e+00
    22    3.134755519114e-02
    23   -1.583857761583e-01
    24   -7.615212122054e-03
    25   -4.691858414312e-03
    26    5.973209783504e-02
    27   -2.772257271546e-01
    28   -3.673540598760e-01
    29   -5.519858074117e-01
    30   -5.027483675163e-02
    31    1.139703975948e+00
    32    1.718861598232e+00
    33    1.560081750546e-01
    34    1.326695749109e-02
    35   -4.529924654557e-03
    36    6.853003110795e-03
    37   -1.106208758569e-01
    38    3.964162641380e-02
    39    1.133128907884e-01
    40   -1.345266669288e+00
    41   -1.646400153818e-03
    42    1.754665796162e-01
    43    1.003675206437e-02
    44   -1.072284071894e-01
    45    1.115581709428e+00
    46    1.682251584186e-01
    47   -1.870326993130e-02
    48    7.261622292185e-03
Sym=X
Ene= 0.960425
Spin=Alpha
Occup=0
     1    8.245276161536e-02
     2   -5.235848372663e-01
     3    3.771621050571e-02
     4    9.267005093075e-02
     5    6.832708090718e-03
     6   -1.347791613583e-02
     7   -1.533888135038e-01
     8   -7.419100537612e-01
     9   -3.444562860203e-01
    10    5.512065882830e-01
    11    1.679316383368e-02
    12    1.090675647131e+00
    13   -1.839443899419e+00
    14   -5.754803627290e-02
    15    3.207589055903e-02
    16    1.130139153881e-02
    17    1.448883082481e-02
    18   -5.436145620159e-02
    19    2.912149448032e-01
    20    1.075721215191e-01
    21   -1.261924665538e+00
    22   -8.890974270887e-02
    23   -1.391496895500e-01
    24   -1.276136254231e-02
    25    1.532941559542e-02
    26    2.448678282604e-01
    27    6.003113236815e-01
    28   -5.408300470974e-01
    29    3.831990463836e-01
    30   -3.563376413123e-03
    31    1.788611668378e+00
    32   -1.208691485795e+00
    33    1.569050076158e-02
    34   -3.466992935670e-02
    35   -1.422318576894e-02
    36   -1.177702478191e-02
    37    3.487475603828e-03
    38   -2.982150594017e-01
    39   -1.086682420646e-01
    40    7.526021657376e-01
    41   -9.478852599881e-02
    42   -7.814688591601e-02
    43   -9.485979627633e-03
    44   -1.052953614958e-01
    45    1.143388309189e+00
    46    1.226658970624e-01
    47    9.662883628807e-02
    48    1.147978269430e-02
[5D]

======= END OF MOLDEN-FORMATTED INPUT FILE =======


        *************************************************************
        *                                                           *
        *  Thank you very much for using Q-Chem.  Have a nice day.  *
        *                                                           *
        *************************************************************


