                  Welcome to Q-Chem
     A Quantum Leap Into The Future Of Chemistry


 Q-Chem 5.4 (devel), Q-Chem, Inc., Pleasanton, CA (2021)

 E. Epifanovsky,  A. T. B. Gilbert,  Xintian Feng,  Joonho Lee,  Yuezhi Mao,  
 N. Mardirossian,  P. Pokhilko,  A. White,  M. Wormit,  M. P. Coons,  
 A. L. Dempwolff,  Zhengting Gan,  D. Hait,  P. R. Horn,  L. D. Jacobson,  
 I. Kaliman,  J. Kussmann,  A. W. Lange,  Ka Un Lao,  D. S. Levine,  Jie Liu,  
 S. C. McKenzie,  A. F. Morrison,  K. Nanda,  F. Plasser,  D. R. Rehn,  
 M. L. Vidal,  Zhi-Qiang You,  Ying Zhu,  B. Alam,  B. Albrecht,  
 A. Aldossary,  E. Alguire,  J. H. Andersen,  D. Barton,  K. Begam,  A. Behn,  
 Y. A. Bernard,  E. J. Berquist,  H. Burton,  A. Carreras,  K. Carter-Fenk,  
 R. Chakraborty,  A. D. Chien,  K. D. Closser,  V. Cofer-Shabica,  
 S. Dasgupta,  Jia Deng,  M. de Wergifosse,  M. Diedenhofen,  Hainam Do,  
 S. Ehlert,  Po-Tung Fang,  S. Fatehi,  Qingguo Feng,  T. Friedhoff,  
 J. Gayvert,  Qinghui Ge,  G. Gidofalvi,  M. Goldey,  J. Gomes,  
 C. Gonzalez-Espinoza,  S. Gulania,  A. Gunina,  M. W. D. Hanson-Heine,  
 P. H. P. Harbach,  A. W. Hauser,  M. F. Herbst,  M. Hernandez Vera,  
 M. Hodecker,  Z. C. Holden,  S. Houck,  Xunkun Huang,  Kerwin Hui,  
 B. C. Huynh,  M. Ivanov,  Hyunjun Ji,  Hanjie Jiang,  B. Kaduk,  S. Kaehler,  
 K. Khistyaev,  Jaehoon Kim,  P. Klunzinger,  Z. Koczor-Benda,  
 Joong Hoon Koh,  D. Kosenkov,  L. Koulias,  T. Kowalczyk,  C. M. Krauter,  
 K. Kue,  A. Kunitsa,  T. Kus,  A. Landau,  K. V. Lawler,  D. Lefrancois,  
 S. Lehtola,  Rain Li,  Yi-Pei Li,  Jiashu Liang,  M. Liebenthal,  
 Hung-Hsuan Lin,  You-Sheng Lin,  Fenglai Liu,  Kuan-Yu Liu,  
 M. Loipersberger,  A. Luenser,  A. Manjanath,  P. Manohar,  E. Mansoor,  
 S. F. Manzer,  Shan-Ping Mao,  A. V. Marenich,  T. Markovich,  S. Mason,  
 S. A. Maurer,  P. F. McLaughlin,  M. F. S. J. Menger,  J.-M. Mewes,  
 S. A. Mewes,  P. Morgante,  J. W. Mullinax,  K. J. Oosterbaan,  G. Paran,  
 Alexander C. Paul,  Suranjan K. Paul,  F. Pavosevic,  Zheng Pei,  S. Prager,  
 E. I. Proynov,  E. Ramos,  B. Rana,  A. E. Rask,  A. Rettig,  R. M. Richard,  
 F. Rob,  E. Rossomme,  T. Scheele,  M. Scheurer,  M. Schneider,  
 N. Sergueev,  S. M. Sharada,  W. Skomorowski,  D. W. Small,  C. J. Stein,  
 Yu-Chuan Su,  E. J. Sundstrom,  Zhen Tao,  J. Thirman,  T. Tsuchimochi,  
 N. M. Tubman,  S. P. Veccham,  O. Vydrov,  J. Wenzel,  J. Witte,  A. Yamada,  
 Kun Yao,  S. Yeganeh,  S. R. Yost,  A. Zech,  Igor Ying Zhang,  Xing Zhang,  
 Yu Zhang,  D. Zuev,  A. Aspuru-Guzik,  A. T. Bell,  N. A. Besley,  
 K. B. Bravaya,  B. R. Brooks,  D. Casanova,  Jeng-Da Chai,  S. Coriani,  
 C. J. Cramer,  A. E. DePrince, III,  R. A. DiStasio Jr.,  A. Dreuw,  
 B. D. Dunietz,  T. R. Furlani,  W. A. Goddard III,  S. Grimme,  
 S. Hammes-Schiffer,  T. Head-Gordon,  W. J. Hehre,  Chao-Ping Hsu,  
 T.-C. Jagau,  Yousung Jung,  A. Klamt,  Jing Kong,  D. S. Lambrecht,  
 WanZhen Liang,  N. J. Mayhall,  C. W. McCurdy,  J. B. Neaton,  
 C. Ochsenfeld,  J. A. Parkhill,  R. Peverati,  V. A. Rassolov,  Yihan Shao,  
 L. V. Slipchenko,  T. Stauch,  R. P. Steele,  J. E. Subotnik,  
 A. J. W. Thom,  A. Tkatchenko,  D. G. Truhlar,  T. Van Voorhis,  
 T. A. Wesolowski,  K. B. Whaley,  H. L. Woodcock III,  P. M. Zimmerman,  
 S. Faraji,  P. M. W. Gill,  M. Head-Gordon,  J. M. Herbert,  A. I. Krylov

 Additional authors for Version 5.4.1: 
 S. Kotaru,  Shaozhi Li,  Xiangyuan Li,  F. Matz,  A. Molle,  Haisheng Ren,  
 Yingli Su,  Hung-Yi Tsai,  C. Utku,  Fang Wang

 Contributors to earlier versions of Q-Chem not listed above: 
 R. D. Adamson,  B. Austin,  R. Baer,  J. Baker,  G. J. O. Beran,  
 K. Brandhorst,  S. T. Brown,  E. F. C. Byrd,  A. K. Chakraborty,  
 G. K. L. Chan,  Chun-Min Chang,  Yunqing Chen,  C.-L. Cheng,  
 Siu Hung Chien,  D. M. Chipman,  D. L. Crittenden,  H. Dachsel,  
 R. J. Doerksen,  A. D. Dutoi,  R. G. Edgar,  J. Fosso-Tande,  
 L. Fusti-Molnar,  D. Ghosh,  A. Ghysels,  A. Golubeva-Zadorozhnaya,  
 J. Gonthier,  M. S. Gordon,  S. R. Gwaltney,  G. Hawkins,  J. E. Herr,  
 A. Heyden,  S. Hirata,  E. G. Hohenstein,  G. Kedziora,  F. J. Keil,  
 C. Kelley,  Jihan Kim,  R. A. King,  R. Z. Khaliullin,  P. P. Korambath,  
 W. Kurlancheek,  A. Laurent,  A. M. Lee,  M. S. Lee,  S. V. Levchenko,  
 Ching Yeh Lin,  D. Liotard,  E. Livshits,  R. C. Lochan,  I. Lotan,  
 L. A. Martinez-Martinez,  P. E. Maslen,  N. Nair,  D. P. O'Neill,  
 D. Neuhauser,  E. Neuscamman,  C. M. Oana,  R. Olivares-Amaya,  R. Olson,  
 T. M. Perrine,  B. Peters,  P. A. Pieniazek,  A. Prociuk,  Y. M. Rhee,  
 J. Ritchie,  M. A. Rohrdanz,  E. Rosta,  N. J. Russ,  H. F. Schaefer III,  
 M. W. Schmidt,  N. E. Schultz,  S. Sharma,  N. Shenvi,  C. D. Sherrill,  
 A. C. Simmonett,  A. Sodt,  T. Stein,  D. Stuck,  K. S. Thanthiriwatte,  
 V. Vanovschi,  L. Vogt,  Tao Wang,  A. Warshel,  M. A. Watson,  
 C. F. Williams,  Q. Wu,  X. Xu,  Jun Yang,  W. Zhang,  Yan Zhao

 Please cite Q-Chem as follows:
 Y. Shao et al., Mol. Phys. 113, 184-215 (2015)
 DOI: 10.1080/00268976.2014.952696

 Q-Chem 5.4.1 for Intel X86 EM64T Linux

 Parts of Q-Chem use Armadillo 9.800.1 (Horizon Scraper).
 http://arma.sourceforge.net/

 Q-Chem begins on Thu Nov 17 15:39:40 2022  

 Host: cpu186.baobab
0

     Scratch files written to /scratch/fum/qchem59318//
 Processing $rem in /home/share/wesolowski/qc5.aug2021.FDE/config/preferences:
 Processing $rem in /home/fum/.qchemrc:

 Checking the input file for inconsistencies... 	...done.

--------------------------------------------------------------
User input:
--------------------------------------------------------------
$comment
generated from CCJob.Templates
$end

$rem
sym_ignore = true
method = adc(2)
ee_states = 10
basis = cc-pVDZ
mem_static = 1024
mem_total = 40000
adc_davidson_maxiter = 900
adc_davidson_conv = 6
adc_print = 3
adc_prop_es = true
adc_prop_es2es = true
adc_prop_tpa = true
molden_format = True
state_analysis = true
print_orbitals = 15
gen_scfman = false
fde_export_density = true
fde_details = 3
$end

$molecule
0 1
H -0.0348278765 -0.2442097827 0.0636489606
C -1.0765972949 -0.5242748755 -0.0023551776
H -1.313264467 -1.5767591607 -0.0757276926
C -2.043634118 0.3926884087 0.0061254933
H -1.8037616575 1.4459188338 0.0804456828
H -3.085977293 0.114931858 -0.0593381042                     
$end
--------------------------------------------------------------
 ----------------------------------------------------------------
             Standard Nuclear Orientation (Angstroms)
    I     Atom           X                Y                Z
 ----------------------------------------------------------------
    1      H      -0.0348278765    -0.2442097827     0.0636489606
    2      C      -1.0765972949    -0.5242748755    -0.0023551776
    3      H      -1.3132644670    -1.5767591607    -0.0757276926
    4      C      -2.0436341180     0.3926884087     0.0061254933
    5      H      -1.8037616575     1.4459188338     0.0804456828
    6      H      -3.0859772930     0.1149318580    -0.0593381042
 ----------------------------------------------------------------
 Nuclear Repulsion Energy =          33.41991783 hartrees
 There are        8 alpha and        8 beta electrons
 Requested basis set is cc-pVDZ
 There are 24 shells and 48 basis functions
 Total memory of 40000 MB is distributed as follows: 
   MEM_STATIC is set to 1024 MB
   QALLOC/CCMAN JOB total memory use is  38976 MB
 Warning: actual memory use might exceed 40000 MB

 Total QAlloc Memory Limit  40000 MB
 Mega-Array Size      1001 MB
 MEM_STATIC part      1024 MB

                       Distance Matrix (Angstroms)
             H (  1)   C (  2)   H (  3)   C (  4)   H (  5)
   C (  2)  1.080776
   H (  3)  1.851895  1.081258
   C (  4)  2.108139  1.332687  2.102109
   H (  5)  2.446619  2.101734  3.066196  1.082754
   H (  6)  3.074674  2.109370  2.450428  1.080700  1.853414

 A cutoff of  1.0D-11 yielded    300 shell pairs
 There are      1220 function pairs (      1329 Cartesian)
 Smallest overlap matrix eigenvalue = 4.80E-03

 Scale SEOQF with 1.000000e-01/1.000000e-01/1.000000e+00

 Standard Electronic Orientation quadrupole field applied
 Nucleus-field energy     =     0.0000000022 hartrees
 Guess from superposition of atomic densities
 Warning:  Energy on first SCF cycle will be non-variational
 SAD guess density has 16.000000 electrons
 A restricted Hartree-Fock SCF calculation will be
 performed using Pulay DIIS extrapolation
 SCF converges when DIIS error is below 1.0E-08
 using 10 threads for integral computing
 -------------------------------------------------------
 OpenMP Integral computing Module                
 Release: version 1.0, May 2013, Q-Chem Inc. Pittsburgh 
 -------------------------------------------------------
 ---------------------------------------
  Cycle       Energy         DIIS Error
 ---------------------------------------
    1     -78.4376281675      1.01E-01
    2     -78.0176672121      7.21E-03
    3     -78.0382975284      1.84E-03
    4     -78.0397806262      5.73E-04
    5     -78.0399024467      5.78E-05
    6     -78.0399043193      9.24E-06
    7     -78.0399043796      2.07E-06
    8     -78.0399043823      6.47E-07
    9     -78.0399043825      1.03E-07
   10     -78.0399043825      1.20E-08
   11     -78.0399043825      3.30E-09 Convergence criterion met
 ---------------------------------------
 SCF time:  CPU 2.30 s  wall 2.80 s
 SCF   energy in the final basis set = -78.03990438
 Total energy in the final basis set = -78.03990438
Exporting Density Matrix to file 'Densmat_SCF.txt'.
Export successful
================================================================================
|                                                                              |
|                                 A D C  M A N                                 |
|                                                                              |
 ------------------------------------------------------------------------------ 
|                                                                              |
| Components:                                                                  |
|                                                                              |
| - libvmm - 1.3-trunk                                                         |
|   Authors:                                                                   |
|   Evgeny Epifanovsky, Ilya Kaliman                                           |
|                                                                              |
| - libtensor - 2.5-trunk                                                      |
|   Authors:                                                                   |
|   Evgeny Epifanovsky, Michael Wormit, Dmitry Zuev, Sam Manzer,               |
|   Ilya Kaliman                                                               |
|                                                                              |
| - libwfa - 1.1-trunk                                                         |
|   Authors:                                                                   |
|   Felix Plasser, Stefanie Mewes (Baeppler), Benjamin Thomitzni,              |
|   Michael Wormit, Feng Chen, Anna I. Krylov, Pavel Pokhilko                  |
|                                                                              |
| - libadc - 1.1-trunk                                                         |
|   Authors:                                                                   |
|   Michael Wormit, Adrian L. Dempwolff, Philipp H. P. Harbach,                |
|   Caroline Krauter, Dirk Rehn, Matthias Schneider, Jan Wenzel                |
|                                                                              |
| - adcman - 2.6-trunk                                                         |
|   Authors:                                                                   |
|   Michael Wormit, Adrian L. Dempwolff, Philipp H. P. Harbach,                |
|   Caroline Krauter, Daniel Lefrancois, Jan-Michael Mewes, Dirk Rehn,         |
|   Matthias Schneider, Jan Wenzel, Andreas Dreuw                              |
|                                                                              |
| Authors of earlier versions of ADCMAN:                                       |
| Andreas Dreuw, Jan Hendrik Starcke, Dirk Rehn, Michael Wormit                |
|                                                                              |
================================================================================

 Created directory /scratch/fum/qchem59318/plots
  Import QC data ...  CPU 0.00 s  wall 0.00 s

 Alpha MOs, Restricted
 -- Occupied --                  
-11.235 -11.233  -1.032  -0.789  -0.641  -0.581  -0.505  -0.374
  1 A     2 A     3 A     4 A     5 A     6 A     7 A     8 A                  
 -- Virtual --                   
  0.168   0.204   0.233   0.240   0.303   0.461   0.577   0.616
  9 A    10 A    11 A    12 A    13 A    14 A    15 A    16 A                  
  0.689   0.708   0.784   0.808   0.862   0.936   0.972   1.009
 17 A    18 A    19 A    20 A    21 A    22 A    23 A    24 A                  
  1.130   1.235   1.257   1.266   1.293   1.601   1.723   1.748
 25 A    26 A    27 A    28 A    29 A    30 A    31 A    32 A                  
  1.820   1.862   1.866   1.923   1.976   1.978   2.219   2.258
 33 A    34 A    35 A    36 A    37 A    38 A    39 A    40 A                  
  2.377   2.454   2.503   2.629   2.721   2.820   3.142   3.396
 41 A    42 A    43 A    44 A    45 A    46 A    47 A    48 A                  

 Beta MOs, Restricted
 -- Occupied --                  
-11.235 -11.233  -1.032  -0.789  -0.641  -0.581  -0.505  -0.374
  1 A     2 A     3 A     4 A     5 A     6 A     7 A     8 A                  
 -- Virtual --                   
  0.168   0.204   0.233   0.240   0.303   0.461   0.577   0.616
  9 A    10 A    11 A    12 A    13 A    14 A    15 A    16 A                  
  0.689   0.708   0.784   0.808   0.862   0.936   0.972   1.009
 17 A    18 A    19 A    20 A    21 A    22 A    23 A    24 A                  
  1.130   1.235   1.257   1.266   1.293   1.601   1.723   1.748
 25 A    26 A    27 A    28 A    29 A    30 A    31 A    32 A                  
  1.820   1.862   1.866   1.923   1.976   1.978   2.219   2.258
 33 A    34 A    35 A    36 A    37 A    38 A    39 A    40 A                  
  2.377   2.454   2.503   2.629   2.721   2.820   3.142   3.396
 41 A    42 A    43 A    44 A    45 A    46 A    47 A    48 A                  
  Import AO data ...  CPU 0.00 s  wall 0.00 s
  Using point group: C1
  Irreducible representations in point group: A
  Molecular orbitals: 
  Occupied MOs:
  Block   0:   1 (  A) A   2 (  A) A   3 (  A) A   4 (  A) A   5 (  A) A
                  -11.24      -11.23      -1.032     -0.7892     -0.6415
               6 (  A) A   7 (  A) A   8 (  A) A
                 -0.5812     -0.5047      -0.374
  Block   1:   1 (  A) B   2 (  A) B   3 (  A) B   4 (  A) B   5 (  A) B
                  -11.24      -11.23      -1.032     -0.7892     -0.6415
               6 (  A) B   7 (  A) B   8 (  A) B
                 -0.5812     -0.5047      -0.374
  Virtual MOs:
  Block   0:   9 (  A) A  10 (  A) A  11 (  A) A  12 (  A) A  13 (  A) A
                  0.1685      0.2035      0.2328      0.2396      0.3032
              14 (  A) A  15 (  A) A  16 (  A) A  17 (  A) A  18 (  A) A
                  0.4615       0.577      0.6162      0.6892      0.7082
              19 (  A) A  20 (  A) A  21 (  A) A  22 (  A) A
                  0.7845       0.808      0.8622      0.9358
  Block   1:  23 (  A) A  24 (  A) A  25 (  A) A  26 (  A) A  27 (  A) A
                  0.9721       1.009        1.13       1.235       1.257
              28 (  A) A  29 (  A) A  30 (  A) A  31 (  A) A  32 (  A) A
                   1.266       1.293       1.601       1.723       1.748
              33 (  A) A  34 (  A) A  35 (  A) A  36 (  A) A
                    1.82       1.862       1.866       1.923
  Block   2:  37 (  A) A  38 (  A) A  39 (  A) A  40 (  A) A  41 (  A) A
                   1.976       1.978       2.219       2.258       2.377
              42 (  A) A  43 (  A) A  44 (  A) A  45 (  A) A  46 (  A) A
                   2.454       2.503       2.629       2.721        2.82
              47 (  A) A  48 (  A) A
                   3.142       3.396
  Block   3:   9 (  A) B  10 (  A) B  11 (  A) B  12 (  A) B  13 (  A) B
                  0.1685      0.2035      0.2328      0.2396      0.3032
              14 (  A) B  15 (  A) B  16 (  A) B  17 (  A) B  18 (  A) B
                  0.4615       0.577      0.6162      0.6892      0.7082
              19 (  A) B  20 (  A) B  21 (  A) B  22 (  A) B
                  0.7845       0.808      0.8622      0.9358
  Block   4:  23 (  A) B  24 (  A) B  25 (  A) B  26 (  A) B  27 (  A) B
                  0.9721       1.009        1.13       1.235       1.257
              28 (  A) B  29 (  A) B  30 (  A) B  31 (  A) B  32 (  A) B
                   1.266       1.293       1.601       1.723       1.748
              33 (  A) B  34 (  A) B  35 (  A) B  36 (  A) B
                    1.82       1.862       1.866       1.923
  Block   5:  37 (  A) B  38 (  A) B  39 (  A) B  40 (  A) B  41 (  A) B
                   1.976       1.978       2.219       2.258       2.377
              42 (  A) B  43 (  A) B  44 (  A) B  45 (  A) B  46 (  A) B
                   2.454       2.503       2.629       2.721        2.82
              47 (  A) B  48 (  A) B
                   3.142       3.396
  Import MO data ...  CPU 0.05 s  wall 0.01 s
  Import HF data ...  CPU 0.15 s  wall 0.06 s
  Import 2e integrals ...  CPU 0.90 s  wall 0.16 s

--------------------------------------------------------------------------------
                                   HF Summary                                   
--------------------------------------------------------------------------------
  Energy:                                                  -78.0399043825 a.u.
  Dip. moment [a.u.]:                  [   0.000046,   -0.000302,    0.000310]
  Total dipole [Debye]:                                               0.001106
  <r^2> [a.u.]:                        [ 175.191399,   34.928253,   11.628365]
  Total <r^2> [a.u.]:                                               221.748018
--------------------------------------------------------------------------------
  HF properties ...  CPU 0.02 s  wall 0.01 s
  MP(1) calculation ...  CPU 0.01 s  wall 0.01 s
  N^6 prerequesite intermediates ...  CPU 0.55 s  wall 0.08 s
  Difference density matrix of state mp2_gs printed to ASCII file 'State_mp2_gs_Difference.txt'
Exporting MP density matrix to file 'Densmat_MP.txt'.
Export successful
  Total density matrix of state mp2_gs printed to ASCII file 'State_mp2_gs_Total.txt'
Exporting MP density matrix to file 'Densmat_MP.txt'.
Export successful

--------------------------------------------------------------------------------
                                 MP(2) Summary                                  
--------------------------------------------------------------------------------
  MP energy contribution:                                   -0.2797431557 a.u.
  Total energy:                                            -78.3196475382 a.u.
  Dip. moment [a.u.]:                  [   0.000108,   -0.000220,    0.000314]
  Total dipole [Debye]:                                               0.001011
  <r^2> [a.u.]:                        [ 175.238818,   34.968312,   11.460032]
  Total <r^2> [a.u.]:                                               221.667162

  Density matrix analysis:
  ------------------------
  NOs
    Occupation of frontier NOs:
       0.0453   1.9383
    Number of electrons: 16.000000
    Number of unpaired electrons: n_u =  0.40357, n_u,nl =  0.04510
    NO participation ratio (PR_NO): 13.859551
  
  
  Mulliken Population Analysis
  Atom      Charge (e)              h+              e-           Del q
  --------------------------------------------------------------------
   1 H        0.050845        0.014037       -0.011202        0.002836
   2 C       -0.101001        0.093119       -0.098876       -0.005757
   3 H        0.050344        0.014089       -0.011191        0.002898
   4 C       -0.101803        0.093247       -0.098915       -0.005668
   5 H        0.050657        0.014070       -0.011195        0.002875
   6 H        0.050958        0.014024       -0.011208        0.002815
  --------------------------------------------------------------------
  Sum:        0.000000        0.242586       -0.242586        0.000000
  
  Multipole moment analysis of the density matrix
    Molecular charge:                      0.000000
    Number of electrons:                   16.000000
      Center of electronic charge [Ang]: [ -1.559955,  -0.065595,   0.001968]
    Total nuclear charge:                  16.000000
      Center of nuclear charge [Ang]:    [ -1.559951,  -0.065602,   0.001978]
    Dipole moment [D]:                     0.001011
      Cartesian components [D]:          [  0.000275,  -0.000559,   0.000797]
    RMS size of the density [Ang]:         1.200752
      Cartesian components [Ang]:        [  0.795948,   0.779554,   0.447847]
  
  Exciton analysis of the difference density matrix
    <r_h> [Ang]:                  [ -1.559979,  -0.065308,   0.001932]
    <r_e> [Ang]:                  [ -1.560114,  -0.065487,   0.001924]
    |<r_e - r_h>| [Ang]:            0.000224
    Hole size [Ang]:                1.393725
      Cartesian components [Ang]: [  0.846273,   0.834530,   0.727909]
    Electron size [Ang]:            1.359666
      Cartesian components [Ang]: [  0.877779,   0.861777,   0.579255]
--------------------------------------------------------------------------------
  MP(2) calculation ...  CPU 0.37 s  wall 0.18 s
  Start ADC(2)-s ...  CPU 0.01 s  wall 0.01 s
  ADC(2) intermediates ...  CPU 0.03 s  wall 0.01 s
  Starting Davidson for singlet states of irrep A ... 
--------------------------------------------------------------------------------
   It NVec Conv  Avg. Norm  Max. Norm  Conv. states           Remark
--------------------------------------------------------------------------------
        10    0  1.330e-01  4.684e-01  0.4116 n n n n n n n n Guess.
    1   20    0  2.310e-02  1.106e-01  0.3263 n n n n n n n n 
    2   30    0  5.933e-03  2.743e-02  0.3215 n n n n n n n n 
    3   40    0  2.134e-03  1.558e-02  0.3211 n n n n n n n n 
    4   50    0  6.420e-04  4.932e-03  0.3211 n n n n n n n n 
    5   20    0  2.796e-04  2.104e-03  0.3211 n n n n n n n n Subspace collapsed.
    6   30    0  2.110e-04  1.957e-03  0.3211 n n n n n n n n 
    7   40    0  1.218e-04  1.052e-03  0.3211 n n n n n n n n 
    8   50    0  1.512e-04  1.479e-03  0.3211 n n n n n n n n 
    9   20    2  1.111e-04  1.093e-03  0.3211 n y n y n n n n Subspace collapsed.
   10   30    5  1.375e-04  1.364e-03  0.3211 n y y y y y n n 
   11   40    5  1.381e-04  1.379e-03  0.3211 n y y y y y n n 
   12   50    6  1.240e-04  1.240e-03  0.3211 y y y y y y n n 
   13   20    6  6.620e-05  6.619e-04  0.3211 y y y y y y n n Subspace collapsed.
   14   30    6  4.410e-05  4.408e-04  0.3211 y y y y y y n n 
   15   40    7  3.143e-05  3.142e-04  0.3211 y y y y y y n y 
   16   50    7  3.278e-05  3.278e-04  0.3211 y y y y y y n y 
   17   20    8  2.077e-05  2.076e-04  0.3211 y y y y y y n y Subspace collapsed.
   18   30    7  2.644e-05  2.644e-04  0.3211 y y y y y y n y 
   19   40    9  2.498e-05  2.498e-04  0.3211 y y y y y y y y 
   20   50    9  2.880e-05  2.880e-04  0.3211 y y y y y y y y 
   21   20    9  1.183e-05  1.183e-04  0.3211 y y y y y y y y Subspace collapsed.
   22   30    9  1.082e-05  1.082e-04  0.3211 y y y y y y y y 
   23   31    9  1.090e-05  1.090e-04  0.3211 y y y y y y y y 
   24   32    9  1.100e-05  1.100e-04  0.3211 y y y y y y y y 
   25   33    9  1.140e-05  1.140e-04  0.3211 y y y y y y y y 
   26   34    9  1.136e-05  1.136e-04  0.3211 y y y y y y y y 
   27   35    9  1.150e-05  1.150e-04  0.3211 y y y y y y y y 
   28   35    9  1.150e-05  1.150e-04  0.3211 y y y y y y y y 
   29   45    9  7.506e-06  7.506e-05  0.3211 y y y y y y y y 
   30   50    9  5.827e-06  5.827e-05  0.3211 y y y y y y y y 
   31   16    9  5.112e-06  5.112e-05  0.3211 y y y y y y y y Subspace collapsed.
   32   21    9  5.820e-06  5.820e-05  0.3211 y y y y y y y y 
   33   26    9  6.115e-06  6.115e-05  0.3211 y y y y y y y y 
   34   30    9  5.797e-06  5.797e-05  0.3211 y y y y y y y y 
   35   34    9  4.541e-06  4.541e-05  0.3211 y y y y y y y y 
   36   38    9  2.243e-06  2.243e-05  0.3211 y y y y y y y y 
   37   42    9  1.389e-06  1.389e-05  0.3211 y y y y y y y y 
   38   46    9  6.773e-07  6.773e-06  0.3211 y y y y y y y y 
   39   50    9  4.006e-07  4.006e-06  0.3211 y y y y y y y y 
   40   14    9  1.624e-07  1.624e-06  0.3211 y y y y y y y y Subspace collapsed.
   41   18    9  1.182e-07  1.182e-06  0.3211 y y y y y y y y 
   42   22   10  5.425e-08  5.425e-07  0.3211 y y y y y y y y Converged.
--------------------------------------------------------------------------------
  Davidson Summary: 
 ------------------------------------------------------------
  State  0: excitation energy =   0.3211 a.u.   (converged)
  State  1: excitation energy =   0.3329 a.u.   (converged)
  State  2: excitation energy =   0.3367 a.u.   (converged)
  State  3: excitation energy =   0.3613 a.u.   (converged)
  State  4: excitation energy =   0.3751 a.u.   (converged)
  State  5: excitation energy =   0.3870 a.u.   (converged)
  State  6: excitation energy =   0.4246 a.u.   (converged)
  State  7: excitation energy =   0.4472 a.u.   (converged)
  State  8: excitation energy =   0.4565 a.u.   (converged)
  State  9: excitation energy =   0.4647 a.u.   (converged)
 ------------------------------------------------------------

  Singlet states of irrep A ...  CPU 181.29 s  wall 57.82 s
  TDMs ...  CPU 1.50 s  wall 0.56 s
  SDMs ...  CPU 3.64 s  wall 1.07 s
  Starting TPA DIIS iterations ... 
------------------------------------ 
   It     Res. Norm  Remark
------------------------------------
                       Guess.
    1     4.405e+00  
    2     5.839e+00  
    3     1.076e+00  
    4     2.563e-01  
    5     6.580e-02  
    6     2.668e-02  
    7     8.221e-03  
    8     1.437e-03  
    9     5.337e-04  
   10     8.970e-05  
   11     2.811e-05  
   12     4.347e-06  
   13     1.397e-06  
   14     4.224e-07  Converged.
   ... Converged in 14 steps (norm: 4.22433e-07)
------------------------------------
  Starting TPA DIIS iterations ... 
------------------------------------ 
   It     Res. Norm  Remark
------------------------------------
                       Guess.
    1     4.181e+00  
    2     5.536e+00  
    3     1.030e+00  
    4     2.562e-01  
    5     6.540e-02  
    6     2.675e-02  
    7     8.117e-03  
    8     1.459e-03  
    9     5.379e-04  
   10     9.005e-05  
   11     2.845e-05  
   12     4.324e-06  
   13     1.420e-06  
   14     4.171e-07  Converged.
   ... Converged in 14 steps (norm: 4.17137e-07)
------------------------------------
  Starting TPA DIIS iterations ... 
------------------------------------ 
   It     Res. Norm  Remark
------------------------------------
                       Guess.
    1     6.892e-01  
    2     4.835e-01  
    3     1.704e-01  
    4     6.039e-02  
    5     1.840e-02  
    6     6.651e-03  
    7     1.043e-03  
    8     4.505e-04  
    9     1.239e-04  
   10     3.053e-05  
   11     5.087e-06  
   12     1.571e-06  
   13     8.405e-07  Converged.
   ... Converged in 13 steps (norm: 8.4054e-07)
------------------------------------
  Starting TPA DIIS iterations ... 
------------------------------------ 
   It     Res. Norm  Remark
------------------------------------
                       Guess.
    1     4.697e+00  
    2     6.362e+00  
    3     1.158e+00  
    4     2.853e-01  
    5     7.424e-02  
    6     3.037e-02  
    7     9.339e-03  
    8     1.629e-03  
    9     6.100e-04  
   10     1.031e-04  
   11     3.263e-05  
   12     5.089e-06  
   13     1.647e-06  
   14     4.972e-07  Converged.
   ... Converged in 14 steps (norm: 4.97208e-07)
------------------------------------
  Starting TPA DIIS iterations ... 
------------------------------------ 
   It     Res. Norm  Remark
------------------------------------
                       Guess.
    1     4.456e+00  
    2     6.032e+00  
    3     1.109e+00  
    4     2.849e-01  
    5     7.381e-02  
    6     3.047e-02  
    7     9.224e-03  
    8     1.656e-03  
    9     6.147e-04  
   10     1.035e-04  
   11     3.300e-05  
   12     5.058e-06  
   13     1.674e-06  
   14     4.908e-07  Converged.
   ... Converged in 14 steps (norm: 4.9076e-07)
------------------------------------
  Starting TPA DIIS iterations ... 
------------------------------------ 
   It     Res. Norm  Remark
------------------------------------
                       Guess.
    1     7.014e-01  
    2     5.012e-01  
    3     1.804e-01  
    4     6.845e-02  
    5     1.983e-02  
    6     7.279e-03  
    7     1.179e-03  
    8     5.325e-04  
    9     1.504e-04  
   10     3.523e-05  
   11     5.780e-06  
   12     1.856e-06  
   13     1.060e-06  
   14     3.830e-07  Converged.
   ... Converged in 14 steps (norm: 3.82985e-07)
------------------------------------
  Starting TPA DIIS iterations ... 
------------------------------------ 
   It     Res. Norm  Remark
------------------------------------
                       Guess.
    1     4.797e+00  
    2     6.543e+00  
    3     1.186e+00  
    4     2.955e-01  
    5     7.722e-02  
    6     3.167e-02  
    7     9.734e-03  
    8     1.697e-03  
    9     6.370e-04  
   10     1.078e-04  
   11     3.425e-05  
   12     5.355e-06  
   13     1.737e-06  
   14     5.241e-07  Converged.
   ... Converged in 14 steps (norm: 5.24097e-07)
------------------------------------
  Starting TPA DIIS iterations ... 
------------------------------------ 
   It     Res. Norm  Remark
------------------------------------
                       Guess.
    1     4.551e+00  
    2     6.204e+00  
    3     1.135e+00  
    4     2.950e-01  
    5     7.678e-02  
    6     3.179e-02  
    7     9.616e-03  
    8     1.725e-03  
    9     6.420e-04  
   10     1.083e-04  
   11     3.464e-05  
   12     5.321e-06  
   13     1.765e-06  
   14     5.173e-07  Converged.
   ... Converged in 14 steps (norm: 5.17264e-07)
------------------------------------
  Starting TPA DIIS iterations ... 
------------------------------------ 
   It     Res. Norm  Remark
------------------------------------
                       Guess.
    1     7.055e-01  
    2     5.071e-01  
    3     1.837e-01  
    4     7.134e-02  
    5     2.032e-02  
    6     7.501e-03  
    7     1.228e-03  
    8     5.623e-04  
    9     1.601e-04  
   10     3.660e-05  
   11     6.019e-06  
   12     1.960e-06  
   13     1.143e-06  
   14     4.083e-07  Converged.
   ... Converged in 14 steps (norm: 4.08306e-07)
------------------------------------
  Starting TPA DIIS iterations ... 
------------------------------------ 
   It     Res. Norm  Remark
------------------------------------
                       Guess.
    1     5.541e+00  
    2     7.931e+00  
    3     1.394e+00  
    4     3.758e-01  
    5     1.007e-01  
    6     4.206e-02  
    7     1.285e-02  
    8     2.231e-03  
    9     8.521e-04  
   10     1.457e-04  
   11     4.741e-05  
   12     7.519e-06  
   13     2.488e-06  
   14     7.443e-07  Converged.
   ... Converged in 14 steps (norm: 7.44258e-07)
------------------------------------
  Starting TPA DIIS iterations ... 
------------------------------------ 
   It     Res. Norm  Remark
------------------------------------
                       Guess.
    1     5.255e+00  
    2     7.518e+00  
    3     1.334e+00  
    4     3.746e-01  
    5     1.002e-01  
    6     4.231e-02  
    7     1.270e-02  
    8     2.271e-03  
    9     8.585e-04  
   10     1.463e-04  
   11     4.785e-05  
   12     7.456e-06  
   13     2.523e-06  
   14     7.350e-07  Converged.
   ... Converged in 14 steps (norm: 7.35015e-07)
------------------------------------
  Starting TPA DIIS iterations ... 
------------------------------------ 
   It     Res. Norm  Remark
------------------------------------
                       Guess.
    1     7.326e-01  
    2     5.488e-01  
    3     2.083e-01  
    4     9.482e-02  
    5     2.390e-02  
    6     9.255e-03  
    7     1.630e-03  
    8     8.047e-04  
    9     2.370e-04  
   10     4.273e-05  
   11     7.857e-06  
   12     2.831e-06  
   13     1.903e-06  
   14     6.266e-07  Converged.
   ... Converged in 14 steps (norm: 6.26571e-07)
------------------------------------
  Starting TPA DIIS iterations ... 
------------------------------------ 
   It     Res. Norm  Remark
------------------------------------
                       Guess.
    1     6.046e+00  
    2     8.905e+00  
    3     1.535e+00  
    4     4.344e-01  
    5     1.178e-01  
    6     4.973e-02  
    7     1.512e-02  
    8     2.619e-03  
    9     1.011e-03  
   10     1.736e-04  
   11     5.734e-05  
   12     9.150e-06  
   13     3.069e-06  
   14     9.138e-07  Converged.
   ... Converged in 14 steps (norm: 9.13823e-07)
------------------------------------
  Starting TPA DIIS iterations ... 
------------------------------------ 
   It     Res. Norm  Remark
------------------------------------
                       Guess.
    1     5.732e+00  
    2     8.441e+00  
    3     1.468e+00  
    4     4.325e-01  
    5     1.172e-01  
    6     5.008e-02  
    7     1.495e-02  
    8     2.668e-03  
    9     1.018e-03  
   10     1.744e-04  
   11     5.778e-05  
   12     9.063e-06  
   13     3.107e-06  
   14     9.038e-07  Converged.
   ... Converged in 14 steps (norm: 9.03775e-07)
------------------------------------
  Starting TPA DIIS iterations ... 
------------------------------------ 
   It     Res. Norm  Remark
------------------------------------
                       Guess.
    1     7.488e-01  
    2     5.752e-01  
    3     2.244e-01  
    4     1.126e-01  
    5     2.636e-02  
    6     1.055e-02  
    7     1.939e-03  
    8     9.779e-04  
    9     2.908e-04  
   10     4.396e-05  
   11     9.193e-06  
   12     3.510e-06  
   13     2.552e-06  
   14     8.052e-07  Converged.
   ... Converged in 14 steps (norm: 8.05154e-07)
------------------------------------
  Starting TPA DIIS iterations ... 
------------------------------------ 
   It     Res. Norm  Remark
------------------------------------
                       Guess.
    1     6.545e+00  
    2     9.892e+00  
    3     1.673e+00  
    4     4.953e-01  
    5     1.356e-01  
    6     5.777e-02  
    7     1.748e-02  
    8     3.021e-03  
    9     1.177e-03  
   10     2.028e-04  
   11     6.783e-05  
   12     1.087e-05  
   13     3.693e-06  
   14     1.098e-06  
   15     3.725e-07  Converged.
   ... Converged in 15 steps (norm: 3.72518e-07)
------------------------------------
  Starting TPA DIIS iterations ... 
------------------------------------ 
   It     Res. Norm  Remark
------------------------------------
                       Guess.
    1     6.205e+00  
    2     9.376e+00  
    3     1.600e+00  
    4     4.927e-01  
    5     1.349e-01  
    6     5.823e-02  
    7     1.730e-02  
    8     3.079e-03  
    9     1.185e-03  
   10     2.037e-04  
   11     6.825e-05  
   12     1.076e-05  
   13     3.732e-06  
   14     1.088e-06  
   15     3.515e-07  Converged.
   ... Converged in 15 steps (norm: 3.5154e-07)
------------------------------------
  Starting TPA DIIS iterations ... 
------------------------------------ 
   It     Res. Norm  Remark
------------------------------------
                       Guess.
    1     7.634e-01  
    2     5.999e-01  
    3     2.399e-01  
    4     1.314e-01  
    5     2.885e-02  
    6     1.189e-02  
    7     2.274e-03  
    8     1.145e-03  
    9     3.430e-04  
   10     4.430e-05  
   11     1.061e-05  
   12     4.240e-06  
   13     3.294e-06  
   14     1.007e-06  
   15     3.344e-07  Converged.
   ... Converged in 15 steps (norm: 3.34403e-07)
------------------------------------
  Starting TPA DIIS iterations ... 
------------------------------------ 
   It     Res. Norm  Remark
------------------------------------
                       Guess.
    1     8.648e+00  
    2     1.429e+01  
    3     2.244e+00  
    4     7.792e-01  
    5     2.185e-01  
    6     9.604e-02  
    7     2.850e-02  
    8     4.888e-03  
    9     1.966e-03  
   10     3.411e-04  
   11     1.175e-04  
   12     1.909e-05  
   13     6.697e-06  
   14     2.074e-06  
   15     7.175e-07  Converged.
   ... Converged in 15 steps (norm: 7.17493e-07)
------------------------------------
  Starting TPA DIIS iterations ... 
------------------------------------ 
   It     Res. Norm  Remark
------------------------------------
                       Guess.
    1     8.195e+00  
    2     1.354e+01  
    3     2.145e+00  
    4     7.724e-01  
    5     2.177e-01  
    6     9.711e-02  
    7     2.823e-02  
    8     4.989e-03  
    9     1.976e-03  
   10     3.424e-04  
   11     1.175e-04  
   12     1.885e-05  
   13     6.701e-06  
   14     2.077e-06  
   15     6.501e-07  Converged.
   ... Converged in 15 steps (norm: 6.50128e-07)
------------------------------------
  Starting TPA DIIS iterations ... 
------------------------------------ 
   It     Res. Norm  Remark
------------------------------------
                       Guess.
    1     8.137e-01  
    2     6.937e-01  
    3     3.015e-01  
    4     2.203e-01  
    5     4.021e-02  
    6     1.815e-02  
    7     3.950e-03  
    8     1.679e-03  
    9     5.440e-04  
   10     5.210e-05  
   11     1.772e-05  
   12     7.790e-06  
   13     7.353e-06  
   14     2.145e-06  
   15     7.242e-07  Converged.
   ... Converged in 15 steps (norm: 7.24187e-07)
------------------------------------
  Starting TPA DIIS iterations ... 
------------------------------------ 
   It     Res. Norm  Remark
------------------------------------
                       Guess.
    1     1.050e+01  
    2     1.844e+01  
    3     2.734e+00  
    4     1.057e+00  
    5     3.005e-01  
    6     1.347e-01  
    7     3.937e-02  
    8     6.719e-03  
    9     2.760e-03  
   10     4.790e-04  
   11     1.653e-04  
   12     2.734e-05  
   13     9.616e-06  
   14     3.214e-06  
   15     1.124e-06  
   16     3.357e-07  Converged.
   ... Converged in 16 steps (norm: 3.3565e-07)
------------------------------------
  Starting TPA DIIS iterations ... 
------------------------------------ 
   It     Res. Norm  Remark
------------------------------------
                       Guess.
    1     9.945e+00  
    2     1.748e+01  
    3     2.611e+00  
    4     1.045e+00  
    5     2.995e-01  
    6     1.365e-01  
    7     3.903e-02  
    8     6.861e-03  
    9     2.770e-03  
   10     4.805e-04  
   11     1.647e-04  
   12     2.703e-05  
   13     9.551e-06  
   14     3.238e-06  
   15     9.887e-07  Converged.
   ... Converged in 15 steps (norm: 9.88663e-07)
------------------------------------
  Starting TPA DIIS iterations ... 
------------------------------------ 
   It     Res. Norm  Remark
------------------------------------
                       Guess.
    1     8.479e-01  
    2     7.658e-01  
    3     3.514e-01  
    4     3.034e-01  
    5     5.110e-02  
    6     2.400e-02  
    7     5.675e-03  
    8     1.902e-03  
    9     7.003e-04  
   10     7.027e-05  
   11     2.535e-05  
   12     1.130e-05  
   13     1.194e-05  
   14     3.556e-06  
   15     1.409e-06  
   16     1.117e-06  
   17     5.349e-07  Converged.
   ... Converged in 17 steps (norm: 5.3486e-07)
------------------------------------
  Starting TPA DIIS iterations ... 
------------------------------------ 
   It     Res. Norm  Remark
------------------------------------
                       Guess.
    1     1.143e+01  
    2     2.064e+01  
    3     2.977e+00  
    4     1.205e+00  
    5     3.447e-01  
    6     1.559e-01  
    7     4.525e-02  
    8     7.705e-03  
    9     3.193e-03  
   10     5.536e-04  
   11     1.904e-04  
   12     3.188e-05  
   13     1.120e-05  
   14     3.888e-06  
   15     1.397e-06  
   16     4.318e-07  Converged.
   ... Converged in 16 steps (norm: 4.3176e-07)
------------------------------------
  Starting TPA DIIS iterations ... 
------------------------------------ 
   It     Res. Norm  Remark
------------------------------------
                       Guess.
    1     1.083e+01  
    2     1.956e+01  
    3     2.843e+00  
    4     1.190e+00  
    5     3.437e-01  
    6     1.581e-01  
    7     4.486e-02  
    8     7.868e-03  
    9     3.203e-03  
   10     5.551e-04  
   11     1.894e-04  
   12     3.158e-05  
   13     1.110e-05  
   14     3.924e-06  
   15     1.219e-06  
   16     5.365e-07  Converged.
   ... Converged in 16 steps (norm: 5.36543e-07)
------------------------------------
  Starting TPA DIIS iterations ... 
------------------------------------ 
   It     Res. Norm  Remark
------------------------------------
                       Guess.
    1     8.628e-01  
    2     7.998e-01  
    3     3.756e-01  
    4     3.444e-01  
    5     5.685e-02  
    6     2.692e-02  
    7     6.604e-03  
    8     1.960e-03  
    9     7.751e-04  
   10     8.132e-05  
   11     2.965e-05  
   12     1.321e-05  
   13     1.462e-05  
   14     4.429e-06  
   15     1.937e-06  
   16     1.464e-06  
   17     7.305e-07  Converged.
   ... Converged in 17 steps (norm: 7.30492e-07)
------------------------------------
  Starting TPA DIIS iterations ... 
------------------------------------ 
   It     Res. Norm  Remark
------------------------------------
                       Guess.
    1     1.238e+01  
    2     2.293e+01  
    3     3.221e+00  
    4     1.360e+00  
    5     3.912e-01  
    6     1.783e-01  
    7     5.142e-02  
    8     8.740e-03  
    9     3.651e-03  
   10     6.321e-04  
   11     2.163e-04  
   12     3.675e-05  
   13     1.292e-05  
   14     4.635e-06  
   15     1.735e-06  
   16     5.477e-07  Converged.
   ... Converged in 16 steps (norm: 5.47715e-07)
------------------------------------
  Starting TPA DIIS iterations ... 
------------------------------------ 
   It     Res. Norm  Remark
------------------------------------
                       Guess.
    1     1.173e+01  
    2     2.173e+01  
    3     3.075e+00  
    4     1.342e+00  
    5     3.902e-01  
    6     1.809e-01  
    7     5.098e-02  
    8     8.925e-03  
    9     3.661e-03  
   10     6.336e-04  
   11     2.150e-04  
   12     3.649e-05  
   13     1.277e-05  
   14     4.683e-06  
   15     1.509e-06  
   16     6.909e-07  Converged.
   ... Converged in 16 steps (norm: 6.90864e-07)
------------------------------------
  Starting TPA DIIS iterations ... 
------------------------------------ 
   It     Res. Norm  Remark
------------------------------------
                       Guess.
    1     8.766e-01  
    2     8.327e-01  
    3     3.993e-01  
    4     3.841e-01  
    5     6.279e-02  
    6     2.980e-02  
    7     7.567e-03  
    8     2.001e-03  
    9     8.489e-04  
   10     9.297e-05  
   11     3.430e-05  
   12     1.528e-05  
   13     1.762e-05  
   14     5.429e-06  
   15     2.608e-06  
   16     1.863e-06  
   17     9.565e-07  Converged.
   ... Converged in 17 steps (norm: 9.56521e-07)
------------------------------------
  Two-photon absorbption ...  CPU 131.13 s  wall 32.19 s
  Transition density matrix of state singlet_A_1 printed to ASCII file 'State_singlet_A_1_Transition.txt'
  Transition density matrix of state singlet_A_2 printed to ASCII file 'State_singlet_A_2_Transition.txt'
  Transition density matrix of state singlet_A_3 printed to ASCII file 'State_singlet_A_3_Transition.txt'
  Transition density matrix of state singlet_A_4 printed to ASCII file 'State_singlet_A_4_Transition.txt'
  Transition density matrix of state singlet_A_5 printed to ASCII file 'State_singlet_A_5_Transition.txt'
  Transition density matrix of state singlet_A_6 printed to ASCII file 'State_singlet_A_6_Transition.txt'
  Transition density matrix of state singlet_A_7 printed to ASCII file 'State_singlet_A_7_Transition.txt'
  Transition density matrix of state singlet_A_8 printed to ASCII file 'State_singlet_A_8_Transition.txt'
  Transition density matrix of state singlet_A_9 printed to ASCII file 'State_singlet_A_9_Transition.txt'
  Transition density matrix of state singlet_A_10 printed to ASCII file 'State_singlet_A_10_Transition.txt'
  Transition properties ...  CPU 0.29 s  wall 0.57 s
  Difference density matrix of state singlet_A_1 printed to ASCII file 'State_singlet_A_1_Difference.txt'
  Total density matrix of state singlet_A_1 printed to ASCII file 'State_singlet_A_1_Total.txt'
  Difference density matrix of state singlet_A_2 printed to ASCII file 'State_singlet_A_2_Difference.txt'
  Total density matrix of state singlet_A_2 printed to ASCII file 'State_singlet_A_2_Total.txt'
  Difference density matrix of state singlet_A_3 printed to ASCII file 'State_singlet_A_3_Difference.txt'
  Total density matrix of state singlet_A_3 printed to ASCII file 'State_singlet_A_3_Total.txt'
  Difference density matrix of state singlet_A_4 printed to ASCII file 'State_singlet_A_4_Difference.txt'
  Total density matrix of state singlet_A_4 printed to ASCII file 'State_singlet_A_4_Total.txt'
  Difference density matrix of state singlet_A_5 printed to ASCII file 'State_singlet_A_5_Difference.txt'
  Total density matrix of state singlet_A_5 printed to ASCII file 'State_singlet_A_5_Total.txt'
  Difference density matrix of state singlet_A_6 printed to ASCII file 'State_singlet_A_6_Difference.txt'
  Total density matrix of state singlet_A_6 printed to ASCII file 'State_singlet_A_6_Total.txt'
  Difference density matrix of state singlet_A_7 printed to ASCII file 'State_singlet_A_7_Difference.txt'
  Total density matrix of state singlet_A_7 printed to ASCII file 'State_singlet_A_7_Total.txt'
  Difference density matrix of state singlet_A_8 printed to ASCII file 'State_singlet_A_8_Difference.txt'
  Total density matrix of state singlet_A_8 printed to ASCII file 'State_singlet_A_8_Total.txt'
  Difference density matrix of state singlet_A_9 printed to ASCII file 'State_singlet_A_9_Difference.txt'
  Total density matrix of state singlet_A_9 printed to ASCII file 'State_singlet_A_9_Total.txt'
  Difference density matrix of state singlet_A_10 printed to ASCII file 'State_singlet_A_10_Difference.txt'
  Total density matrix of state singlet_A_10 printed to ASCII file 'State_singlet_A_10_Total.txt'
  Properties ...  CPU 0.53 s  wall 0.89 s
  ISR TDMS ...  CPU 20.12 s  wall 6.31 s
  ISR transition properties ...  CPU 0.37 s  wall 0.18 s
  Sum-over-states TPA ...  CPU 0.00 s  wall 0.00 s

--------------------------------------------------------------------------------
                   State-averaged natural transition orbitals
--------------------------------------------------------------------------------
--------------------------------------------------------------------------------
  SA-NTO decomposition ...  CPU 0.01 s  wall 0.03 s

--------------------------------------------------------------------------------
                             Excited State Summary
--------------------------------------------------------------------------------
--------------------------------------------------------------------------------

  Excited state 1 (singlet, A)                                     [converged]
  ----------------------------------------------------------------------------
  Term symbol:  2 (1) A                                     R^2 =  1.27874e-13

  Total energy:                                            -77.9985357327 a.u.
  Excitation energy:                                               8.737897 eV

  Osc. strength:                                                      0.445763
  Trans. dip. moment [a.u.]:           [  -1.044739,    0.995344,    0.009404]
  <i|r^2|0> [a.u.]:                    [  -6.159105,    0.245242,    0.000110]
  Two-photon absorption cross-section (SoS) [a.u.]:                   0.000110
  Two-photon absorption matrix (SoS) [a.u.]:
                                       |    0.002236   -0.001850    0.000152 |
                                       |   -0.001850   -0.003307   -0.000569 |
                                       |    0.000152   -0.000569    0.001914 |
  Two-photon absorption cross-section [a.u.]:                         0.000177
  Two-photon absorption matrix [a.u.]:
                                       |    0.003781   -0.001083   -0.000066 |
                                       |   -0.001083   -0.004280   -0.001576 |
                                       |   -0.000066   -0.001576    0.001828 |

  Dip. moment [a.u.]:                  [   0.000159,   -0.000133,    0.000397]
  Total dipole [Debye]:                                               0.001137
  <r^2> [a.u.]:                        [ 175.993770,   35.658247,   11.869593]
  Total <r^2> [a.u.]:                                               223.521611

  V1^2 = 0.9715, V2^2 = 0.0285

  Important amplitudes:
      occ i     occ j     vir a      vir b          v   
    -----------------------------------------------------
     8 (A) A              9 (A) A                -0.6811
     6 (A) A             14 (A) A                -0.0624
     4 (A) A             10 (A) A                -0.0609
     7 (A) A             16 (A) A                 0.0567
     5 (A) A             13 (A) A                 0.0513
     6 (A) A             23 (A) A                -0.0487
     8 (A) A             20 (A) A                 0.0350
     6 (A) A             19 (A) A                 0.0308
     3 (A) A             12 (A) A                 0.0281
     5 (A) A             22 (A) A                 0.0215
     7 (A) A             11 (A) A                 0.0213
     4 (A) A             24 (A) A                -0.0188
     3 (A) A             26 (A) A                -0.0185
     8 (A) A   8 (A) B   17 (A) A   20 (A) B     -0.0184
     8 (A) A   8 (A) B    9 (A) A   28 (A) B     -0.0168
     6 (A) A             26 (A) A                 0.0163
     7 (A) A             21 (A) A                -0.0149
     3 (A) A             14 (A) A                 0.0139
     6 (A) A             12 (A) A                 0.0133
     3 (A) A   4 (A) B    9 (A) A    9 (A) B      0.0129
     3 (A) A             19 (A) A                -0.0119
     8 (A) A   8 (A) B   18 (A) A   19 (A) B      0.0113
     7 (A) A             32 (A) A                -0.0097
     7 (A) A             36 (A) A                -0.0085
     3 (A) A             23 (A) A                 0.0081
     8 (A) A   8 (A) B   25 (A) A   29 (A) B     -0.0076
     6 (A) A             35 (A) A                -0.0073
     6 (A) A             40 (A) A                -0.0068
     3 (A) A   6 (A) B    9 (A) A   28 (A) B      0.0065
     6 (A) A   8 (A) A   19 (A) A   28 (A) A     -0.0061
     5 (A) A   7 (A) B    9 (A) A    9 (A) B      0.0060
     5 (A) A   8 (A) B   11 (A) A   20 (A) B      0.0059
     7 (A) A   8 (A) B   13 (A) A   20 (A) B      0.0059
     5 (A) A   8 (A) B   16 (A) A    9 (A) B     -0.0059
     5 (A) A   8 (A) B   11 (A) A    9 (A) B      0.0058
     3 (A) A   5 (A) B    9 (A) A   25 (A) B      0.0058
     3 (A) A             40 (A) A                 0.0057
     7 (A) A   8 (A) B   22 (A) A   20 (A) B      0.0057
     6 (A) A   8 (A) A    9 (A) A   18 (A) A     -0.0057
     8 (A) A   8 (A) B   19 (A) A   30 (A) B      0.0056
    -----------------------------------------------------

  Density matrix analysis:
  ------------------------
  NOs
    Occupation of frontier NOs:
       0.9494   1.0218
    Number of electrons: 16.000000
    Number of unpaired electrons: n_u =  2.31351, n_u,nl =  2.03267
    NO participation ratio (PR_NO):  2.864613
  
  
  Mulliken Population Analysis
  Atom      Charge (e)              h+              e-           Del q
  --------------------------------------------------------------------
   1 H        0.058602        0.020301       -0.012544        0.007757
   2 C       -0.116284        0.490809       -0.506092       -0.015283
   3 H        0.057870        0.020136       -0.012609        0.007527
   4 C       -0.117080        0.490832       -0.506109       -0.015277
   5 H        0.058180        0.020142       -0.012619        0.007523
   6 H        0.058712        0.020290       -0.012536        0.007754
  --------------------------------------------------------------------
  Sum:        0.000000        1.062509       -1.062509        0.000000
  
  Multipole moment analysis of the density matrix
    Molecular charge:                      0.000000
    Number of electrons:                   16.000000
      Center of electronic charge [Ang]: [ -1.559956,  -0.065598,   0.001965]
    Total nuclear charge:                  16.000000
      Center of nuclear charge [Ang]:    [ -1.559951,  -0.065602,   0.001978]
    Dipole moment [D]:                     0.001137
      Cartesian components [D]:          [  0.000403,  -0.000337,   0.001009]
    RMS size of the density [Ang]:         1.214189
      Cartesian components [Ang]:        [  0.804202,   0.787261,   0.455780]
  
  Exciton analysis of the difference density matrix
    <r_h> [Ang]:                  [ -1.560044,  -0.065690,   0.001794]
    <r_e> [Ang]:                  [ -1.560069,  -0.065734,   0.001753]
    |<r_e - r_h>| [Ang]:            0.000065
    Hole size [Ang]:                1.285410
      Cartesian components [Ang]: [  0.728340,   0.712675,   0.783514]
    Electron size [Ang]:            1.463196
      Cartesian components [Ang]: [  0.854032,   0.830503,   0.849609]

  Transition density matrix analysis:
  -----------------------------------
  
  CT numbers (Mulliken)
    omega =     0.9535
    <Phe> =    -0.1606
  
  Exciton analysis of the transition density matrix
    Trans. dipole moment [D]:             1.833883
      Cartesian components [D]:         [ -1.327731,   1.264957,   0.011951]
    <r_h> [Ang]:                        [ -1.560060,  -0.065728,   0.001823]
    <r_e> [Ang]:                        [ -1.560062,  -0.065720,   0.001729]
    |<r_e - r_h>| [Ang]:                  0.000094
    Hole size [Ang]:                      1.214164
      Cartesian components [Ang]:       [  0.649549,   0.636489,   0.804464]
    Electron size [Ang]:                  1.486013
      Cartesian components [Ang]:       [  0.864437,   0.839404,   0.869704]
    RMS electron-hole separation [Ang]:   1.936537
      Cartesian components [Ang]:       [  1.106647,   1.074973,   1.170445]
    Covariance(r_h, r_e) [Ang^2]:        -0.033874
    Correlation coefficient:             -0.018774
    Center-of-mass size [Ang]:            0.950616
      Cartesian components [Ang]:       [  0.527651,   0.515720,   0.599406]

  Decomposition into state-averaged NTOs
    H- 0 -> L+ 0:  0.6699 ( 89.7%)
    H- 2 -> L+ 5: -0.0837 (  1.4%)
                   omega =  95.4%
  ----------------------------------------------------------------------------


  Excited state 2 (singlet, A)                                     [converged]
  ----------------------------------------------------------------------------
  Term symbol:  3 (1) A                                     R^2 =  2.36477e-13

  Total energy:                                            -77.9867229170 a.u.
  Excitation energy:                                               9.059340 eV

  Osc. strength:                                                      0.000006
  Trans. dip. moment [a.u.]:           [   0.001402,   -0.001149,   -0.004811]
  <i|r^2|0> [a.u.]:                    [  -0.055019,   -0.087483,    0.150514]
  Two-photon absorption cross-section (SoS) [a.u.]:                   4.990908
  Two-photon absorption matrix (SoS) [a.u.]:
                                       |   -0.052484   -0.059153    0.544961 |
                                       |   -0.059153   -0.066116    0.559269 |
                                       |    0.544961    0.559269    0.118635 |
  Two-photon absorption cross-section [a.u.]:                         0.077662
  Two-photon absorption matrix [a.u.]:
                                       |    0.003024    0.006889   -0.050303 |
                                       |    0.006889    0.011767   -0.083353 |
                                       |   -0.050303   -0.083353   -0.014720 |

  Dip. moment [a.u.]:                  [  -0.006439,   -0.005284,    0.000115]
  Total dipole [Debye]:                                               0.021173
  <r^2> [a.u.]:                        [ 174.416195,   33.951378,   13.172419]
  Total <r^2> [a.u.]:                                               221.539992

  V1^2 = 0.9542, V2^2 = 0.0458

  Important amplitudes:
      occ i     occ j     vir a      vir b          v   
    -----------------------------------------------------
     7 (A) A              9 (A) A                 0.6688
     8 (A) A             11 (A) A                -0.1496
     7 (A) A             20 (A) A                -0.0759
     5 (A) A   8 (A) B    9 (A) A    9 (A) B     -0.0316
     8 (A) A             16 (A) A                 0.0274
     8 (A) A             21 (A) A                 0.0177
     5 (A) A             28 (A) A                 0.0150
     4 (A) A   7 (A) B    9 (A) A   19 (A) B     -0.0135
     5 (A) A   7 (A) B    9 (A) A   16 (A) B     -0.0133
     7 (A) A   8 (A) B   20 (A) A   17 (A) B      0.0105
     7 (A) A   8 (A) A    9 (A) A   28 (A) A     -0.0098
     8 (A) A             10 (A) A                 0.0096
     5 (A) A   8 (A) B    9 (A) A   20 (A) B      0.0095
     4 (A) A   6 (A) B    9 (A) A   16 (A) B     -0.0091
     5 (A) A   6 (A) A    9 (A) A   23 (A) A      0.0091
     5 (A) A   6 (A) A    9 (A) A   14 (A) A      0.0089
     5 (A) A   6 (A) B    9 (A) A   19 (A) B     -0.0086
     8 (A) A   7 (A) B    9 (A) A   28 (A) B      0.0085
     4 (A) A   5 (A) A    9 (A) A   10 (A) A     -0.0085
     6 (A) A   7 (A) B    9 (A) A   18 (A) B      0.0083
     5 (A) A   6 (A) B    9 (A) A   23 (A) B      0.0080
     3 (A) A   7 (A) B    9 (A) A   18 (A) B      0.0079
     5 (A) A   7 (A) A    9 (A) A   16 (A) A     -0.0079
     4 (A) A   8 (A) B    9 (A) A   25 (A) B     -0.0077
     7 (A) A   8 (A) B   17 (A) A   20 (A) B      0.0074
     4 (A) A   7 (A) B   19 (A) A    9 (A) B     -0.0074
     5 (A) A   5 (A) B    9 (A) A   13 (A) B     -0.0072
     7 (A) A   8 (A) B   19 (A) A   18 (A) B     -0.0072
     5 (A) A   8 (A) A    9 (A) A   20 (A) A      0.0069
     4 (A) A   5 (A) B    9 (A) A   18 (A) B      0.0067
     7 (A) A   7 (A) B   20 (A) A   22 (A) B     -0.0065
     7 (A) A   8 (A) B   17 (A) A    9 (A) B     -0.0065
     8 (A) A             12 (A) A                -0.0064
     5 (A) A   6 (A) B    9 (A) A   14 (A) B      0.0063
     4 (A) A   7 (A) A    9 (A) A   19 (A) A     -0.0061
     4 (A) A   5 (A) B   10 (A) A    9 (A) B      0.0061
     4 (A) A   7 (A) B    9 (A) A   14 (A) B     -0.0060
     5 (A) A   7 (A) B   11 (A) A   20 (A) B     -0.0060
     5 (A) A             37 (A) A                -0.0059
     4 (A) A   8 (A) A    9 (A) A   25 (A) A     -0.0057
    -----------------------------------------------------

  Density matrix analysis:
  ------------------------
  NOs
    Occupation of frontier NOs:
       0.9569   1.0547
    Number of electrons: 16.000000
    Number of unpaired electrons: n_u =  2.35543, n_u,nl =  2.06347
    NO participation ratio (PR_NO):  3.033563
  
  
  Mulliken Population Analysis
  Atom      Charge (e)              h+              e-           Del q
  --------------------------------------------------------------------
   1 H        0.145867        0.121128       -0.026107        0.095022
   2 C       -0.301485        0.271739       -0.472224       -0.200484
   3 H        0.155503        0.128428       -0.023269        0.105159
   4 C       -0.302098        0.272149       -0.472443       -0.200295
   5 H        0.153658        0.129662       -0.026661        0.103001
   6 H        0.148555        0.120401       -0.022804        0.097598
  --------------------------------------------------------------------
  Sum:        0.000000        1.043508       -1.043508       -0.000000
  
  Multipole moment analysis of the density matrix
    Molecular charge:                      0.000000
    Number of electrons:                   16.000000
      Center of electronic charge [Ang]: [ -1.559738,  -0.065428,   0.001974]
    Total nuclear charge:                  16.000000
      Center of nuclear charge [Ang]:    [ -1.559951,  -0.065602,   0.001978]
    Dipole moment [D]:                     0.021173
      Cartesian components [D]:          [ -0.016367,  -0.013429,   0.000292]
    RMS size of the density [Ang]:         1.200115
      Cartesian components [Ang]:        [  0.787281,   0.768068,   0.480143]
  
  Exciton analysis of the difference density matrix
    <r_h> [Ang]:                  [ -1.559102,  -0.063467,   0.002185]
    <r_e> [Ang]:                  [ -1.555782,  -0.060899,   0.002286]
    |<r_e - r_h>| [Ang]:            0.004198
    Hole size [Ang]:                1.486071
      Cartesian components [Ang]: [  0.993707,   1.006937,   0.455008]
    Electron size [Ang]:            1.478155
      Cartesian components [Ang]: [  0.881500,   0.861013,   0.816429]

  Transition density matrix analysis:
  -----------------------------------
  
  CT numbers (Mulliken)
    omega =     0.9218
    <Phe> =    -0.0121
  
  Exciton analysis of the transition density matrix
    Trans. dipole moment [D]:             0.006534
      Cartesian components [D]:         [  0.001782,  -0.001461,  -0.006114]
    <r_h> [Ang]:                        [ -1.559193,  -0.063402,   0.002229]
    <r_e> [Ang]:                        [ -1.555479,  -0.060715,   0.002262]
    |<r_e - r_h>| [Ang]:                  0.004584
    Hole size [Ang]:                      1.514370
      Cartesian components [Ang]:       [  1.015484,   1.031717,   0.444600]
    Electron size [Ang]:                  1.475270
      Cartesian components [Ang]:       [  0.872350,   0.850288,   0.832128]
    RMS electron-hole separation [Ang]:   2.094420
      Cartesian components [Ang]:       [  1.322942,   1.322016,   0.942706]
    Covariance(r_h, r_e) [Ang^2]:         0.041581
    Correlation coefficient:              0.018612
    Center-of-mass size [Ang]:            1.066876
      Cartesian components [Ang]:       [  0.677171,   0.675858,   0.472101]

  Decomposition into state-averaged NTOs
    H- 1 -> L+ 0: -0.6612 ( 87.4%)
    H- 0 -> L+ 2:  0.1496 (  4.5%)
                   omega =  92.2%
  ----------------------------------------------------------------------------


  Excited state 3 (singlet, A)                                     [converged]
  ----------------------------------------------------------------------------
  Term symbol:  4 (1) A                                     R^2 =  1.89510e-13

  Total energy:                                            -77.9829463498 a.u.
  Excitation energy:                                               9.162105 eV

  Osc. strength:                                                      0.024946
  Trans. dip. moment [a.u.]:           [  -0.015403,   -0.020033,    0.332410]
  <i|r^2|0> [a.u.]:                    [  -0.092070,   -0.005094,   -0.000734]
  Two-photon absorption cross-section (SoS) [a.u.]:                   0.002068
  Two-photon absorption matrix (SoS) [a.u.]:
                                       |   -0.003933    0.000912   -0.010001 |
                                       |    0.000912    0.005500   -0.010845 |
                                       |   -0.010001   -0.010845   -0.005247 |
  Two-photon absorption cross-section [a.u.]:                         0.002933
  Two-photon absorption matrix [a.u.]:
                                       |   -0.003492    0.001664   -0.012885 |
                                       |    0.001664    0.003508   -0.013021 |
                                       |   -0.012885   -0.013021   -0.004629 |

  Dip. moment [a.u.]:                  [  -0.006523,   -0.015123,   -0.001640]
  Total dipole [Debye]:                                               0.042069
  <r^2> [a.u.]:                        [ 180.675935,   40.597244,   11.026316]
  Total <r^2> [a.u.]:                                               232.299495

  V1^2 = 0.9587, V2^2 = 0.0413

  Important amplitudes:
      occ i     occ j     vir a      vir b          v   
    -----------------------------------------------------
     8 (A) A             10 (A) A                -0.6890
     8 (A) A             24 (A) A                -0.0507
     8 (A) A             18 (A) A                 0.0313
     4 (A) A              9 (A) A                -0.0239
     8 (A) A   8 (A) B    9 (A) A   12 (A) B      0.0219
     8 (A) A             15 (A) A                 0.0173
     8 (A) A   8 (A) B   10 (A) A   17 (A) B     -0.0173
     5 (A) A   8 (A) B   11 (A) A   10 (A) B      0.0165
     7 (A) A   8 (A) B   13 (A) A   10 (A) B      0.0141
     4 (A) A   8 (A) B   12 (A) A   10 (A) B      0.0111
     6 (A) A   8 (A) A   10 (A) A   15 (A) A      0.0109
     7 (A) A   8 (A) B   22 (A) A   10 (A) B      0.0108
     6 (A) A   8 (A) B   15 (A) A   10 (A) B     -0.0107
     4 (A) A   8 (A) A   10 (A) A   12 (A) A     -0.0106
     7 (A) A   8 (A) A   10 (A) A   22 (A) A     -0.0099
     7 (A) A              9 (A) A                 0.0098
     7 (A) A   8 (A) A   10 (A) A   13 (A) A     -0.0097
     5 (A) A   8 (A) B   21 (A) A   10 (A) B     -0.0094
     5 (A) A   8 (A) A   10 (A) A   11 (A) A     -0.0094
     6 (A) A   8 (A) A   10 (A) A   18 (A) A     -0.0088
     6 (A) A   8 (A) B   10 (A) A   10 (A) B     -0.0087
     7 (A) A   8 (A) A   12 (A) A   16 (A) A     -0.0081
     3 (A) A   4 (A) B   10 (A) A    9 (A) B      0.0079
     5 (A) A   8 (A) A   10 (A) A   21 (A) A      0.0079
     4 (A) A   8 (A) B   19 (A) A   10 (A) B     -0.0075
     8 (A) A   8 (A) B    9 (A) A   23 (A) B     -0.0075
     8 (A) A   8 (A) B   10 (A) A   28 (A) B     -0.0073
     3 (A) A   8 (A) B   10 (A) A   10 (A) B     -0.0072
     5 (A) A   8 (A) B   10 (A) A   11 (A) B      0.0072
     3 (A) A   8 (A) A   10 (A) A   24 (A) A      0.0071
     7 (A) A   8 (A) B   16 (A) A   12 (A) B      0.0070
     3 (A) A   8 (A) B   10 (A) A   18 (A) B      0.0069
     8 (A) A   8 (A) B    9 (A) A   19 (A) B     -0.0068
     6 (A) A   8 (A) B   18 (A) A   10 (A) B      0.0067
     3 (A) A   6 (A) B   10 (A) A   28 (A) B      0.0062
     7 (A) A   8 (A) B   12 (A) A   11 (A) B     -0.0058
     6 (A) A             28 (A) A                -0.0057
     3 (A) A   5 (A) B   10 (A) A   25 (A) B      0.0056
     5 (A) A   8 (A) A   10 (A) A   16 (A) A      0.0056
     3 (A) A   8 (A) A   10 (A) A   18 (A) A      0.0056
    -----------------------------------------------------

  Density matrix analysis:
  ------------------------
  NOs
    Occupation of frontier NOs:
       0.9816   0.9848
    Number of electrons: 16.000000
    Number of unpaired electrons: n_u =  2.28572, n_u,nl =  2.02450
    NO participation ratio (PR_NO):  2.693030
  
  
  Mulliken Population Analysis
  Atom      Charge (e)              h+              e-           Del q
  --------------------------------------------------------------------
   1 H       -0.162868        0.053720       -0.267433       -0.213714
   2 C        0.325448        0.537592       -0.111143        0.426449
   3 H       -0.161407        0.053993       -0.265744       -0.211751
   4 C        0.325061        0.538309       -0.111445        0.426864
   5 H       -0.165601        0.053713       -0.269971       -0.216258
   6 H       -0.160631        0.053955       -0.265545       -0.211589
  --------------------------------------------------------------------
  Sum:        0.000000        1.291281       -1.291281        0.000000
  
  Multipole moment analysis of the density matrix
    Molecular charge:                      0.000000
    Number of electrons:                   16.000000
      Center of electronic charge [Ang]: [ -1.559736,  -0.065102,   0.002032]
    Total nuclear charge:                  16.000000
      Center of nuclear charge [Ang]:    [ -1.559951,  -0.065602,   0.001978]
    Dipole moment [D]:                     0.042069
      Cartesian components [D]:          [ -0.016579,  -0.038439,  -0.004168]
    RMS size of the density [Ang]:         1.276181
      Cartesian components [Ang]:        [  0.854035,   0.840408,   0.439290]
  
  Exciton analysis of the difference density matrix
    <r_h> [Ang]:                  [ -1.560264,  -0.065409,   0.001875]
    <r_e> [Ang]:                  [ -1.557547,  -0.059301,   0.002675]
    |<r_e - r_h>| [Ang]:            0.006732
    Hole size [Ang]:                1.410025
      Cartesian components [Ang]: [  0.833645,   0.819771,   0.788151]
    Electron size [Ang]:            2.074401
      Cartesian components [Ang]: [  1.372055,   1.376038,   0.726032]

  Transition density matrix analysis:
  -----------------------------------
  
  CT numbers (Mulliken)
    omega =     0.9259
    <Phe> =    -0.0109
  
  Exciton analysis of the transition density matrix
    Trans. dipole moment [D]:             0.423670
      Cartesian components [D]:         [ -0.019575,  -0.025460,   0.422451]
    <r_h> [Ang]:                        [ -1.560571,  -0.066232,   0.001724]
    <r_e> [Ang]:                        [ -1.556798,  -0.057268,   0.002913]
    |<r_e - r_h>| [Ang]:                  0.009798
    Hole size [Ang]:                      1.212995
      Cartesian components [Ang]:       [  0.636536,   0.623591,   0.822990]
    Electron size [Ang]:                  2.294160
      Cartesian components [Ang]:       [  1.516182,   1.523246,   0.802549]
    RMS electron-hole separation [Ang]:   2.585204
      Cartesian components [Ang]:       [  1.636884,   1.638982,   1.147880]
    Covariance(r_h, r_e) [Ang^2]:         0.025673
    Correlation coefficient:              0.009225
    Center-of-mass size [Ang]:            1.302485
      Cartesian components [Ang]:       [  0.825923,   0.826454,   0.575580]

  Decomposition into state-averaged NTOs
    H- 0 -> L+ 1: -0.6797 ( 92.4%)
                   omega =  92.6%
  ----------------------------------------------------------------------------


  Excited state 4 (singlet, A)                                     [converged]
  ----------------------------------------------------------------------------
  Term symbol:  5 (1) A                                     R^2 =  4.38155e-13

  Total energy:                                            -77.9583899098 a.u.
  Excitation energy:                                               9.830320 eV

  Osc. strength:                                                      0.000002
  Trans. dip. moment [a.u.]:           [  -0.000590,    0.000340,    0.002583]
  <i|r^2|0> [a.u.]:                    [  -0.021588,   -0.017860,    0.036028]
  Two-photon absorption cross-section (SoS) [a.u.]:                 149.130683
  Two-photon absorption matrix (SoS) [a.u.]:
                                       |   -0.290325   -0.323862    3.025982 |
                                       |   -0.323862   -0.357043    3.010736 |
                                       |    3.025982    3.010736    0.647253 |
  Two-photon absorption cross-section [a.u.]:                        91.844372
  Two-photon absorption matrix [a.u.]:
                                       |   -0.228134   -0.254093    2.363226 |
                                       |   -0.254093   -0.280253    2.374175 |
                                       |    2.363226    2.374175    0.508224 |

  Dip. moment [a.u.]:                  [   0.020592,    0.016964,    0.001513]
  Total dipole [Debye]:                                               0.067922
  <r^2> [a.u.]:                        [ 181.314467,   40.512678,   10.771597]
  Total <r^2> [a.u.]:                                               232.598742

  V1^2 = 0.9635, V2^2 = 0.0365

  Important amplitudes:
      occ i     occ j     vir a      vir b          v   
    -----------------------------------------------------
     8 (A) A             11 (A) A                -0.6693
     7 (A) A              9 (A) A                -0.1516
     8 (A) A             21 (A) A                 0.0780
     8 (A) A             16 (A) A                 0.0643
     8 (A) A   8 (A) B    9 (A) A   13 (A) B     -0.0167
     5 (A) A   8 (A) B   11 (A) A   11 (A) B      0.0155
     8 (A) A   8 (A) B   11 (A) A   17 (A) B     -0.0140
     7 (A) A             20 (A) A                 0.0139
     8 (A) A             12 (A) A                -0.0129
     7 (A) A   8 (A) B   13 (A) A   11 (A) B      0.0127
     5 (A) A   8 (A) A   11 (A) A   21 (A) A      0.0110
     4 (A) A   8 (A) B   12 (A) A   11 (A) B      0.0110
     8 (A) A   8 (A) B    9 (A) A   22 (A) B     -0.0107
     6 (A) A              9 (A) A                -0.0106
     7 (A) A   8 (A) A   11 (A) A   22 (A) A     -0.0096
     6 (A) A   8 (A) B   10 (A) A   11 (A) B     -0.0090
     6 (A) A   8 (A) B   15 (A) A   11 (A) B     -0.0090
     7 (A) A   8 (A) B   22 (A) A   11 (A) B      0.0089
     3 (A) A   4 (A) B   11 (A) A    9 (A) B      0.0083
     3 (A) A   8 (A) B   11 (A) A   18 (A) B      0.0081
     6 (A) A   8 (A) A   11 (A) A   15 (A) A      0.0080
     7 (A) A   8 (A) A   13 (A) A   16 (A) A      0.0078
     7 (A) A   8 (A) A   11 (A) A   13 (A) A     -0.0077
     5 (A) A   8 (A) B   21 (A) A   11 (A) B     -0.0071
     4 (A) A   8 (A) B   19 (A) A   11 (A) B     -0.0070
     5 (A) A   8 (A) B    9 (A) A    9 (A) B      0.0068
     6 (A) A   8 (A) A   11 (A) A   18 (A) A     -0.0063
     4 (A) A   8 (A) A   11 (A) A   12 (A) A     -0.0063
     3 (A) A   6 (A) B   11 (A) A   28 (A) B      0.0060
     6 (A) A   8 (A) B   18 (A) A   11 (A) B      0.0060
     7 (A) A   8 (A) B   16 (A) A   13 (A) B     -0.0057
     3 (A) A   8 (A) A   11 (A) A   18 (A) A      0.0056
     5 (A) A   8 (A) B   10 (A) A   10 (A) B      0.0056
     3 (A) A   8 (A) B   11 (A) A   30 (A) B      0.0055
     3 (A) A   5 (A) B   11 (A) A   25 (A) B      0.0054
     6 (A) A   8 (A) B   11 (A) A   10 (A) B     -0.0054
     7 (A) A   8 (A) B   12 (A) A   10 (A) B     -0.0054
     8 (A) A   8 (A) B   20 (A) A   22 (A) B      0.0053
     3 (A) A   8 (A) A   11 (A) A   24 (A) A      0.0053
     5 (A) A   8 (A) A   11 (A) A   16 (A) A      0.0049
    -----------------------------------------------------

  Density matrix analysis:
  ------------------------
  NOs
    Occupation of frontier NOs:
       0.9398   1.0287
    Number of electrons: 16.000000
    Number of unpaired electrons: n_u =  2.31935, n_u,nl =  2.04979
    NO participation ratio (PR_NO):  2.920226
  
  
  Mulliken Population Analysis
  Atom      Charge (e)              h+              e-           Del q
  --------------------------------------------------------------------
   1 H       -0.141508        0.045671       -0.238024       -0.192353
   2 C        0.273976        0.496331       -0.121355        0.374976
   3 H       -0.131818        0.047451       -0.229613       -0.182162
   4 C        0.273435        0.496691       -0.121454        0.375238
   5 H       -0.125110        0.047398       -0.223165       -0.175767
   6 H       -0.148975        0.045726       -0.245658       -0.199932
  --------------------------------------------------------------------
  Sum:        0.000000        1.179270       -1.179270        0.000000
  
  Multipole moment analysis of the density matrix
    Molecular charge:                      0.000000
    Number of electrons:                   16.000000
      Center of electronic charge [Ang]: [ -1.560632,  -0.066163,   0.001928]
    Total nuclear charge:                  16.000000
      Center of nuclear charge [Ang]:    [ -1.559951,  -0.065602,   0.001978]
    Dipole moment [D]:                     0.067922
      Cartesian components [D]:          [  0.052339,   0.043119,   0.003845]
    RMS size of the density [Ang]:         1.277082
      Cartesian components [Ang]:        [  0.858926,   0.839444,   0.434187]
  
  Exciton analysis of the difference density matrix
    <r_h> [Ang]:                  [ -1.560685,  -0.066046,   0.001803]
    <r_e> [Ang]:                  [ -1.569876,  -0.073757,   0.001265]
    |<r_e - r_h>| [Ang]:            0.012010
    Hole size [Ang]:                1.395249
      Cartesian components [Ang]: [  0.817851,   0.808124,   0.790427]
    Electron size [Ang]:            2.124306
      Cartesian components [Ang]: [  1.443199,   1.403050,   0.679192]

  Transition density matrix analysis:
  -----------------------------------
  
  CT numbers (Mulliken)
    omega =     0.9298
    <Phe> =    -0.0135
  
  Exciton analysis of the transition density matrix
    Trans. dipole moment [D]:             0.003395
      Cartesian components [D]:         [ -0.000750,   0.000433,   0.003283]
    <r_h> [Ang]:                        [ -1.560041,  -0.065624,   0.001798]
    <r_e> [Ang]:                        [ -1.571766,  -0.075278,   0.001135]
    |<r_e - r_h>| [Ang]:                  0.015203
    Hole size [Ang]:                      1.228228
      Cartesian components [Ang]:       [  0.657080,   0.651918,   0.807337]
    Electron size [Ang]:                  2.262074
      Cartesian components [Ang]:       [  1.537488,   1.494188,   0.721464]
    RMS electron-hole separation [Ang]:   2.563390
      Cartesian components [Ang]:       [  1.663529,   1.622453,   1.082260]
    Covariance(r_h, r_e) [Ang^2]:         0.027393
    Correlation coefficient:              0.009860
    Center-of-mass size [Ang]:            1.292315
      Cartesian components [Ang]:       [  0.840247,   0.818983,   0.541599]

  Decomposition into state-averaged NTOs
    H- 0 -> L+ 2:  0.6647 ( 88.4%)
    H- 1 -> L+ 0:  0.1495 (  4.5%)
                   omega =  93.0%
  ----------------------------------------------------------------------------


  Excited state 5 (singlet, A)                                     [converged]
  ----------------------------------------------------------------------------
  Term symbol:  6 (1) A                                     R^2 =  3.72750e-13

  Total energy:                                            -77.9445870235 a.u.
  Excitation energy:                                              10.205916 eV

  Osc. strength:                                                      0.000000
  Trans. dip. moment [a.u.]:           [   0.000052,    0.000032,    0.000526]
  <i|r^2|0> [a.u.]:                    [   0.088860,   -0.103715,    0.015302]
  Two-photon absorption cross-section (SoS) [a.u.]:                 166.891293
  Two-photon absorption matrix (SoS) [a.u.]:
                                       |    0.307211    0.038188   -3.227800 |
                                       |    0.038188   -0.379438    3.212352 |
                                       |   -3.227800    3.212352    0.075867 |
  Two-photon absorption cross-section [a.u.]:                        71.720847
  Two-photon absorption matrix [a.u.]:
                                       |    0.200641    0.023568   -2.095421 |
                                       |    0.023568   -0.249910    2.126253 |
                                       |   -2.095421    2.126253    0.053829 |

[...]
    16   -1.473324862985e-03
    17   -1.746238166793e-03
    18   -1.263472029755e-04
    19   -3.233784892967e-03
    20    1.035238654907e-02
    21    9.267297026497e-01
    22   -3.051332398528e-04
    23    1.385378075080e-02
    24    8.059380979440e-04
    25    7.048527998114e-02
    26   -5.261900399446e-02
    27   -1.399878798113e+00
    28    9.674090993497e-02
    29   -9.438784207524e-02
    30   -1.141649660425e-03
    31    3.779833431657e-01
    32   -3.637843228747e-01
    33   -4.168217510387e-03
    34    1.549994098440e-02
    35   -1.475350552346e-03
    36   -1.758639190335e-03
    37   -2.471000478574e-04
    38   -3.284701878411e-03
    39    1.106854414432e-02
    40    9.347669896970e-01
    41    2.286124738338e-04
    42   -1.391630760142e-02
    43   -8.229239774772e-04
    44    1.043915167917e-02
    45    9.341772015678e-01
    46    1.411462015265e-02
    47    1.565931633332e-04
    48    6.714239436825e-04
Sym=X
Ene= 0.232774
Spin=Alpha
Occup=0
     1   -2.605509012812e-02
     2   -1.227488520253e+00
     3    1.424534193400e-02
     4    3.838276027158e-03
     5    8.986799886382e-04
     6   -3.035862788859e-03
     7    3.767108958603e-03
     8    4.181539068356e-02
     9    1.539073443685e-01
    10    1.588268824943e-01
    11    1.666551032817e-02
    12    5.534076764830e-01
    13    5.559682367324e-01
    14    5.900818697134e-02
    15   -4.586131903016e-04
    16    7.216540393410e-05
    17    4.242951872017e-05
    18    3.564580573456e-04
    19    3.551537439694e-04
    20    2.484269986471e-02
    21    1.157888521439e+00
    22    2.456564968242e-03
    23    1.363861574787e-02
    24    9.239445341495e-04
    25    3.519478163119e-03
    26   -4.135320042173e-03
    27   -5.508705820727e-02
    28    1.551251671753e-01
    29    1.581277497649e-01
    30    1.675554558819e-02
    31    5.589114845708e-01
    32    5.524452426726e-01
    33    5.936617965798e-02
    34    5.744789097217e-04
    35   -8.101945716403e-05
    36   -4.291314800591e-05
    37   -3.933135768060e-04
    38   -4.106262901168e-04
    39   -2.491195676786e-02
    40   -1.150130185391e+00
    41    2.431923643623e-03
    42    1.350022342461e-02
    43    9.199177784818e-04
    44    2.592915953799e-02
    45    1.236442008571e+00
    46    1.438242940354e-02
    47    3.873869257752e-03
    48    9.102100715448e-04
Sym=X
Ene= 0.239568
Spin=Alpha
Occup=0
     1    1.576388462828e-02
     2    1.044076951668e+00
     3   -1.642841685316e-02
     4   -9.107843970285e-03
     5   -1.323380189832e-03
     6    8.659634329885e-02
     7   -7.953114430501e-02
     8   -1.599819018760e+00
     9   -5.257230272413e-02
    10    6.195388278716e-02
    11    1.084167492818e-03
    12   -2.044315499999e-01
    13    2.409312029967e-01
    14    4.154707021998e-03
    15    2.261989381250e-02
    16   -2.615091760664e-03
    17   -2.981138745708e-03
    18    6.789825844991e-04
    19   -1.295077813035e-02
    20    1.713851619384e-02
    21    1.135821722273e+00
    22    8.544927605334e-03
    23    1.797611320582e-02
    24    1.463385468242e-03
    25   -8.645601905521e-02
    26    7.945023244239e-02
    27    1.595016370575e+00
    28   -5.256277513211e-02
    29    6.166612831415e-02
    30    1.335793222483e-03
    31   -2.066013857803e-01
    32    2.363659821615e-01
    33    4.905278686014e-03
    34   -2.252878519526e-02
    35    2.597731435251e-03
    36    2.983696631823e-03
    37   -4.180929391978e-04
    38    1.293824261995e-02
    39   -1.714578408810e-02
    40   -1.127161622021e+00
    41    8.573786405598e-03
    42    1.776570649109e-02
    43    1.471828752357e-03
    44   -1.605478093323e-02
    45   -1.046762501052e+00
    46   -1.650527114194e-02
    47   -9.034044020696e-03
    48   -1.306066958383e-03
Sym=X
Ene= 0.303199
Spin=Alpha
Occup=0
     1   -2.062403841936e-02
     2    1.699113190212e+00
     3   -2.297960470136e-02
     4    1.969147580156e-04
     5   -1.081569414098e-03
     6    1.009379629943e-04
     7    3.474145276298e-04
     8   -1.252380977620e-02
     9   -1.347157464563e-01
    10   -1.395185132367e-01
    11   -1.462576493587e-02
    12   -1.142665176213e+00
    13   -1.197412624978e+00
    14   -1.250113396977e-01
    15    8.344139787578e-05
    16   -1.650997615593e-03
    17    1.812081687859e-03
    18   -3.233283252414e-02
    19   -1.670103236824e-03
    20    1.962838212885e-02
    21   -1.688990306264e+00
    22    1.458953020524e-03
    23   -2.273278725395e-02
    24   -1.269942634114e-03
    25   -2.501172827971e-04
    26    2.612940925984e-04
    27   -9.210658123611e-04
    28    1.344705465853e-01
    29    1.394957956843e-01
    30    1.466188599725e-02
    31    1.147065828510e+00
    32    1.191622706604e+00
    33    1.250432814922e-01
    34   -1.046271457172e-04
    35   -1.583783449612e-03
    36    1.883338518154e-03
    37   -3.228171147729e-02
    38   -1.563302166329e-03
    39    1.931320232844e-02
    40   -1.688560511006e+00
    41   -1.383895611179e-03
    42    2.283155997648e-02
    43    1.296328920764e-03
    44   -2.074098251400e-02
    45    1.694098993747e+00
    46    2.284883512195e-02
    47   -2.246800737577e-04
    48    1.064043336123e-03
Sym=X
Ene= 0.461494
Spin=Alpha
Occup=0
     1   -1.131755552701e-01
     2   -7.147918683063e-01
     3   -1.556262107298e-02
     4   -1.016362432539e-02
     5   -1.334445163437e-03
     6    6.058875157019e-02
     7    1.732354676550e-02
     8   -3.583422229224e+00
     9    1.040364764636e-01
    10   -9.979710792690e-02
    11   -9.751156851829e-04
    12    2.417702328719e+00
    13   -2.294200154114e+00
    14   -2.100127878800e-02
    15    5.335642515323e-02
    16   -3.308900408320e-03
    17   -4.610029823343e-03
    18   -4.498349709906e-04
    19    1.837952917808e-02
    20   -1.200681381099e-01
    21   -7.001264671993e-01
    22    8.501412928092e-03
    23    1.649207156472e-02
    24    1.379669865894e-03
    25   -6.061375084394e-02
    26   -1.738010666828e-02
    27    3.585098208310e+00
    28    1.036112639591e-01
    29   -1.001645784065e-01
    30   -1.176943018651e-03
    31    2.417426153766e+00
    32   -2.294203328274e+00
    33   -2.173865208875e-02
    34   -5.345572911945e-02
    35    3.358130432530e-03
    36    4.615281967664e-03
    37    6.085408609870e-04
    38   -1.833875392217e-02
    39    1.214045021891e-01
    40    6.957490493423e-01
    41    8.387027351206e-03
    42    1.643613004872e-02
    43    1.370186930021e-03
    44    1.128789812714e-01
    45    7.167050283549e-01
    46   -1.561623030576e-02
    47   -1.033543030654e-02
    48   -1.359142331335e-03
Sym=X
Ene= 0.576999
Spin=Alpha
Occup=0
     1   -2.513381549467e-01
     2   -4.685564860728e-02
     3    1.779987307831e-02
     4   -2.555893356995e-02
     5   -6.680448997047e-04
     6    4.877610980840e-03
     7    1.555134285503e-01
     8    4.353503136915e-01
     9   -2.963166882173e-01
    10    2.860083538434e-01
    11    2.914484007020e-03
    12    7.391652127429e-01
    13   -7.152732681167e-01
    14   -7.422630155732e-03
    15    6.828378481332e-03
    16   -3.964340827711e-03
    17   -3.836535163734e-03
    18    4.247297634840e-03
    19   -6.044567818616e-02
    20   -2.550497832144e-01
    21   -3.572982742234e-02
    22    2.701592453818e-02
    23   -1.631417200530e-02
    24    3.154410539505e-04
    25    4.835111850464e-03
    26    1.555609214905e-01
    27    4.375717414852e-01
    28    2.956426702997e-01
    29   -2.869152293982e-01
    30   -2.979806865570e-03
    31   -7.345770877597e-01
    32    7.145482950796e-01
    33    7.764186580767e-03
    34    6.857557654242e-03
    35   -3.934378760715e-03
    36   -3.883502197634e-03
    37    4.921279261627e-03
    38   -6.044263487379e-02
    39   -2.588579550466e-01
    40   -3.017583730214e-02
    41   -2.672170609186e-02
    42    1.606197731813e-02
    43   -3.026870249410e-04
    44   -2.475881730899e-01
    45   -4.901990511368e-02
    46   -1.817520040160e-02
    47    2.590379911601e-02
    48    6.869796479845e-04
Sym=X
Ene= 0.616201
Spin=Alpha
Occup=0
     1    5.226929634236e-01
     2   -1.992480513526e-01
     3    6.191539791163e-02
     4   -3.793835630188e-02
     5    6.987315439748e-04
     6    6.504119146094e-04
     7   -1.099898255436e-03
     8    3.510266555676e-02
     9    3.981567158869e-02
    10    3.878198092755e-02
    11    4.197598040720e-03
    12   -3.113782219096e-01
    13   -2.793772909064e-01
    14   -3.121243663922e-02
    15   -2.120391331394e-03
    16    7.598322441304e-03
    17   -8.322093959563e-03
    18    1.491360726543e-01
    19    5.582734592376e-03
    20   -5.112355981993e-01
    21    2.060512074130e-01
    22   -4.148304604357e-02
    23    5.863236081805e-02
    24    1.500625851593e-03
    25   -8.461816394655e-04
    26   -1.517978533328e-04
    27   -2.464217289608e-02
    28    4.077094148126e-02
    29    3.703646215447e-02
    30    4.118798937824e-03
    31   -3.161654124398e-01
    32   -2.697938375011e-01
    33   -3.106480302826e-02
    34    2.510596363679e-03
    35   -7.525063254629e-03
    36    8.411996328288e-03
    37   -1.492199318290e-01
    38   -5.705183929380e-03
    39    5.077735087473e-01
    40   -2.102052060239e-01
    41   -4.203467309242e-02
    42    5.871041373814e-02
    43    1.515324960878e-03
    44   -5.262902076019e-01
    45    1.994022858358e-01
    46    6.190024508446e-02
    47   -3.752632415101e-02
    48    6.767663007172e-04
Sym=X
Ene= 0.689157
Spin=Alpha
Occup=0
     1    2.553350314375e-04
     2    2.546360275947e-05
     3    1.046801964325e-03
     4    1.267001352171e-03
     5   -2.100913096084e-02
     6    1.760694313889e-05
     7    2.167511176835e-04
     8   -1.917589946800e-05
     9    3.161943837322e-02
    10    3.976201399091e-02
    11   -6.702519520928e-01
    12   -2.918580729689e-02
    13   -3.611823972151e-02
    14    6.133970344935e-01
    15   -1.346941872846e-03
    16    8.271625133170e-02
    17   -7.837502126597e-02
    18   -8.580933319723e-03
    19   -1.130339089730e-03
    20    2.689469636859e-04
    21   -5.619214029504e-05
    22    9.571428783532e-04
    23    1.179713682052e-03
    24   -2.093293291128e-02
    25    7.789259767790e-06
    26    3.086757916833e-04
    27   -2.947348253152e-04
    28    3.181380013086e-02
    29    3.975865939424e-02
    30   -6.703274281881e-01
    31   -2.939733924267e-02
    32   -3.614369599578e-02
    33    6.133535669082e-01
    34    1.172685058656e-03
    35   -8.267759185171e-02
    36    7.835111944423e-02
    37    8.545477331185e-03
    38    1.193591899648e-03
    39    1.140436988431e-04
    40   -3.348465468282e-04
    41    9.897765707050e-04
    42    1.307425214430e-03
    43   -2.066240788556e-02
    44    9.261624702779e-05
    45   -2.530955662515e-04
    46    9.229109114468e-04
    47    1.247602239390e-03
    48   -2.104451454389e-02
Sym=X
Ene= 0.708229
Spin=Alpha
Occup=0
     1   -4.728510693858e-01
     2    1.547184147137e-01
     3   -8.088443796968e-02
     4   -4.371023814699e-02
     5   -6.437893268018e-03
     6   -4.705784455118e-02
     7   -3.209755466816e-01
     8    4.756270756553e-01
     9    2.066004197023e-01
    10   -1.937274390601e-01
    11   -2.009901378052e-03
    12   -8.712189028381e-02
    13    6.872887564689e-02
    14    1.174155906926e-04
    15    1.932511271962e-01
    16   -2.038143194539e-02
    17   -2.369580609827e-02
    18    2.002426271002e-03
    19   -7.632991883881e-02
    20   -4.718718551860e-01
    21    1.411578123421e-01
    22    4.069875643172e-02
    23    8.076425147532e-02
    24    6.686856037712e-03
    25   -4.742620832090e-02
    26   -3.197425011099e-01
    27    4.809516674765e-01
    28   -2.053193006221e-01
    29    1.946211779296e-01
    30    1.510192137688e-03
    31    9.175396747735e-02
    32   -7.428190818762e-02
    33    5.037666569399e-04
    34    1.939349300897e-01
    35   -2.044317879724e-02
    36   -2.385988162427e-02
    37    2.644138753189e-03
    38   -7.654825988431e-02
    39   -4.767880698644e-01
    40    1.486742066732e-01
    41   -4.085355209204e-02
    42   -8.137167866842e-02
    43   -6.768014493245e-03
    44   -4.728797510785e-01
    45    1.561913552849e-01
    46    8.100414739407e-02
    47    4.367058041096e-02
    48    6.427755546698e-03
Sym=X
Ene= 0.784452
Spin=Alpha
Occup=0
     1   -5.276732063935e-01
     2    4.707561851787e-01
     3   -1.097290066172e-01
     4   -2.665900458626e-02
     5   -6.780487665977e-03
     6   -9.137219970970e-02
     7    2.131811353620e-01
     8    6.699454995512e-01
     9   -1.108658639461e-01
    10    1.036461931340e-01
    11    3.097140609171e-04
    12   -3.283239246249e-01
    13    3.057382928523e-01
    14    3.626662734227e-03
    15    2.070905508539e-01
    16   -1.760588118834e-02
    17   -2.198082956112e-02
    18    2.807238681377e-03
    19   -1.067913920636e-02
    20   -5.420997299020e-01
    21    4.767556505210e-01
    22    2.056208820321e-02
    23    1.135439531165e-01
    24    7.679588661255e-03
    25    9.109089552872e-02
    26   -2.163201774920e-01
    27   -6.636354792749e-01
    28   -1.113664283826e-01
    29    1.042484580148e-01
    30    1.396526143505e-03
    31   -3.285865808055e-01
    32    3.071399701390e-01
    33    1.594806251830e-03
    34   -2.060061754180e-01
    35    1.744992939482e-02
    36    2.202848694691e-02
    37   -2.025858467732e-03
    38    1.045160762818e-02
    39    5.404082319232e-01
    40   -4.784855074933e-01
    41    2.071455294986e-02
    42    1.128238417954e-01
    43    7.696432617485e-03
    44    5.255556005634e-01
    45   -4.712328040898e-01
    46   -1.097179288737e-01
    47   -2.613013494680e-02
    48   -6.740216194309e-03
Sym=X
Ene= 0.807987
Spin=Alpha
Occup=0
     1   -3.361474761588e-04
     2    5.021781763423e-04
     3   -1.712751899110e-03
     4   -2.003695877371e-03
     5    3.381293418650e-02
     6   -6.807814041668e-05
     7    2.137784731433e-04
     8    8.801461287675e-05
     9   -3.627161887025e-02
    10   -4.496516698190e-02
    11    7.631549138353e-01
    12    5.315310126063e-02
    13    6.676007185465e-02
    14   -1.127070510435e+00
    15   -8.101121752936e-04
    16    6.522943346686e-02
    17   -6.189426407077e-02
    18   -6.788098546044e-03
    19   -8.835900068627e-04
    20   -3.461746756100e-04
    21    2.783634329153e-04
    22   -1.655624365678e-03
    23   -1.953159709057e-03
    24    3.449670656682e-02
    25    6.093306385972e-05
    26   -5.982971961368e-05
    27   -1.669944822664e-04
    28    3.600202301190e-02
    29    4.551558286896e-02
    30   -7.631311490354e-01
    31   -5.360415122724e-02
    32   -6.682045975235e-02
    33    1.126966436697e+00
    34   -1.197669342717e-03
    35    6.527065764916e-02
    36   -6.185445172902e-02
    37   -6.729611213927e-03
    38   -9.625655817429e-04
    39    3.413660305504e-04
    40   -3.293739581880e-04
    41    1.593352851118e-03
    42    2.170380669481e-03
    43   -3.439034377453e-02
    44    3.368631406235e-04
    45   -5.399350143458e-04
    46    1.445231335391e-03
    47    2.010875271669e-03
    48   -3.370073300149e-02
Sym=X
Ene= 0.862222
Spin=Alpha
Occup=0
     1    1.182741651292e-02
     2   -1.092543250512e+00
     3    1.483348166680e-01
     4    5.653216863870e-02
     5    1.036589663824e-02
     6    3.941250098852e-04
     7   -3.365075044656e-03
     8    4.618414508658e-03
     9   -4.050075587959e-01
    10   -4.299012447490e-01
    11   -4.454034072105e-02
    12    9.447218671809e-01
    13    1.003049319923e+00
    14    1.039182931485e-01
    15   -1.066952814273e-03
    16    1.170367499311e-02
    17   -1.343986838509e-02
    18    2.349884576344e-01
    19    8.665592808640e-03
    20   -1.063164465238e-02
    21    1.101919987579e+00
    22    5.057521502807e-02
    23    1.507998371496e-01
    24    1.132556464460e-02
    25   -5.720366256917e-04
    26    2.001452677257e-04
    27   -2.749189492990e-03
    28   -4.070918128190e-01
    29   -4.312563759508e-01
    30   -4.496913042613e-02
    31    9.501251241284e-01
    32    1.003444371943e+00
    33    1.047637502477e-01
    34    1.836420982620e-03
    35   -1.170562137709e-02
    36    1.343057902790e-02
    37   -2.351449084440e-01
    38   -7.880737823586e-03
    39    1.144604892993e-02
    40   -1.104429166363e+00
    41    5.105177721124e-02
    42    1.512835033237e-01
    43    1.143940412999e-02
    44   -1.337930842218e-02
    45    1.094977424266e+00
    46    1.488322503528e-01
    47    5.619839361685e-02
    48    1.034552354363e-02
Sym=X
Ene= 0.935781
Spin=Alpha
Occup=0
     1    1.139815802775e-01
     2   -1.289539441067e+00
     3    1.815809935347e-01
     4   -4.820682563271e-03
     5    8.345537553800e-03
     6   -1.283983792392e-04
     7    4.933616725869e-03
     8   -9.347535473058e-03
     9   -4.769533345207e-01
    10   -4.967169939223e-01
    11   -5.198967429800e-02
    12    1.481380976970e+00
    13    1.531849246505e+00
    14    1.608412908730e-01
    15    1.091476117321e-03
    16    5.901208280556e-03
    17   -6.923435454534e-03
    18    1.199569290516e-01
    19    4.298258231170e-03
    20   -1.166820517578e-01
    21    1.283735133556e+00
    22   -1.195846414252e-02
    23    1.825857621096e-01
    24    1.019909467721e-02
    25    2.556700283033e-04
    26    8.037515520011e-03
    27   -3.583220069631e-03
    28    4.704512595808e-01
    29    5.007120694600e-01
    30    5.200269541759e-02
    31   -1.462391839344e+00
    32   -1.543383223510e+00
    33   -1.608658176936e-01
    34    5.134105413084e-04
    35    5.514170891771e-03
    36   -7.211909423964e-03
    37    1.188767060939e-01
    38   -3.628283615265e-04
    39   -1.174927782642e-01
    40    1.290182253447e+00
    41    1.037275077770e-02
    42   -1.831776755944e-01
    43   -1.040882328040e-02
    44    1.126266680664e-01
    45   -1.273307814089e+00
    46   -1.798089145468e-01
    47    6.415807990403e-03
    48   -8.121673168843e-03
Sym=X
Ene= 0.972105
Spin=Alpha
Occup=0
     1   -6.554034390693e-02
     2    9.077436822404e-01
     3   -8.824144319365e-02
     4   -9.785245012315e-02
     5   -9.991639295222e-03
     6    2.539364846945e-02
     7    2.401160898787e-01
     8    5.420706322442e-01
     9    4.768736154577e-01
    10   -4.573922703295e-01
    11   -4.369520212469e-03
    12   -1.475680815137e+00
    13    1.420971911291e+00
    14    1.387479053118e-02
    15   -5.434176939550e-02
    16   -1.277969585302e-02
    17   -9.551594228093e-03
    18    1.332933823288e-02
    19   -3.008733812231e-01
    20   -6.016079711597e-02
    21    9.110041527927e-01
    22    9.477447228667e-02
    23    9.233412916669e-02
    24    9.943438954453e-03
    25   -2.547297825176e-02
    26   -2.460522461803e-01
    27   -5.321554949900e-01
    28    4.834942640759e-01
    29   -4.521747840682e-01
    30   -4.143466364292e-03
    31   -1.502436984012e+00
    32    1.396753978467e+00
    33    1.226549263437e-02
    34    5.467096622437e-02
    35    1.285647243688e-02
    36    9.455535467392e-03
    37   -1.140597277166e-02
    38    3.015306712874e-01
    39    6.131903776066e-02
    40   -8.941511037978e-01
    41    9.531557960533e-02
    42    9.028958529007e-02
    43    9.933484862622e-03
    44    6.466178877693e-02
    45   -9.313207196180e-01
    46   -9.137046054474e-02
    47   -9.785492601692e-02
    48   -1.006672126197e-02
[5D]

======= END OF MOLDEN-FORMATTED INPUT FILE =======


        *************************************************************
        *                                                           *
        *  Thank you very much for using Q-Chem.  Have a nice day.  *
        *                                                           *
        *************************************************************


