                  Welcome to Q-Chem
     A Quantum Leap Into The Future Of Chemistry


 Q-Chem 5.4 (devel), Q-Chem, Inc., Pleasanton, CA (2021)

 E. Epifanovsky,  A. T. B. Gilbert,  Xintian Feng,  Joonho Lee,  Yuezhi Mao,  
 N. Mardirossian,  P. Pokhilko,  A. White,  M. Wormit,  M. P. Coons,  
 A. L. Dempwolff,  Zhengting Gan,  D. Hait,  P. R. Horn,  L. D. Jacobson,  
 I. Kaliman,  J. Kussmann,  A. W. Lange,  Ka Un Lao,  D. S. Levine,  Jie Liu,  
 S. C. McKenzie,  A. F. Morrison,  K. Nanda,  F. Plasser,  D. R. Rehn,  
 M. L. Vidal,  Zhi-Qiang You,  Ying Zhu,  B. Alam,  B. Albrecht,  
 A. Aldossary,  E. Alguire,  J. H. Andersen,  D. Barton,  K. Begam,  A. Behn,  
 Y. A. Bernard,  E. J. Berquist,  H. Burton,  A. Carreras,  K. Carter-Fenk,  
 R. Chakraborty,  A. D. Chien,  K. D. Closser,  V. Cofer-Shabica,  
 S. Dasgupta,  Jia Deng,  M. de Wergifosse,  M. Diedenhofen,  Hainam Do,  
 S. Ehlert,  Po-Tung Fang,  S. Fatehi,  Qingguo Feng,  T. Friedhoff,  
 J. Gayvert,  Qinghui Ge,  G. Gidofalvi,  M. Goldey,  J. Gomes,  
 C. Gonzalez-Espinoza,  S. Gulania,  A. Gunina,  M. W. D. Hanson-Heine,  
 P. H. P. Harbach,  A. W. Hauser,  M. F. Herbst,  M. Hernandez Vera,  
 M. Hodecker,  Z. C. Holden,  S. Houck,  Xunkun Huang,  Kerwin Hui,  
 B. C. Huynh,  M. Ivanov,  Hyunjun Ji,  Hanjie Jiang,  B. Kaduk,  S. Kaehler,  
 K. Khistyaev,  Jaehoon Kim,  P. Klunzinger,  Z. Koczor-Benda,  
 Joong Hoon Koh,  D. Kosenkov,  L. Koulias,  T. Kowalczyk,  C. M. Krauter,  
 K. Kue,  A. Kunitsa,  T. Kus,  A. Landau,  K. V. Lawler,  D. Lefrancois,  
 S. Lehtola,  Rain Li,  Yi-Pei Li,  Jiashu Liang,  M. Liebenthal,  
 Hung-Hsuan Lin,  You-Sheng Lin,  Fenglai Liu,  Kuan-Yu Liu,  
 M. Loipersberger,  A. Luenser,  A. Manjanath,  P. Manohar,  E. Mansoor,  
 S. F. Manzer,  Shan-Ping Mao,  A. V. Marenich,  T. Markovich,  S. Mason,  
 S. A. Maurer,  P. F. McLaughlin,  M. F. S. J. Menger,  J.-M. Mewes,  
 S. A. Mewes,  P. Morgante,  J. W. Mullinax,  K. J. Oosterbaan,  G. Paran,  
 Alexander C. Paul,  Suranjan K. Paul,  F. Pavosevic,  Zheng Pei,  S. Prager,  
 E. I. Proynov,  E. Ramos,  B. Rana,  A. E. Rask,  A. Rettig,  R. M. Richard,  
 F. Rob,  E. Rossomme,  T. Scheele,  M. Scheurer,  M. Schneider,  
 N. Sergueev,  S. M. Sharada,  W. Skomorowski,  D. W. Small,  C. J. Stein,  
 Yu-Chuan Su,  E. J. Sundstrom,  Zhen Tao,  J. Thirman,  T. Tsuchimochi,  
 N. M. Tubman,  S. P. Veccham,  O. Vydrov,  J. Wenzel,  J. Witte,  A. Yamada,  
 Kun Yao,  S. Yeganeh,  S. R. Yost,  A. Zech,  Igor Ying Zhang,  Xing Zhang,  
 Yu Zhang,  D. Zuev,  A. Aspuru-Guzik,  A. T. Bell,  N. A. Besley,  
 K. B. Bravaya,  B. R. Brooks,  D. Casanova,  Jeng-Da Chai,  S. Coriani,  
 C. J. Cramer,  A. E. DePrince, III,  R. A. DiStasio Jr.,  A. Dreuw,  
 B. D. Dunietz,  T. R. Furlani,  W. A. Goddard III,  S. Grimme,  
 S. Hammes-Schiffer,  T. Head-Gordon,  W. J. Hehre,  Chao-Ping Hsu,  
 T.-C. Jagau,  Yousung Jung,  A. Klamt,  Jing Kong,  D. S. Lambrecht,  
 WanZhen Liang,  N. J. Mayhall,  C. W. McCurdy,  J. B. Neaton,  
 C. Ochsenfeld,  J. A. Parkhill,  R. Peverati,  V. A. Rassolov,  Yihan Shao,  
 L. V. Slipchenko,  T. Stauch,  R. P. Steele,  J. E. Subotnik,  
 A. J. W. Thom,  A. Tkatchenko,  D. G. Truhlar,  T. Van Voorhis,  
 T. A. Wesolowski,  K. B. Whaley,  H. L. Woodcock III,  P. M. Zimmerman,  
 S. Faraji,  P. M. W. Gill,  M. Head-Gordon,  J. M. Herbert,  A. I. Krylov

 Additional authors for Version 5.4.1: 
 S. Kotaru,  Shaozhi Li,  Xiangyuan Li,  F. Matz,  A. Molle,  Haisheng Ren,  
 Yingli Su,  Hung-Yi Tsai,  C. Utku,  Fang Wang

 Contributors to earlier versions of Q-Chem not listed above: 
 R. D. Adamson,  B. Austin,  R. Baer,  J. Baker,  G. J. O. Beran,  
 K. Brandhorst,  S. T. Brown,  E. F. C. Byrd,  A. K. Chakraborty,  
 G. K. L. Chan,  Chun-Min Chang,  Yunqing Chen,  C.-L. Cheng,  
 Siu Hung Chien,  D. M. Chipman,  D. L. Crittenden,  H. Dachsel,  
 R. J. Doerksen,  A. D. Dutoi,  R. G. Edgar,  J. Fosso-Tande,  
 L. Fusti-Molnar,  D. Ghosh,  A. Ghysels,  A. Golubeva-Zadorozhnaya,  
 J. Gonthier,  M. S. Gordon,  S. R. Gwaltney,  G. Hawkins,  J. E. Herr,  
 A. Heyden,  S. Hirata,  E. G. Hohenstein,  G. Kedziora,  F. J. Keil,  
 C. Kelley,  Jihan Kim,  R. A. King,  R. Z. Khaliullin,  P. P. Korambath,  
 W. Kurlancheek,  A. Laurent,  A. M. Lee,  M. S. Lee,  S. V. Levchenko,  
 Ching Yeh Lin,  D. Liotard,  E. Livshits,  R. C. Lochan,  I. Lotan,  
 L. A. Martinez-Martinez,  P. E. Maslen,  N. Nair,  D. P. O'Neill,  
 D. Neuhauser,  E. Neuscamman,  C. M. Oana,  R. Olivares-Amaya,  R. Olson,  
 T. M. Perrine,  B. Peters,  P. A. Pieniazek,  A. Prociuk,  Y. M. Rhee,  
 J. Ritchie,  M. A. Rohrdanz,  E. Rosta,  N. J. Russ,  H. F. Schaefer III,  
 M. W. Schmidt,  N. E. Schultz,  S. Sharma,  N. Shenvi,  C. D. Sherrill,  
 A. C. Simmonett,  A. Sodt,  T. Stein,  D. Stuck,  K. S. Thanthiriwatte,  
 V. Vanovschi,  L. Vogt,  Tao Wang,  A. Warshel,  M. A. Watson,  
 C. F. Williams,  Q. Wu,  X. Xu,  Jun Yang,  W. Zhang,  Yan Zhao

 Please cite Q-Chem as follows:
 Y. Shao et al., Mol. Phys. 113, 184-215 (2015)
 DOI: 10.1080/00268976.2014.952696

 Q-Chem 5.4.1 for Intel X86 EM64T Linux

 Parts of Q-Chem use Armadillo 9.800.1 (Horizon Scraper).
 http://arma.sourceforge.net/

 Q-Chem begins on Thu Nov 17 15:41:06 2022  

 Host: cpu197.baobab
0

     Scratch files written to /scratch/fum/qchem4297//
 Processing $rem in /home/share/wesolowski/qc5.aug2021.FDE/config/preferences:
 Processing $rem in /home/fum/.qchemrc:

 Checking the input file for inconsistencies... 	...done.

--------------------------------------------------------------
User input:
--------------------------------------------------------------
$comment
generated from CCJob.Templates
$end

$rem
sym_ignore = true
method = adc(2)
ee_states = 10
basis = cc-pVDZ
mem_static = 1024
mem_total = 40000
adc_davidson_maxiter = 900
adc_davidson_conv = 6
adc_print = 3
adc_prop_es = true
adc_prop_es2es = true
adc_prop_tpa = true
molden_format = True
state_analysis = true
print_orbitals = 15
gen_scfman = false
fde_export_density = true
fde_details = 3
$end

$molecule
0 1
H -0.0348278765 -0.2442097827 0.0636489606
C -1.0765972949 -0.5242748755 -0.0023551776
H -1.313264467 -1.5767591607 -0.0757276926
C -2.043634118 0.3926884087 0.0061254933
H -1.8137616575 1.4459188338 0.0904456828
H -3.085977293 0.114931858 -0.0593381042                     
$end
--------------------------------------------------------------
 ----------------------------------------------------------------
             Standard Nuclear Orientation (Angstroms)
    I     Atom           X                Y                Z
 ----------------------------------------------------------------
    1      H      -0.0348278765    -0.2442097827     0.0636489606
    2      C      -1.0765972949    -0.5242748755    -0.0023551776
    3      H      -1.3132644670    -1.5767591607    -0.0757276926
    4      C      -2.0436341180     0.3926884087     0.0061254933
    5      H      -1.8137616575     1.4459188338     0.0904456828
    6      H      -3.0859772930     0.1149318580    -0.0593381042
 ----------------------------------------------------------------
 Nuclear Repulsion Energy =          33.42119949 hartrees
 There are        8 alpha and        8 beta electrons
 Requested basis set is cc-pVDZ
 There are 24 shells and 48 basis functions
 Total memory of 40000 MB is distributed as follows: 
   MEM_STATIC is set to 1024 MB
   QALLOC/CCMAN JOB total memory use is  38976 MB
 Warning: actual memory use might exceed 40000 MB

 Total QAlloc Memory Limit  40000 MB
 Mega-Array Size      1001 MB
 MEM_STATIC part      1024 MB

                       Distance Matrix (Angstroms)
             H (  1)   C (  2)   H (  3)   C (  4)   H (  5)
   C (  2)  1.080776
   H (  3)  1.851895  1.081258
   C (  4)  2.108139  1.332687  2.102109
   H (  5)  2.453947  2.105632  3.068337  1.081317
   H (  6)  3.074674  2.109370  2.450428  1.080700  1.847294

 A cutoff of  1.0D-11 yielded    300 shell pairs
 There are      1220 function pairs (      1329 Cartesian)
 Smallest overlap matrix eigenvalue = 4.80E-03

 Scale SEOQF with 1.000000e-01/1.000000e-01/1.000000e+00

 Standard Electronic Orientation quadrupole field applied
 Nucleus-field energy     =     0.0000000022 hartrees
 Guess from superposition of atomic densities
 Warning:  Energy on first SCF cycle will be non-variational
 SAD guess density has 16.000000 electrons
 A restricted Hartree-Fock SCF calculation will be
 performed using Pulay DIIS extrapolation
 SCF converges when DIIS error is below 1.0E-08
 using 10 threads for integral computing
 -------------------------------------------------------
 OpenMP Integral computing Module                
 Release: version 1.0, May 2013, Q-Chem Inc. Pittsburgh 
 -------------------------------------------------------
 ---------------------------------------
  Cycle       Energy         DIIS Error
 ---------------------------------------
    1     -78.4383202966      1.01E-01
    2     -78.0176869228      7.21E-03
    3     -78.0383169464      1.84E-03
    4     -78.0397998057      5.73E-04
    5     -78.0399214062      5.79E-05
    6     -78.0399232814      9.27E-06
    7     -78.0399233418      2.10E-06
    8     -78.0399233446      7.26E-07
    9     -78.0399233448      9.39E-08
   10     -78.0399233448      9.60E-09 Convergence criterion met
 ---------------------------------------
 SCF time:  CPU 1.41 s  wall 2.79 s
 SCF   energy in the final basis set = -78.03992334
 Total energy in the final basis set = -78.03992334
Exporting Density Matrix to file 'Densmat_SCF.txt'.
Export successful
================================================================================
|                                                                              |
|                                 A D C  M A N                                 |
|                                                                              |
 ------------------------------------------------------------------------------ 
|                                                                              |
| Components:                                                                  |
|                                                                              |
| - libvmm - 1.3-trunk                                                         |
|   Authors:                                                                   |
|   Evgeny Epifanovsky, Ilya Kaliman                                           |
|                                                                              |
| - libtensor - 2.5-trunk                                                      |
|   Authors:                                                                   |
|   Evgeny Epifanovsky, Michael Wormit, Dmitry Zuev, Sam Manzer,               |
|   Ilya Kaliman                                                               |
|                                                                              |
| - libwfa - 1.1-trunk                                                         |
|   Authors:                                                                   |
|   Felix Plasser, Stefanie Mewes (Baeppler), Benjamin Thomitzni,              |
|   Michael Wormit, Feng Chen, Anna I. Krylov, Pavel Pokhilko                  |
|                                                                              |
| - libadc - 1.1-trunk                                                         |
|   Authors:                                                                   |
|   Michael Wormit, Adrian L. Dempwolff, Philipp H. P. Harbach,                |
|   Caroline Krauter, Dirk Rehn, Matthias Schneider, Jan Wenzel                |
|                                                                              |
| - adcman - 2.6-trunk                                                         |
|   Authors:                                                                   |
|   Michael Wormit, Adrian L. Dempwolff, Philipp H. P. Harbach,                |
|   Caroline Krauter, Daniel Lefrancois, Jan-Michael Mewes, Dirk Rehn,         |
|   Matthias Schneider, Jan Wenzel, Andreas Dreuw                              |
|                                                                              |
| Authors of earlier versions of ADCMAN:                                       |
| Andreas Dreuw, Jan Hendrik Starcke, Dirk Rehn, Michael Wormit                |
|                                                                              |
================================================================================

 Created directory /scratch/fum/qchem4297/plots
  Import QC data ...  CPU 0.00 s  wall 0.00 s

 Alpha MOs, Restricted
 -- Occupied --                  
-11.235 -11.233  -1.032  -0.790  -0.641  -0.582  -0.505  -0.374
  1 A     2 A     3 A     4 A     5 A     6 A     7 A     8 A                  
 -- Virtual --                   
  0.168   0.204   0.233   0.239   0.303   0.462   0.577   0.615
  9 A    10 A    11 A    12 A    13 A    14 A    15 A    16 A                  
  0.689   0.709   0.784   0.808   0.862   0.936   0.972   1.010
 17 A    18 A    19 A    20 A    21 A    22 A    23 A    24 A                  
  1.130   1.235   1.254   1.266   1.294   1.601   1.726   1.750
 25 A    26 A    27 A    28 A    29 A    30 A    31 A    32 A                  
  1.819   1.859   1.867   1.921   1.977   1.978   2.221   2.257
 33 A    34 A    35 A    36 A    37 A    38 A    39 A    40 A                  
  2.376   2.454   2.506   2.633   2.721   2.821   3.140   3.398
 41 A    42 A    43 A    44 A    45 A    46 A    47 A    48 A                  

 Beta MOs, Restricted
 -- Occupied --                  
-11.235 -11.233  -1.032  -0.790  -0.641  -0.582  -0.505  -0.374
  1 A     2 A     3 A     4 A     5 A     6 A     7 A     8 A                  
 -- Virtual --                   
  0.168   0.204   0.233   0.239   0.303   0.462   0.577   0.615
  9 A    10 A    11 A    12 A    13 A    14 A    15 A    16 A                  
  0.689   0.709   0.784   0.808   0.862   0.936   0.972   1.010
 17 A    18 A    19 A    20 A    21 A    22 A    23 A    24 A                  
  1.130   1.235   1.254   1.266   1.294   1.601   1.726   1.750
 25 A    26 A    27 A    28 A    29 A    30 A    31 A    32 A                  
  1.819   1.859   1.867   1.921   1.977   1.978   2.221   2.257
 33 A    34 A    35 A    36 A    37 A    38 A    39 A    40 A                  
  2.376   2.454   2.506   2.633   2.721   2.821   3.140   3.398
 41 A    42 A    43 A    44 A    45 A    46 A    47 A    48 A                  
  Import AO data ...  CPU 0.00 s  wall 0.00 s
  Using point group: C1
  Irreducible representations in point group: A
  Molecular orbitals: 
  Occupied MOs:
  Block   0:   1 (  A) A   2 (  A) A   3 (  A) A   4 (  A) A   5 (  A) A
                  -11.24      -11.23      -1.032     -0.7897     -0.6411
               6 (  A) A   7 (  A) A   8 (  A) A
                 -0.5819     -0.5046      -0.374
  Block   1:   1 (  A) B   2 (  A) B   3 (  A) B   4 (  A) B   5 (  A) B
                  -11.24      -11.23      -1.032     -0.7897     -0.6411
               6 (  A) B   7 (  A) B   8 (  A) B
                 -0.5819     -0.5046      -0.374
  Virtual MOs:
  Block   0:   9 (  A) A  10 (  A) A  11 (  A) A  12 (  A) A  13 (  A) A
                  0.1684      0.2036      0.2329      0.2394      0.3033
              14 (  A) A  15 (  A) A  16 (  A) A  17 (  A) A  18 (  A) A
                   0.462      0.5775      0.6152      0.6891      0.7088
              19 (  A) A  20 (  A) A  21 (  A) A  22 (  A) A
                  0.7844       0.808      0.8622      0.9358
  Block   1:  23 (  A) A  24 (  A) A  25 (  A) A  26 (  A) A  27 (  A) A
                  0.9724        1.01        1.13       1.235       1.254
              28 (  A) A  29 (  A) A  30 (  A) A  31 (  A) A  32 (  A) A
                   1.266       1.294       1.601       1.726        1.75
              33 (  A) A  34 (  A) A  35 (  A) A  36 (  A) A
                   1.819       1.859       1.867       1.921
  Block   2:  37 (  A) A  38 (  A) A  39 (  A) A  40 (  A) A  41 (  A) A
                   1.977       1.978       2.221       2.257       2.376
              42 (  A) A  43 (  A) A  44 (  A) A  45 (  A) A  46 (  A) A
                   2.454       2.506       2.633       2.721       2.821
              47 (  A) A  48 (  A) A
                    3.14       3.398
  Block   3:   9 (  A) B  10 (  A) B  11 (  A) B  12 (  A) B  13 (  A) B
                  0.1684      0.2036      0.2329      0.2394      0.3033
              14 (  A) B  15 (  A) B  16 (  A) B  17 (  A) B  18 (  A) B
                   0.462      0.5775      0.6152      0.6891      0.7088
              19 (  A) B  20 (  A) B  21 (  A) B  22 (  A) B
                  0.7844       0.808      0.8622      0.9358
  Block   4:  23 (  A) B  24 (  A) B  25 (  A) B  26 (  A) B  27 (  A) B
                  0.9724        1.01        1.13       1.235       1.254
              28 (  A) B  29 (  A) B  30 (  A) B  31 (  A) B  32 (  A) B
                   1.266       1.294       1.601       1.726        1.75
              33 (  A) B  34 (  A) B  35 (  A) B  36 (  A) B
                   1.819       1.859       1.867       1.921
  Block   5:  37 (  A) B  38 (  A) B  39 (  A) B  40 (  A) B  41 (  A) B
                   1.977       1.978       2.221       2.257       2.376
              42 (  A) B  43 (  A) B  44 (  A) B  45 (  A) B  46 (  A) B
                   2.454       2.506       2.633       2.721       2.821
              47 (  A) B  48 (  A) B
                    3.14       3.398
  Import MO data ...  CPU 0.01 s  wall 0.00 s
  Import HF data ...  CPU 0.08 s  wall 0.03 s
  Import 2e integrals ...  CPU 0.67 s  wall 0.13 s

--------------------------------------------------------------------------------
                                   HF Summary                                   
--------------------------------------------------------------------------------
  Energy:                                                  -78.0399233448 a.u.
  Dip. moment [a.u.]:                  [  -0.000805,    0.000320,    0.003184]
  Total dipole [Debye]:                                               0.008387
  <r^2> [a.u.]:                        [ 175.319543,   34.920479,   11.631568]
  Total <r^2> [a.u.]:                                               221.871591
--------------------------------------------------------------------------------
  HF properties ...  CPU 0.01 s  wall 0.01 s
  MP(1) calculation ...  CPU 0.01 s  wall 0.00 s
  N^6 prerequesite intermediates ...  CPU 0.51 s  wall 0.07 s
  Difference density matrix of state mp2_gs printed to ASCII file 'State_mp2_gs_Difference.txt'
Exporting MP density matrix to file 'Densmat_MP.txt'.
Export successful
  Total density matrix of state mp2_gs printed to ASCII file 'State_mp2_gs_Total.txt'
Exporting MP density matrix to file 'Densmat_MP.txt'.
Export successful

--------------------------------------------------------------------------------
                                 MP(2) Summary                                  
--------------------------------------------------------------------------------
  MP energy contribution:                                   -0.2797157054 a.u.
  Total energy:                                            -78.3196390501 a.u.
  Dip. moment [a.u.]:                  [  -0.000783,    0.000242,    0.003139]
  Total dipole [Debye]:                                               0.008246
  <r^2> [a.u.]:                        [ 175.366284,   34.960899,   11.463433]
  Total <r^2> [a.u.]:                                               221.790616

  Density matrix analysis:
  ------------------------
  NOs
    Occupation of frontier NOs:
       0.0453   1.9383
    Number of electrons: 16.000000
    Number of unpaired electrons: n_u =  0.40348, n_u,nl =  0.04509
    NO participation ratio (PR_NO): 13.858089
  
  
  Mulliken Population Analysis
  Atom      Charge (e)              h+              e-           Del q
  --------------------------------------------------------------------
   1 H        0.050956        0.014032       -0.011202        0.002830
   2 C       -0.100665        0.093211       -0.098848       -0.005637
   3 H        0.050546        0.014075       -0.011191        0.002884
   4 C       -0.101754        0.093036       -0.098920       -0.005883
   5 H        0.050324        0.014110       -0.011188        0.002922
   6 H        0.050593        0.014079       -0.011194        0.002885
  --------------------------------------------------------------------
  Sum:       -0.000000        0.242544       -0.242544        0.000000
  
  Multipole moment analysis of the density matrix
    Molecular charge:                      -0.000000
    Number of electrons:                   16.000000
      Center of electronic charge [Ang]: [ -1.560550,  -0.065610,   0.002499]
    Total nuclear charge:                  16.000000
      Center of nuclear charge [Ang]:    [ -1.560576,  -0.065602,   0.002603]
    Dipole moment [D]:                     0.008246
      Cartesian components [D]:          [ -0.001990,   0.000616,   0.007979]
    RMS size of the density [Ang]:         1.200876
      Cartesian components [Ang]:        [  0.796182,   0.779470,   0.447911]
  
  Exciton analysis of the difference density matrix
    <r_h> [Ang]:                  [ -1.560437,  -0.065719,   0.001985]
    <r_e> [Ang]:                  [ -1.560486,  -0.065550,   0.002082]
    |<r_e - r_h>| [Ang]:            0.000201
    Hole size [Ang]:                1.393779
      Cartesian components [Ang]: [  0.846646,   0.834288,   0.727855]
    Electron size [Ang]:            1.359779
      Cartesian components [Ang]: [  0.877851,   0.861815,   0.579355]
--------------------------------------------------------------------------------
  MP(2) calculation ...  CPU 0.13 s  wall 0.11 s
  Start ADC(2)-s ...  CPU 0.01 s  wall 0.00 s
  ADC(2) intermediates ...  CPU 0.02 s  wall 0.01 s
  Starting Davidson for singlet states of irrep A ... 
--------------------------------------------------------------------------------
   It NVec Conv  Avg. Norm  Max. Norm  Conv. states           Remark
--------------------------------------------------------------------------------
        10    0  1.330e-01  4.687e-01  0.4119 n n n n n n n n Guess.
    1   20    0  2.305e-02  1.109e-01  0.3262 n n n n n n n n 
    2   30    0  5.895e-03  2.554e-02  0.3215 n n n n n n n n 
    3   40    0  2.048e-03  1.277e-02  0.3211 n n n n n n n n 
    4   50    0  5.506e-04  3.402e-03  0.3211 n n n n n n n n 
    5   20    0  2.649e-04  1.763e-03  0.3211 n n n n n n n n Subspace collapsed.
    6   30    0  1.600e-04  1.267e-03  0.3211 n n n n n n n n 
    7   40    0  1.350e-04  1.046e-03  0.3211 n n n n n n n n 
    8   50    0  1.329e-04  1.211e-03  0.3211 n n n n n n n n 
    9   20    1  6.424e-05  5.021e-04  0.3211 n y n n n n n n Subspace collapsed.
   10   30    3  5.396e-05  4.119e-04  0.3211 n y y y n n n n 
   11   40    4  3.064e-05  2.682e-04  0.3211 n y y y y n n n 
   12   50    6  3.607e-05  3.518e-04  0.3211 y y y y y y n n 
   13   20    6  2.132e-05  2.090e-04  0.3211 y y y y y y n n Subspace collapsed.
   14   30    6  2.623e-05  2.585e-04  0.3211 y y y y y y n n 
   15   40    6  2.163e-05  2.145e-04  0.3211 y y y y y y n n 
   16   50    6  2.929e-05  2.917e-04  0.3211 y y y y y y n n 
   17   20    6  1.353e-05  1.348e-04  0.3211 y y y y y y n n Subspace collapsed.
   18   30    6  1.356e-05  1.351e-04  0.3211 y y y y y y n n 
   19   40    7  7.347e-06  7.325e-05  0.3211 y y y y y y y n 
   20   50    7  9.873e-06  9.854e-05  0.3211 y y y y y y y n 
   21   20    8  5.256e-06  5.246e-05  0.3211 y y y y y y y y Subspace collapsed.
   22   30    8  7.228e-06  7.217e-05  0.3211 y y y y y y y y 
   23   40    8  7.510e-06  7.502e-05  0.3211 y y y y y y y y 
   24   49    8  8.781e-06  8.776e-05  0.3211 y y y y y y y y 
   25   50    8  8.548e-06  8.544e-05  0.3211 y y y y y y y y 
   26   17    8  3.376e-06  3.375e-05  0.3211 y y y y y y y y Subspace collapsed.
   27   23    8  3.549e-06  3.548e-05  0.3211 y y y y y y y y 
   28   29    9  1.743e-06  1.742e-05  0.3211 y y y y y y y y 
   29   35    9  2.527e-06  2.527e-05  0.3211 y y y y y y y y 
   30   40    9  3.146e-06  3.145e-05  0.3211 y y y y y y y y 
   31   40    9  3.146e-06  3.145e-05  0.3211 y y y y y y y y 
   32   50    9  1.887e-06  1.887e-05  0.3211 y y y y y y y y 
   33   14    9  7.581e-07  7.580e-06  0.3211 y y y y y y y y Subspace collapsed.
   34   18    9  4.615e-07  4.615e-06  0.3211 y y y y y y y y 
   35   22    9  2.321e-07  2.321e-06  0.3211 y y y y y y y y 
   36   26    9  2.368e-07  2.368e-06  0.3211 y y y y y y y y 
   37   30    9  1.824e-07  1.824e-06  0.3211 y y y y y y y y 
   38   34    9  2.130e-07  2.130e-06  0.3211 y y y y y y y y 
   39   38    9  2.022e-07  2.022e-06  0.3211 y y y y y y y y 
   40   42    9  1.483e-07  1.483e-06  0.3211 y y y y y y y y 
   41   46   10  7.216e-08  7.216e-07  0.3211 y y y y y y y y Converged.
--------------------------------------------------------------------------------
  Davidson Summary: 
 ------------------------------------------------------------
  State  0: excitation energy =   0.3211 a.u.   (converged)
  State  1: excitation energy =   0.3327 a.u.   (converged)
  State  2: excitation energy =   0.3370 a.u.   (converged)
  State  3: excitation energy =   0.3613 a.u.   (converged)
  State  4: excitation energy =   0.3753 a.u.   (converged)
  State  5: excitation energy =   0.3872 a.u.   (converged)
  State  6: excitation energy =   0.4246 a.u.   (converged)
  State  7: excitation energy =   0.4470 a.u.   (converged)
  State  8: excitation energy =   0.4563 a.u.   (converged)
  State  9: excitation energy =   0.4647 a.u.   (converged)
 ------------------------------------------------------------

  Singlet states of irrep A ...  CPU 98.57 s  wall 34.05 s
  TDMs ...  CPU 0.67 s  wall 0.28 s
  SDMs ...  CPU 1.47 s  wall 0.52 s
  Starting TPA DIIS iterations ... 
------------------------------------ 
   It     Res. Norm  Remark
------------------------------------
                       Guess.
    1     4.405e+00  
    2     5.839e+00  
    3     1.077e+00  
    4     2.566e-01  
    5     6.574e-02  
    6     2.674e-02  
    7     8.237e-03  
    8     1.439e-03  
    9     5.323e-04  
   10     9.228e-05  
   11     2.887e-05  
   12     6.088e-06  
   13     2.415e-06  
   14     1.173e-06  
   15     2.774e-07  Converged.
   ... Converged in 15 steps (norm: 2.77388e-07)
------------------------------------
  Starting TPA DIIS iterations ... 
------------------------------------ 
   It     Res. Norm  Remark
------------------------------------
                       Guess.
    1     4.184e+00  
    2     5.540e+00  
    3     1.030e+00  
    4     2.557e-01  
    5     6.534e-02  
    6     2.675e-02  
    7     8.116e-03  
    8     1.464e-03  
    9     5.394e-04  
   10     9.382e-05  
   11     2.944e-05  
   12     6.553e-06  
   13     2.244e-06  
   14     1.401e-06  
   15     2.821e-07  Converged.
   ... Converged in 15 steps (norm: 2.82066e-07)
------------------------------------
  Starting TPA DIIS iterations ... 
------------------------------------ 
   It     Res. Norm  Remark
------------------------------------
                       Guess.
    1     6.873e-01  
    2     4.818e-01  
    3     1.700e-01  
    4     4.794e-02  
    5     1.804e-02  
    6     7.080e-03  
    7     1.041e-03  
    8     4.491e-04  
    9     1.238e-04  
   10     3.018e-05  
   11     4.916e-06  
   12     1.492e-06  
   13     6.227e-07  Converged.
   ... Converged in 13 steps (norm: 6.22727e-07)
------------------------------------
  Starting TPA DIIS iterations ... 
------------------------------------ 
   It     Res. Norm  Remark
------------------------------------
                       Guess.
    1     4.692e+00  
    2     6.356e+00  
    3     1.158e+00  
    4     2.852e-01  
    5     7.408e-02  
    6     3.039e-02  
    7     9.343e-03  
    8     1.629e-03  
    9     6.072e-04  
   10     1.062e-04  
   11     3.356e-05  
   12     7.360e-06  
   13     2.956e-06  
   14     1.463e-06  
   15     3.335e-07  Converged.
   ... Converged in 15 steps (norm: 3.33516e-07)
------------------------------------
  Starting TPA DIIS iterations ... 
------------------------------------ 
   It     Res. Norm  Remark
------------------------------------
                       Guess.
    1     4.457e+00  
    2     6.030e+00  
    3     1.107e+00  
    4     2.839e-01  
    5     7.364e-02  
    6     3.043e-02  
    7     9.209e-03  
    8     1.660e-03  
    9     6.160e-04  
   10     1.082e-04  
   11     3.431e-05  
   12     7.991e-06  
   13     2.790e-06  
   14     1.784e-06  
   15     3.563e-07  Converged.
   ... Converged in 15 steps (norm: 3.56341e-07)
------------------------------------
  Starting TPA DIIS iterations ... 
------------------------------------ 
   It     Res. Norm  Remark
------------------------------------
                       Guess.
    1     6.993e-01  
    2     4.990e-01  
    3     1.798e-01  
    4     5.370e-02  
    5     1.970e-02  
    6     7.693e-03  
    7     1.176e-03  
    8     5.295e-04  
    9     1.498e-04  
   10     3.466e-05  
   11     5.556e-06  
   12     1.751e-06  
   13     7.759e-07  Converged.
   ... Converged in 13 steps (norm: 7.75917e-07)
------------------------------------
  Starting TPA DIIS iterations ... 
------------------------------------ 
   It     Res. Norm  Remark
------------------------------------
                       Guess.
    1     4.805e+00  
    2     6.561e+00  
    3     1.190e+00  
    4     2.967e-01  
    5     7.744e-02  
    6     3.186e-02  
    7     9.789e-03  
    8     1.706e-03  
    9     6.375e-04  
   10     1.118e-04  
   11     3.549e-05  
   12     7.900e-06  
   13     3.187e-06  
   14     1.589e-06  
   15     3.570e-07  Converged.
   ... Converged in 15 steps (norm: 3.56979e-07)
------------------------------------
  Starting TPA DIIS iterations ... 
------------------------------------ 
   It     Res. Norm  Remark
------------------------------------
                       Guess.
    1     4.563e+00  
    2     6.224e+00  
    3     1.137e+00  
    4     2.953e-01  
    5     7.698e-02  
    6     3.192e-02  
    7     9.650e-03  
    8     1.739e-03  
    9     6.470e-04  
   10     1.140e-04  
   11     3.632e-05  
   12     8.606e-06  
   13     3.029e-06  
   14     1.952e-06  
   15     3.891e-07  Converged.
   ... Converged in 15 steps (norm: 3.89118e-07)
------------------------------------
  Starting TPA DIIS iterations ... 
------------------------------------ 
   It     Res. Norm  Remark
------------------------------------
                       Guess.
    1     7.038e-01  
    2     5.055e-01  
    3     1.836e-01  
    4     5.607e-02  
    5     2.032e-02  
    6     7.938e-03  
    7     1.231e-03  
    8     5.630e-04  
    9     1.606e-04  
   10     3.615e-05  
   11     5.808e-06  
   12     1.860e-06  
   13     8.436e-07  Converged.
   ... Converged in 13 steps (norm: 8.43615e-07)
------------------------------------
  Starting TPA DIIS iterations ... 
------------------------------------ 
   It     Res. Norm  Remark
------------------------------------
                       Guess.
    1     5.544e+00  
    2     7.940e+00  
    3     1.397e+00  
    4     3.768e-01  
    5     1.008e-01  
    6     4.223e-02  
    7     1.289e-02  
    8     2.237e-03  
    9     8.500e-04  
   10     1.519e-04  
   11     4.944e-05  
   12     1.206e-05  
   13     4.969e-06  
   14     2.591e-06  
   15     5.340e-07  Converged.
   ... Converged in 15 steps (norm: 5.34022e-07)
------------------------------------
  Starting TPA DIIS iterations ... 
------------------------------------ 
   It     Res. Norm  Remark
------------------------------------
                       Guess.
    1     5.263e+00  
    2     7.532e+00  
    3     1.334e+00  
    4     3.743e-01  
    5     1.002e-01  
    6     4.237e-02  
    7     1.272e-02  
    8     2.289e-03  
    9     8.649e-04  
   10     1.556e-04  
   11     5.105e-05  
   12     1.343e-05  
   13     5.016e-06  
   14     3.331e-06  
   15     6.634e-07  Converged.
   ... Converged in 15 steps (norm: 6.63358e-07)
------------------------------------
  Starting TPA DIIS iterations ... 
------------------------------------ 
   It     Res. Norm  Remark
------------------------------------
                       Guess.
    1     7.305e-01  
    2     5.464e-01  
    3     2.077e-01  
    4     7.319e-02  
    5     2.422e-02  
    6     9.629e-03  
    7     1.631e-03  
    8     8.022e-04  
    9     2.363e-04  
   10     4.216e-05  
   11     7.503e-06  
   12     2.666e-06  
   13     1.409e-06  
   14     5.380e-07  Converged.
   ... Converged in 14 steps (norm: 5.37993e-07)
------------------------------------
  Starting TPA DIIS iterations ... 
------------------------------------ 
   It     Res. Norm  Remark
------------------------------------
                       Guess.
    1     6.055e+00  
    2     8.926e+00  
    3     1.539e+00  
    4     4.362e-01  
    5     1.181e-01  
    6     5.001e-02  
    7     1.520e-02  
    8     2.630e-03  
    9     1.009e-03  
   10     1.823e-04  
   11     6.032e-05  
   12     1.560e-05  
   13     6.477e-06  
   14     3.485e-06  
   15     6.837e-07  Converged.
   ... Converged in 15 steps (norm: 6.83683e-07)
------------------------------------
  Starting TPA DIIS iterations ... 
------------------------------------ 
   It     Res. Norm  Remark
------------------------------------
                       Guess.
    1     5.747e+00  
    2     8.466e+00  
    3     1.470e+00  
    4     4.329e-01  
    5     1.175e-01  
    6     5.024e-02  
    7     1.500e-02  
    8     2.696e-03  
    9     1.029e-03  
   10     1.874e-04  
   11     6.273e-05  
   12     1.761e-05  
   13     6.879e-06  
   14     4.589e-06  
   15     9.212e-07  Converged.
   ... Converged in 15 steps (norm: 9.21192e-07)
------------------------------------
  Starting TPA DIIS iterations ... 
------------------------------------ 
   It     Res. Norm  Remark
------------------------------------
                       Guess.
    1     7.467e-01  
    2     5.725e-01  
    3     2.238e-01  
    4     8.658e-02  
    5     2.677e-02  
    6     1.089e-02  
    7     1.945e-03  
    8     9.755e-04  
    9     2.900e-04  
   10     4.358e-05  
   11     8.745e-06  
   12     3.318e-06  
   13     1.932e-06  
   14     6.676e-07  Converged.
   ... Converged in 14 steps (norm: 6.67595e-07)
------------------------------------
  Starting TPA DIIS iterations ... 
------------------------------------ 
   It     Res. Norm  Remark
------------------------------------
                       Guess.
    1     6.555e+00  
    2     9.915e+00  
    3     1.677e+00  
    4     4.974e-01  
    5     1.359e-01  
    6     5.810e-02  
    7     1.757e-02  
    8     3.033e-03  
    9     1.175e-03  
   10     2.142e-04  
   11     7.190e-05  
   12     1.962e-05  
   13     8.172e-06  
   14     4.538e-06  
   15     8.573e-07  Converged.
   ... Converged in 15 steps (norm: 8.57345e-07)
------------------------------------
  Starting TPA DIIS iterations ... 
------------------------------------ 
   It     Res. Norm  Remark
------------------------------------
                       Guess.
    1     6.221e+00  
    2     9.404e+00  
    3     1.601e+00  
    4     4.931e-01  
    5     1.352e-01  
    6     5.841e-02  
    7     1.734e-02  
    8     3.116e-03  
    9     1.200e-03  
   10     2.210e-04  
   11     7.536e-05  
   12     2.244e-05  
   13     9.163e-06  
   14     6.089e-06  
   15     1.237e-06  
   16     8.318e-07  Converged.
   ... Converged in 16 steps (norm: 8.31782e-07)
------------------------------------
  Starting TPA DIIS iterations ... 
------------------------------------ 
   It     Res. Norm  Remark
------------------------------------
                       Guess.
    1     7.611e-01  
    2     5.968e-01  
    3     2.391e-01  
    4     1.009e-01  
    5     2.924e-02  
    6     1.220e-02  
    7     2.281e-03  
    8     1.141e-03  
    9     3.417e-04  
   10     4.419e-05  
   11     1.004e-05  
   12     4.032e-06  
   13     2.554e-06  
   14     7.997e-07  Converged.
   ... Converged in 14 steps (norm: 7.99664e-07)
------------------------------------
  Starting TPA DIIS iterations ... 
------------------------------------ 
   It     Res. Norm  Remark
------------------------------------
                       Guess.
    1     8.659e+00  
    2     1.432e+01  
    3     2.250e+00  
    4     7.820e-01  
    5     2.189e-01  
    6     9.654e-02  
    7     2.862e-02  
    8     4.899e-03  
    9     1.957e-03  
   10     3.693e-04  
   11     1.294e-04  
   12     4.315e-05  
   13     1.757e-05  
   14     1.138e-05  
   15     1.975e-06  
   16     1.631e-06  
   17     4.322e-07  Converged.
   ... Converged in 17 steps (norm: 4.3222e-07)
------------------------------------
  Starting TPA DIIS iterations ... 
------------------------------------ 
   It     Res. Norm  Remark
------------------------------------
                       Guess.
    1     8.213e+00  
    2     1.358e+01  
    3     2.146e+00  
    4     7.724e-01  
    5     2.181e-01  
    6     9.735e-02  
    7     2.828e-02  
    8     5.074e-03  
    9     2.016e-03  
   10     3.865e-04  
   11     1.412e-04  
   12     5.153e-05  
   13     2.509e-05  
   14     1.573e-05  
   15     3.445e-06  
   16     1.860e-06  
   17     4.709e-07  Converged.
   ... Converged in 17 steps (norm: 4.70871e-07)
------------------------------------
  Starting TPA DIIS iterations ... 
------------------------------------ 
   It     Res. Norm  Remark
------------------------------------
                       Guess.
    1     8.104e-01  
    2     6.879e-01  
    3     2.995e-01  
    4     1.730e-01  
    5     4.019e-02  
    6     1.829e-02  
    7     3.960e-03  
    8     1.668e-03  
    9     5.404e-04  
   10     5.266e-05  
   11     1.642e-05  
   12     7.875e-06  
   13     6.271e-06  
   14     1.397e-06  
   15     6.410e-07  Converged.
   ... Converged in 15 steps (norm: 6.40984e-07)
------------------------------------
  Starting TPA DIIS iterations ... 
------------------------------------ 
   It     Res. Norm  Remark
------------------------------------
                       Guess.
    1     1.048e+01  
    2     1.842e+01  
    3     2.733e+00  
    4     1.057e+00  
    5     2.998e-01  
    6     1.349e-01  
    7     3.938e-02  
    8     6.705e-03  
    9     2.732e-03  
   10     5.284e-04  
   11     1.893e-04  
   12     7.317e-05  
   13     2.871e-05  
   14     2.141e-05  
   15     3.544e-06  
   16     3.246e-06  
   17     7.119e-07  Converged.
   ... Converged in 17 steps (norm: 7.11901e-07)
------------------------------------
  Starting TPA DIIS iterations ... 
------------------------------------ 
   It     Res. Norm  Remark
------------------------------------
                       Guess.
    1     9.943e+00  
    2     1.747e+01  
    3     2.606e+00  
    4     1.041e+00  
    5     2.988e-01  
    6     1.363e-01  
    7     3.894e-02  
    8     6.991e-03  
    9     2.840e-03  
   10     5.598e-04  
   11     2.151e-04  
   12     8.939e-05  
   13     4.887e-05  
   14     2.898e-05  
   15     6.680e-06  
   16     2.997e-06  
   17     8.057e-07  Converged.
   ... Converged in 17 steps (norm: 8.05712e-07)
------------------------------------
  Starting TPA DIIS iterations ... 
------------------------------------ 
   It     Res. Norm  Remark
------------------------------------
                       Guess.
    1     8.433e-01  
    2     7.563e-01  
    3     3.475e-01  
    4     2.474e-01  
    5     5.070e-02  
    6     2.394e-02  
    7     5.660e-03  
    8     1.887e-03  
    9     6.932e-04  
   10     7.016e-05  
   11     2.308e-05  
   12     1.230e-05  
   13     1.064e-05  
   14     1.987e-06  
   15     1.065e-06  
   16     2.430e-07  Converged.
   ... Converged in 16 steps (norm: 2.42988e-07)
------------------------------------
  Starting TPA DIIS iterations ... 
------------------------------------ 
   It     Res. Norm  Remark
------------------------------------
                       Guess.
    1     1.142e+01  
    2     2.062e+01  
    3     2.978e+00  
    4     1.206e+00  
    5     3.441e-01  
    6     1.561e-01  
    7     4.527e-02  
    8     7.690e-03  
    9     3.160e-03  
   10     6.183e-04  
   11     2.234e-04  
   12     9.237e-05  
   13     3.569e-05  
   14     2.833e-05  
   15     4.628e-06  
   16     4.343e-06  
   17     8.796e-07  Converged.
   ... Converged in 17 steps (norm: 8.79606e-07)
------------------------------------
  Starting TPA DIIS iterations ... 
------------------------------------ 
   It     Res. Norm  Remark
------------------------------------
                       Guess.
    1     1.083e+01  
    2     1.955e+01  
    3     2.838e+00  
    4     1.186e+00  
    5     3.430e-01  
    6     1.579e-01  
    7     4.477e-02  
    8     8.044e-03  
    9     3.301e-03  
   10     6.589e-04  
   11     2.594e-04  
   12     1.137e-04  
   13     6.477e-05  
   14     3.757e-05  
   15     8.708e-06  
   16     3.653e-06  
   17     9.784e-07  Converged.
   ... Converged in 17 steps (norm: 9.78388e-07)
------------------------------------
  Starting TPA DIIS iterations ... 
------------------------------------ 
   It     Res. Norm  Remark
------------------------------------
                       Guess.
    1     8.578e-01  
    2     7.885e-01  
    3     3.710e-01  
    4     2.880e-01  
    5     5.638e-02  
    6     2.681e-02  
    7     6.587e-03  
    8     1.947e-03  
    9     7.675e-04  
   10     8.091e-05  
   11     2.690e-05  
   12     1.498e-05  
   13     1.321e-05  
   14     2.340e-06  
   15     1.353e-06  
   16     3.399e-07  Converged.
   ... Converged in 16 steps (norm: 3.39858e-07)
------------------------------------
  Starting TPA DIIS iterations ... 
------------------------------------ 
   It     Res. Norm  Remark
------------------------------------
                       Guess.
    1     1.239e+01  
    2     2.294e+01  
    3     3.226e+00  
    4     1.363e+00  
    5     3.914e-01  
    6     1.790e-01  
    7     5.155e-02  
    8     8.739e-03  
    9     3.621e-03  
   10     7.164e-04  
   11     2.610e-04  
   12     1.150e-04  
   13     4.401e-05  
   14     3.675e-05  
   15     6.001e-06  
   16     5.686e-06  
   17     1.083e-06  
   18     4.471e-07  Converged.
   ... Converged in 18 steps (norm: 4.47087e-07)
------------------------------------
  Starting TPA DIIS iterations ... 
------------------------------------ 
   It     Res. Norm  Remark
------------------------------------
                       Guess.
    1     1.175e+01  
    2     2.176e+01  
    3     3.074e+00  
    4     1.340e+00  
    5     3.902e-01  
    6     1.811e-01  
    7     5.100e-02  
    8     9.175e-03  
    9     3.801e-03  
   10     7.679e-04  
   11     3.099e-04  
   12     1.423e-04  
   13     8.345e-05  
   14     4.756e-05  
   15     1.096e-05  
   16     4.437e-06  
   17     1.158e-06  
   18     4.614e-07  Converged.
   ... Converged in 18 steps (norm: 4.61375e-07)
------------------------------------
  Starting TPA DIIS iterations ... 
------------------------------------ 
   It     Res. Norm  Remark
------------------------------------
                       Guess.
    1     8.713e-01  
    2     8.201e-01  
    3     3.943e-01  
    4     3.306e-01  
    5     6.238e-02  
    6     2.967e-02  
    7     7.563e-03  
    8     1.990e-03  
    9     8.418e-04  
   10     9.250e-05  
   11     3.113e-05  
   12     1.806e-05  
   13     1.608e-05  
   14     2.767e-06  
   15     1.716e-06  
   16     4.837e-07  Converged.
   ... Converged in 16 steps (norm: 4.83656e-07)
------------------------------------
  Two-photon absorbption ...  CPU 68.60 s  wall 18.10 s
  Transition density matrix of state singlet_A_1 printed to ASCII file 'State_singlet_A_1_Transition.txt'
  Transition density matrix of state singlet_A_2 printed to ASCII file 'State_singlet_A_2_Transition.txt'
  Transition density matrix of state singlet_A_3 printed to ASCII file 'State_singlet_A_3_Transition.txt'
  Transition density matrix of state singlet_A_4 printed to ASCII file 'State_singlet_A_4_Transition.txt'
  Transition density matrix of state singlet_A_5 printed to ASCII file 'State_singlet_A_5_Transition.txt'
  Transition density matrix of state singlet_A_6 printed to ASCII file 'State_singlet_A_6_Transition.txt'
  Transition density matrix of state singlet_A_7 printed to ASCII file 'State_singlet_A_7_Transition.txt'
  Transition density matrix of state singlet_A_8 printed to ASCII file 'State_singlet_A_8_Transition.txt'
  Transition density matrix of state singlet_A_9 printed to ASCII file 'State_singlet_A_9_Transition.txt'
  Transition density matrix of state singlet_A_10 printed to ASCII file 'State_singlet_A_10_Transition.txt'
  Transition properties ...  CPU 0.16 s  wall 0.35 s
  Difference density matrix of state singlet_A_1 printed to ASCII file 'State_singlet_A_1_Difference.txt'
  Total density matrix of state singlet_A_1 printed to ASCII file 'State_singlet_A_1_Total.txt'
  Difference density matrix of state singlet_A_2 printed to ASCII file 'State_singlet_A_2_Difference.txt'
  Total density matrix of state singlet_A_2 printed to ASCII file 'State_singlet_A_2_Total.txt'
  Difference density matrix of state singlet_A_3 printed to ASCII file 'State_singlet_A_3_Difference.txt'
  Total density matrix of state singlet_A_3 printed to ASCII file 'State_singlet_A_3_Total.txt'
  Difference density matrix of state singlet_A_4 printed to ASCII file 'State_singlet_A_4_Difference.txt'
  Total density matrix of state singlet_A_4 printed to ASCII file 'State_singlet_A_4_Total.txt'
  Difference density matrix of state singlet_A_5 printed to ASCII file 'State_singlet_A_5_Difference.txt'
  Total density matrix of state singlet_A_5 printed to ASCII file 'State_singlet_A_5_Total.txt'
  Difference density matrix of state singlet_A_6 printed to ASCII file 'State_singlet_A_6_Difference.txt'
  Total density matrix of state singlet_A_6 printed to ASCII file 'State_singlet_A_6_Total.txt'
  Difference density matrix of state singlet_A_7 printed to ASCII file 'State_singlet_A_7_Difference.txt'
  Total density matrix of state singlet_A_7 printed to ASCII file 'State_singlet_A_7_Total.txt'
  Difference density matrix of state singlet_A_8 printed to ASCII file 'State_singlet_A_8_Difference.txt'
  Total density matrix of state singlet_A_8 printed to ASCII file 'State_singlet_A_8_Total.txt'
  Difference density matrix of state singlet_A_9 printed to ASCII file 'State_singlet_A_9_Difference.txt'
  Total density matrix of state singlet_A_9 printed to ASCII file 'State_singlet_A_9_Total.txt'
  Difference density matrix of state singlet_A_10 printed to ASCII file 'State_singlet_A_10_Difference.txt'
  Total density matrix of state singlet_A_10 printed to ASCII file 'State_singlet_A_10_Total.txt'
  Properties ...  CPU 0.31 s  wall 0.69 s
  ISR TDMS ...  CPU 8.88 s  wall 3.17 s
  ISR transition properties ...  CPU 0.17 s  wall 0.08 s
  Sum-over-states TPA ...  CPU 0.00 s  wall 0.00 s

--------------------------------------------------------------------------------
                   State-averaged natural transition orbitals
--------------------------------------------------------------------------------
--------------------------------------------------------------------------------
  SA-NTO decomposition ...  CPU 0.01 s  wall 0.02 s

--------------------------------------------------------------------------------
                             Excited State Summary
--------------------------------------------------------------------------------
--------------------------------------------------------------------------------

  Excited state 1 (singlet, A)                                     [converged]
  ----------------------------------------------------------------------------
  Term symbol:  2 (1) A                                     R^2 =  2.12574e-13

  Total energy:                                            -77.9985816304 a.u.
  Excitation energy:                                               8.736417 eV

  Osc. strength:                                                      0.444743
  Trans. dip. moment [a.u.]:           [  -1.044506,    0.993377,    0.008740]
  <i|r^2|0> [a.u.]:                    [  -6.161856,    0.243246,    0.006225]
  Two-photon absorption cross-section (SoS) [a.u.]:                   0.000521
  Two-photon absorption matrix (SoS) [a.u.]:
                                       |   -0.006013    0.000552    0.002565 |
                                       |    0.000552   -0.001373   -0.001472 |
                                       |    0.002565   -0.001472   -0.003642 |
  Two-photon absorption cross-section [a.u.]:                         0.007726
  Two-photon absorption matrix [a.u.]:
                                       |    0.000505    0.004119   -0.014791 |
                                       |    0.004119    0.009295   -0.025678 |
                                       |   -0.014791   -0.025678   -0.007160 |

  Dip. moment [a.u.]:                  [  -0.000743,   -0.000050,    0.003883]
  Total dipole [Debye]:                                               0.010050
  <r^2> [a.u.]:                        [ 176.117663,   35.646796,   11.875803]
  Total <r^2> [a.u.]:                                               223.640262

  V1^2 = 0.9714, V2^2 = 0.0286

  Important amplitudes:
      occ i     occ j     vir a      vir b          v   
    -----------------------------------------------------
     8 (A) A              9 (A) A                 0.6806
     6 (A) A             14 (A) A                 0.0622
     4 (A) A             10 (A) A                 0.0606
     7 (A) A             16 (A) A                -0.0569
     5 (A) A             13 (A) A                 0.0513
     6 (A) A             23 (A) A                 0.0486
     8 (A) A             20 (A) A                 0.0349
     6 (A) A             19 (A) A                 0.0308
     3 (A) A             12 (A) A                -0.0281
     7 (A) A              9 (A) A                -0.0255
     5 (A) A             22 (A) A                -0.0215
     7 (A) A             11 (A) A                -0.0209
     4 (A) A             24 (A) A                 0.0187
     3 (A) A             26 (A) A                 0.0185
     8 (A) A   8 (A) B   17 (A) A   20 (A) B     -0.0184
     8 (A) A   8 (A) B    9 (A) A   28 (A) B      0.0166
     6 (A) A             26 (A) A                 0.0163
     7 (A) A             21 (A) A                -0.0148
     3 (A) A             14 (A) A                 0.0139
     6 (A) A             12 (A) A                 0.0132
     3 (A) A   4 (A) B    9 (A) A    9 (A) B     -0.0129
     3 (A) A             19 (A) A                 0.0119
     8 (A) A   8 (A) B   18 (A) A   19 (A) B     -0.0113
     7 (A) A             32 (A) A                -0.0096
     7 (A) A             36 (A) A                -0.0086
     3 (A) A             23 (A) A                 0.0080
     8 (A) A   8 (A) B   25 (A) A   29 (A) B     -0.0076
     6 (A) A             35 (A) A                 0.0072
     6 (A) A             40 (A) A                 0.0068
     3 (A) A   6 (A) B    9 (A) A   28 (A) B      0.0064
     6 (A) A   8 (A) A   19 (A) A   28 (A) A     -0.0060
     5 (A) A   7 (A) B    9 (A) A    9 (A) B      0.0060
     5 (A) A   8 (A) B   11 (A) A   20 (A) B     -0.0059
     7 (A) A   8 (A) B   13 (A) A   20 (A) B      0.0059
     5 (A) A   8 (A) B   16 (A) A    9 (A) B     -0.0059
     5 (A) A   8 (A) B   11 (A) A    9 (A) B      0.0059
     3 (A) A   5 (A) B    9 (A) A   25 (A) B     -0.0058
     3 (A) A             40 (A) A                 0.0057
     7 (A) A   8 (A) B   22 (A) A   20 (A) B     -0.0057
     6 (A) A   8 (A) A    9 (A) A   18 (A) A     -0.0057
    -----------------------------------------------------

  Density matrix analysis:
  ------------------------
  NOs
    Occupation of frontier NOs:
       0.9496   1.0216
    Number of electrons: 16.000000
    Number of unpaired electrons: n_u =  2.31350, n_u,nl =  2.03265
    NO participation ratio (PR_NO):  2.863801
  
  
  Mulliken Population Analysis
  Atom      Charge (e)              h+              e-           Del q
  --------------------------------------------------------------------
   1 H        0.058853        0.020427       -0.012530        0.007897
   2 C       -0.116244        0.490445       -0.506023       -0.015579
   3 H        0.058340        0.020385       -0.012591        0.007794
   4 C       -0.117660        0.490296       -0.506202       -0.015906
   5 H        0.058145        0.020377       -0.012557        0.007821
   6 H        0.058566        0.020503       -0.012530        0.007973
  --------------------------------------------------------------------
  Sum:       -0.000000        1.062434       -1.062434       -0.000000
  
  Multipole moment analysis of the density matrix
    Molecular charge:                      -0.000000
    Number of electrons:                   16.000000
      Center of electronic charge [Ang]: [ -1.560552,  -0.065601,   0.002475]
    Total nuclear charge:                  16.000000
      Center of nuclear charge [Ang]:    [ -1.560576,  -0.065602,   0.002603]
    Dipole moment [D]:                     0.010050
      Cartesian components [D]:          [ -0.001889,  -0.000128,   0.009870]
    RMS size of the density [Ang]:         1.214278
      Cartesian components [Ang]:        [  0.804395,   0.787133,   0.455896]
  
  Exciton analysis of the difference density matrix
    <r_h> [Ang]:                  [ -1.560222,  -0.065739,   0.000899]
    <r_e> [Ang]:                  [ -1.560242,  -0.065593,   0.000529]
    |<r_e - r_h>| [Ang]:            0.000399
    Hole size [Ang]:                1.285845
      Cartesian components [Ang]: [  0.728952,   0.713479,   0.782925]
    Electron size [Ang]:            1.463171
      Cartesian components [Ang]: [  0.854021,   0.830576,   0.849507]

  Transition density matrix analysis:
  -----------------------------------
  
  CT numbers (Mulliken)
    omega =     0.9535
    <Phe> =    -0.1605
  
  Exciton analysis of the transition density matrix
    Trans. dipole moment [D]:             1.831939
      Cartesian components [D]:         [ -1.327434,   1.262456,   0.011107]
    <r_h> [Ang]:                        [ -1.560078,  -0.065882,   0.001225]
    <r_e> [Ang]:                        [ -1.560239,  -0.065552,   0.000289]
    |<r_e - r_h>| [Ang]:                  0.001006
    Hole size [Ang]:                      1.214757
      Cartesian components [Ang]:       [  0.650351,   0.637621,   0.803814]
    Electron size [Ang]:                  1.485947
      Cartesian components [Ang]:       [  0.864415,   0.839460,   0.869559]
    RMS electron-hole separation [Ang]:   1.936955
      Cartesian components [Ang]:       [  1.107072,   1.075846,   1.169932]
    Covariance(r_h, r_e) [Ang^2]:        -0.034060
    Correlation coefficient:             -0.018869
    Center-of-mass size [Ang]:            0.950730
      Cartesian components [Ang]:       [  0.527904,   0.516009,   0.599115]

  Decomposition into state-averaged NTOs
    H- 0 -> L+ 0:  0.6695 ( 89.6%)
    H- 2 -> L+ 5:  0.0836 (  1.4%)
                   omega =  95.3%
  ----------------------------------------------------------------------------


  Excited state 2 (singlet, A)                                     [converged]
  ----------------------------------------------------------------------------
  Term symbol:  3 (1) A                                     R^2 =  9.74371e-14

  Total energy:                                            -77.9869078935 a.u.
  Excitation energy:                                               9.054075 eV

  Osc. strength:                                                      0.000810
  Trans. dip. moment [a.u.]:           [  -0.042137,    0.043299,   -0.000718]
  <i|r^2|0> [a.u.]:                    [  -0.177774,    0.095782,   -0.155753]
  Two-photon absorption cross-section (SoS) [a.u.]:                   4.904648
  Two-photon absorption matrix (SoS) [a.u.]:
                                       |    0.062726    0.061297   -0.538514 |
                                       |    0.061297    0.059021   -0.555139 |
                                       |   -0.538514   -0.555139   -0.121969 |
  Two-photon absorption cross-section [a.u.]:                         0.081981
  Two-photon absorption matrix [a.u.]:
                                       |    0.022257   -0.005842    0.058446 |
                                       |   -0.005842   -0.037689    0.075659 |
                                       |    0.058446    0.075659    0.015185 |

  Dip. moment [a.u.]:                  [  -0.006257,    0.007833,    0.007417]
  Total dipole [Debye]:                                               0.031697
  <r^2> [a.u.]:                        [ 174.512535,   33.976510,   13.174098]
  Total <r^2> [a.u.]:                                               221.663143

  V1^2 = 0.9542, V2^2 = 0.0458

  Important amplitudes:
      occ i     occ j     vir a      vir b          v   
    -----------------------------------------------------
     7 (A) A              9 (A) A                 0.6687
     8 (A) A             11 (A) A                -0.1484
     7 (A) A             20 (A) A                 0.0758
     5 (A) A   8 (A) B    9 (A) A    9 (A) B      0.0316
     8 (A) A             16 (A) A                 0.0274
     8 (A) A              9 (A) A                 0.0249
     8 (A) A             21 (A) A                -0.0176
     5 (A) A             28 (A) A                -0.0149
     4 (A) A   7 (A) B    9 (A) A   19 (A) B     -0.0135
     5 (A) A   7 (A) B    9 (A) A   16 (A) B      0.0134
     7 (A) A   8 (A) B   20 (A) A   17 (A) B     -0.0105
     7 (A) A   8 (A) A    9 (A) A   28 (A) A     -0.0097
     5 (A) A   8 (A) B    9 (A) A   20 (A) B      0.0095
     4 (A) A   6 (A) B    9 (A) A   16 (A) B      0.0091
     5 (A) A   6 (A) A    9 (A) A   23 (A) A     -0.0091
     5 (A) A   6 (A) A    9 (A) A   14 (A) A     -0.0089
     5 (A) A   6 (A) B    9 (A) A   19 (A) B     -0.0087
     4 (A) A   5 (A) A    9 (A) A   10 (A) A      0.0085
     8 (A) A   7 (A) B    9 (A) A   28 (A) B      0.0084
     6 (A) A   7 (A) B    9 (A) A   18 (A) B     -0.0083
     5 (A) A   6 (A) B    9 (A) A   23 (A) B     -0.0080
     3 (A) A   7 (A) B    9 (A) A   18 (A) B      0.0080
     5 (A) A   7 (A) A    9 (A) A   16 (A) A      0.0079
     4 (A) A   8 (A) B    9 (A) A   25 (A) B      0.0077
     7 (A) A   8 (A) B   17 (A) A   20 (A) B     -0.0074
     4 (A) A   7 (A) B   19 (A) A    9 (A) B     -0.0074
     5 (A) A   5 (A) B    9 (A) A   13 (A) B     -0.0072
     7 (A) A   8 (A) B   19 (A) A   18 (A) B     -0.0072
     5 (A) A   8 (A) A    9 (A) A   20 (A) A      0.0069
     4 (A) A   5 (A) B    9 (A) A   18 (A) B     -0.0068
     7 (A) A   7 (A) B   20 (A) A   22 (A) B     -0.0065
     7 (A) A   8 (A) B   17 (A) A    9 (A) B     -0.0065
     5 (A) A   6 (A) B    9 (A) A   14 (A) B     -0.0063
     4 (A) A   7 (A) A    9 (A) A   19 (A) A     -0.0061
     4 (A) A   5 (A) B   10 (A) A    9 (A) B     -0.0061
     5 (A) A             38 (A) A                 0.0060
     5 (A) A   7 (A) B   11 (A) A   20 (A) B     -0.0060
     4 (A) A   7 (A) B    9 (A) A   14 (A) B      0.0060
     4 (A) A   8 (A) A    9 (A) A   25 (A) A      0.0057
     6 (A) A   7 (A) A   19 (A) A   28 (A) A     -0.0056
    -----------------------------------------------------

  Density matrix analysis:
  ------------------------
  NOs
    Occupation of frontier NOs:
       0.9578   1.0538
    Number of electrons: 16.000000
    Number of unpaired electrons: n_u =  2.35529, n_u,nl =  2.06278
    NO participation ratio (PR_NO):  3.027905
  
  
  Mulliken Population Analysis
  Atom      Charge (e)              h+              e-           Del q
  --------------------------------------------------------------------
   1 H        0.148317        0.121293       -0.023932        0.097361
   2 C       -0.301436        0.271039       -0.471810       -0.200771
   3 H        0.152228        0.126811       -0.025129        0.101682
   4 C       -0.302339        0.273488       -0.474073       -0.200585
   5 H        0.154300        0.128080       -0.024104        0.103976
   6 H        0.148931        0.123022       -0.024685        0.098337
  --------------------------------------------------------------------
  Sum:       -0.000000        1.043734       -1.043734        0.000000
  
  Multipole moment analysis of the density matrix
    Molecular charge:                      -0.000000
    Number of electrons:                   16.000000
      Center of electronic charge [Ang]: [ -1.560369,  -0.065861,   0.002358]
    Total nuclear charge:                  16.000000
      Center of nuclear charge [Ang]:    [ -1.560576,  -0.065602,   0.002603]
    Dipole moment [D]:                     0.031697
      Cartesian components [D]:          [ -0.015903,   0.019910,   0.018852]
    RMS size of the density [Ang]:         1.200169
      Cartesian components [Ang]:        [  0.787101,   0.768317,   0.480171]
  
  Exciton analysis of the difference density matrix
    <r_h> [Ang]:                  [ -1.564956,  -0.062265,   0.003017]
    <r_e> [Ang]:                  [ -1.562181,  -0.066114,   0.000848]
    |<r_e - r_h>| [Ang]:            0.005217
    Hole size [Ang]:                1.486086
      Cartesian components [Ang]: [  0.998474,   1.001955,   0.455619]
    Electron size [Ang]:            1.477310
      Cartesian components [Ang]: [  0.881234,   0.859833,   0.816431]

  Transition density matrix analysis:
  -----------------------------------
  
  CT numbers (Mulliken)
    omega =     0.9218
    <Phe> =    -0.0124
  
  Exciton analysis of the transition density matrix
    Trans. dipole moment [D]:             0.076789
      Cartesian components [D]:         [ -0.053551,   0.055027,  -0.000912]
    <r_h> [Ang]:                        [ -1.565685,  -0.061670,   0.003436]
    <r_e> [Ang]:                        [ -1.561644,  -0.066640,   0.000357]
    |<r_e - r_h>| [Ang]:                  0.007107
    Hole size [Ang]:                      1.514548
      Cartesian components [Ang]:       [  1.020902,   1.026273,   0.445396]
    Electron size [Ang]:                  1.474403
      Cartesian components [Ang]:       [  0.871893,   0.849226,   0.832155]
    RMS electron-hole separation [Ang]:   2.093938
      Cartesian components [Ang]:       [  1.326742,   1.317172,   0.943076]
    Covariance(r_h, r_e) [Ang^2]:         0.041595
    Correlation coefficient:              0.018627
    Center-of-mass size [Ang]:            1.066643
      Cartesian components [Ang]:       [  0.679089,   0.673410,   0.472318]

  Decomposition into state-averaged NTOs
    H- 1 -> L+ 0:  0.6611 ( 87.4%)
    H- 0 -> L+ 2:  0.1484 (  4.4%)
                   omega =  92.2%
  ----------------------------------------------------------------------------


  Excited state 3 (singlet, A)                                     [converged]
  ----------------------------------------------------------------------------
  Term symbol:  4 (1) A                                     R^2 =  7.74044e-14

  Total energy:                                            -77.9826549842 a.u.
  Excitation energy:                                               9.169803 eV

  Osc. strength:                                                      0.025165
  Trans. dip. moment [a.u.]:           [  -0.011704,   -0.024966,    0.333547]
  <i|r^2|0> [a.u.]:                    [  -0.089015,    0.019137,   -0.004960]
  Two-photon absorption cross-section (SoS) [a.u.]:                   0.188803
  Two-photon absorption matrix (SoS) [a.u.]:
                                       |   -0.154206   -0.008207    0.004708 |
                                       |   -0.008207    0.146165    0.015887 |
                                       |    0.004708    0.015887   -0.027337 |
  Two-photon absorption cross-section [a.u.]:                         0.103597
  Two-photon absorption matrix [a.u.]:
                                       |   -0.123460   -0.001905    0.007845 |
                                       |   -0.001905    0.095302    0.009494 |
                                       |    0.007845    0.009494   -0.016428 |

  Dip. moment [a.u.]:                  [   0.002676,    0.008627,   -0.003622]
  Total dipole [Debye]:                                               0.024735
  <r^2> [a.u.]:                        [ 180.876824,   40.606911,   11.036606]
  Total <r^2> [a.u.]:                                               232.520342

  V1^2 = 0.9587, V2^2 = 0.0413

  Important amplitudes:
      occ i     occ j     vir a      vir b          v   
    -----------------------------------------------------
     8 (A) A             10 (A) A                -0.6891
     8 (A) A             24 (A) A                -0.0507
     8 (A) A             18 (A) A                 0.0313
     4 (A) A              9 (A) A                -0.0238
     8 (A) A   8 (A) B    9 (A) A   12 (A) B      0.0219
     8 (A) A   8 (A) B   10 (A) A   17 (A) B     -0.0173
     8 (A) A             15 (A) A                -0.0169
     5 (A) A   8 (A) B   11 (A) A   10 (A) B     -0.0165
     7 (A) A   8 (A) B   13 (A) A   10 (A) B      0.0141
     4 (A) A   8 (A) B   12 (A) A   10 (A) B      0.0111
     6 (A) A   8 (A) A   10 (A) A   15 (A) A      0.0110
     7 (A) A   8 (A) B   22 (A) A   10 (A) B     -0.0108
     6 (A) A   8 (A) B   15 (A) A   10 (A) B     -0.0108
     4 (A) A   8 (A) A   10 (A) A   12 (A) A     -0.0106
     7 (A) A   8 (A) A   10 (A) A   22 (A) A      0.0099
     7 (A) A   8 (A) A   10 (A) A   13 (A) A     -0.0097
     5 (A) A   8 (A) B   21 (A) A   10 (A) B     -0.0094
     5 (A) A   8 (A) A   10 (A) A   11 (A) A      0.0094
     6 (A) A   8 (A) A   10 (A) A   18 (A) A      0.0088
     6 (A) A   8 (A) B   10 (A) A   10 (A) B      0.0087
     7 (A) A   8 (A) A   12 (A) A   16 (A) A     -0.0082
     5 (A) A   8 (A) A   10 (A) A   21 (A) A      0.0080
     3 (A) A   4 (A) B   10 (A) A    9 (A) B      0.0079
     4 (A) A   8 (A) B   19 (A) A   10 (A) B     -0.0075
     8 (A) A   8 (A) B    9 (A) A   23 (A) B      0.0075
     8 (A) A   8 (A) B   10 (A) A   28 (A) B     -0.0072
     3 (A) A   8 (A) B   10 (A) A   10 (A) B     -0.0072
     5 (A) A   8 (A) B   10 (A) A   11 (A) B     -0.0071
     3 (A) A   8 (A) A   10 (A) A   24 (A) A      0.0071
     7 (A) A   8 (A) B   16 (A) A   12 (A) B      0.0071
     3 (A) A   8 (A) B   10 (A) A   18 (A) B      0.0069
     8 (A) A   8 (A) B    9 (A) A   19 (A) B     -0.0068
     6 (A) A   8 (A) B   18 (A) A   10 (A) B     -0.0067
     3 (A) A   6 (A) B   10 (A) A   28 (A) B     -0.0062
     7 (A) A   8 (A) B   12 (A) A   11 (A) B     -0.0058
     6 (A) A             28 (A) A                 0.0056
     3 (A) A   5 (A) B   10 (A) A   25 (A) B      0.0056
     5 (A) A   8 (A) A   10 (A) A   16 (A) A     -0.0056
     3 (A) A   8 (A) A   10 (A) A   18 (A) A      0.0056
     4 (A) A   8 (A) A   10 (A) A   23 (A) A     -0.0055
    -----------------------------------------------------

  Density matrix analysis:
  ------------------------
  NOs
    Occupation of frontier NOs:
       0.9814   0.9850
    Number of electrons: 16.000000
    Number of unpaired electrons: n_u =  2.28528, n_u,nl =  2.02441
    NO participation ratio (PR_NO):  2.691978
  
  
  Mulliken Population Analysis
  Atom      Charge (e)              h+              e-           Del q
  --------------------------------------------------------------------
   1 H       -0.162376        0.053866       -0.267198       -0.213333
   2 C        0.327491        0.538676       -0.110520        0.428156
   3 H       -0.165461        0.053784       -0.269791       -0.216007
   4 C        0.326383        0.537792       -0.109655        0.428137
   5 H       -0.162717        0.053959       -0.266999       -0.213041
   6 H       -0.163319        0.053888       -0.267801       -0.213912
  --------------------------------------------------------------------
  Sum:       -0.000000        1.291965       -1.291965       -0.000000
  
  Multipole moment analysis of the density matrix
    Molecular charge:                      -0.000000
    Number of electrons:                   16.000000
      Center of electronic charge [Ang]: [ -1.560665,  -0.065888,   0.002723]
    Total nuclear charge:                  16.000000
      Center of nuclear charge [Ang]:    [ -1.560576,  -0.065602,   0.002603]
    Dipole moment [D]:                     0.024735
      Cartesian components [D]:          [  0.006800,   0.021928,  -0.009205]
    RMS size of the density [Ang]:         1.276518
      Cartesian components [Ang]:        [  0.854396,   0.840448,   0.439492]
  
  Exciton analysis of the difference density matrix
    <r_h> [Ang]:                  [ -1.560226,  -0.065886,   0.001621]
    <r_e> [Ang]:                  [ -1.561642,  -0.069321,   0.004390]
    |<r_e - r_h>| [Ang]:            0.004634
    Hole size [Ang]:                1.410258
      Cartesian components [Ang]: [  0.833951,   0.819924,   0.788084]
    Electron size [Ang]:            2.075946
      Cartesian components [Ang]: [  1.373114,   1.376795,   0.727012]

  Transition density matrix analysis:
  -----------------------------------
  
  CT numbers (Mulliken)
    omega =     0.9259
    <Phe> =    -0.0109
  
  Exciton analysis of the transition density matrix
    Trans. dipole moment [D]:             0.425342
      Cartesian components [D]:         [ -0.014875,  -0.031729,   0.423896]
    <r_h> [Ang]:                        [ -1.559826,  -0.065713,   0.000788]
    <r_e> [Ang]:                        [ -1.561930,  -0.070646,   0.005103]
    |<r_e - r_h>| [Ang]:                  0.006883
    Hole size [Ang]:                      1.212944
      Cartesian components [Ang]:       [  0.636434,   0.623743,   0.822878]
    Electron size [Ang]:                  2.296372
      Cartesian components [Ang]:       [  1.517739,   1.524375,   0.803786]
    RMS electron-hole separation [Ang]:   2.587127
      Cartesian components [Ang]:       [  1.638284,   1.640067,   1.148667]
    Covariance(r_h, r_e) [Ang^2]:         0.025688
    Correlation coefficient:              0.009223
    Center-of-mass size [Ang]:            1.303450
      Cartesian components [Ang]:       [  0.826618,   0.827006,   0.575974]

  Decomposition into state-averaged NTOs
    H- 0 -> L+ 1: -0.6798 ( 92.4%)
                   omega =  92.6%
  ----------------------------------------------------------------------------


  Excited state 4 (singlet, A)                                     [converged]
  ----------------------------------------------------------------------------
  Term symbol:  5 (1) A                                     R^2 =  1.13089e-13

  Total energy:                                            -77.9583115352 a.u.
  Excitation energy:                                               9.832222 eV

  Osc. strength:                                                      0.000126
  Trans. dip. moment [a.u.]:           [   0.016329,   -0.016047,    0.000513]
  <i|r^2|0> [a.u.]:                    [   0.114962,    0.014885,   -0.037426]
  Two-photon absorption cross-section (SoS) [a.u.]:                 149.389251
  Two-photon absorption matrix (SoS) [a.u.]:
                                       |    0.327330    0.337008   -3.002708 |
                                       |    0.337008    0.346184   -3.033872 |
                                       |   -3.002708   -3.033872   -0.672242 |
  Two-photon absorption cross-section [a.u.]:                        91.752079
  Two-photon absorption matrix [a.u.]:
                                       |    0.276547    0.265240   -2.345852 |
                                       |    0.265240    0.251877   -2.384700 |
                                       |   -2.345852   -2.384700   -0.527030 |

  Dip. moment [a.u.]:                  [  -0.008696,   -0.004898,   -0.005259]
  Total dipole [Debye]:                                               0.028675
  <r^2> [a.u.]:                        [ 181.227923,   40.548216,   10.774222]
  Total <r^2> [a.u.]:                                               232.550361

  V1^2 = 0.9635, V2^2 = 0.0365

  Important amplitudes:
      occ i     occ j     vir a      vir b          v   
    -----------------------------------------------------
     8 (A) A             11 (A) A                -0.6696
     7 (A) A              9 (A) A                -0.1504
     8 (A) A             21 (A) A                -0.0781
     8 (A) A             16 (A) A                 0.0646
     8 (A) A   8 (A) B    9 (A) A   13 (A) B     -0.0167
     5 (A) A   8 (A) B   11 (A) A   11 (A) B     -0.0155
     8 (A) A   8 (A) B   11 (A) A   17 (A) B     -0.0140
     7 (A) A             20 (A) A                -0.0137
     7 (A) A   8 (A) B   13 (A) A   11 (A) B      0.0127
     5 (A) A   8 (A) A   11 (A) A   21 (A) A      0.0110
     4 (A) A   8 (A) B   12 (A) A   11 (A) B      0.0110
     8 (A) A   8 (A) B    9 (A) A   22 (A) B      0.0107
     8 (A) A             12 (A) A                -0.0106
     7 (A) A   8 (A) A   11 (A) A   22 (A) A      0.0096
     6 (A) A   8 (A) B   15 (A) A   11 (A) B     -0.0090
     6 (A) A   8 (A) B   10 (A) A   11 (A) B      0.0090
     7 (A) A   8 (A) B   22 (A) A   11 (A) B     -0.0089
     3 (A) A   4 (A) B   11 (A) A    9 (A) B      0.0083
     3 (A) A   8 (A) B   11 (A) A   18 (A) B      0.0081
     6 (A) A   8 (A) A   11 (A) A   15 (A) A      0.0080
     7 (A) A   8 (A) A   13 (A) A   16 (A) A      0.0078
     7 (A) A   8 (A) A   11 (A) A   13 (A) A     -0.0077
     6 (A) A              9 (A) A                 0.0073
     5 (A) A   8 (A) B   21 (A) A   11 (A) B     -0.0071
     4 (A) A   8 (A) B   19 (A) A   11 (A) B     -0.0070
     5 (A) A   8 (A) B    9 (A) A    9 (A) B     -0.0068
     4 (A) A   8 (A) A   11 (A) A   12 (A) A     -0.0062
     6 (A) A   8 (A) A   11 (A) A   18 (A) A      0.0062
     3 (A) A   6 (A) B   11 (A) A   28 (A) B     -0.0060
     6 (A) A   8 (A) B   18 (A) A   11 (A) B     -0.0060
     7 (A) A   8 (A) B   16 (A) A   13 (A) B     -0.0057
     3 (A) A   8 (A) A   11 (A) A   18 (A) A      0.0056
     5 (A) A   8 (A) B   10 (A) A   10 (A) B     -0.0056
     3 (A) A   8 (A) B   11 (A) A   30 (A) B      0.0055
     3 (A) A   5 (A) B   11 (A) A   25 (A) B      0.0054
     6 (A) A   8 (A) B   11 (A) A   10 (A) B      0.0054
     7 (A) A   8 (A) B   12 (A) A   10 (A) B     -0.0054
     8 (A) A   8 (A) B   20 (A) A   22 (A) B      0.0053
     3 (A) A   8 (A) A   11 (A) A   24 (A) A      0.0053
     5 (A) A   8 (A) A   11 (A) A   16 (A) A     -0.0048
    -----------------------------------------------------

  Density matrix analysis:
  ------------------------
  NOs
    Occupation of frontier NOs:
       0.9406   1.0279
    Number of electrons: 16.000000
    Number of unpaired electrons: n_u =  2.31919, n_u,nl =  2.04918
    NO participation ratio (PR_NO):  2.915145
  
  
  Mulliken Population Analysis
  Atom      Charge (e)              h+              e-           Del q
  --------------------------------------------------------------------
   1 H       -0.145141        0.045790       -0.241887       -0.196097
   2 C        0.274803        0.497000       -0.121532        0.375468
   3 H       -0.129594        0.046941       -0.227081       -0.180140
   4 C        0.272709        0.496824       -0.122361        0.374463
   5 H       -0.131055        0.047062       -0.228440       -0.181378
   6 H       -0.141722        0.045861       -0.238176       -0.192315
  --------------------------------------------------------------------
  Sum:       -0.000000        1.179478       -1.179478       -0.000000
  
  Multipole moment analysis of the density matrix
    Molecular charge:                      -0.000000
    Number of electrons:                   16.000000
      Center of electronic charge [Ang]: [ -1.560289,  -0.065440,   0.002777]
    Total nuclear charge:                  16.000000
      Center of nuclear charge [Ang]:    [ -1.560576,  -0.065602,   0.002603]
    Dipole moment [D]:                     0.028675
      Cartesian components [D]:          [ -0.022103,  -0.012451,  -0.013368]
    RMS size of the density [Ang]:         1.277206
      Cartesian components [Ang]:        [  0.858668,   0.839871,   0.434235]
  
  Exciton analysis of the difference density matrix
    <r_h> [Ang]:                  [ -1.560202,  -0.065383,   0.001512]
    <r_e> [Ang]:                  [ -1.556652,  -0.063077,   0.005280]
    |<r_e - r_h>| [Ang]:            0.005668
    Hole size [Ang]:                1.394872
      Cartesian components [Ang]: [  0.818231,   0.807044,   0.790472]
    Electron size [Ang]:            2.124042
      Cartesian components [Ang]: [  1.439522,   1.406465,   0.679109]

  Transition density matrix analysis:
  -----------------------------------
  
  CT numbers (Mulliken)
    omega =     0.9298
    <Phe> =    -0.0135
  
  Exciton analysis of the transition density matrix
    Trans. dipole moment [D]:             0.029103
      Cartesian components [D]:         [  0.020753,  -0.020393,   0.000651]
    <r_h> [Ang]:                        [ -1.560386,  -0.065539,   0.000906]
    <r_e> [Ang]:                        [ -1.556055,  -0.062459,   0.005824]
    |<r_e - r_h>| [Ang]:                  0.007241
    Hole size [Ang]:                      1.227998
      Cartesian components [Ang]:       [  0.657958,   0.650460,   0.807448]
    Electron size [Ang]:                  2.262026
      Cartesian components [Ang]:       [  1.533548,   1.498177,   0.721428]
    RMS electron-hole separation [Ang]:   2.563171
      Cartesian components [Ang]:       [  1.660191,   1.625478,   1.082326]
    Covariance(r_h, r_e) [Ang^2]:         0.027475
    Correlation coefficient:              0.009891
    Center-of-mass size [Ang]:            1.292255
      Cartesian components [Ang]:       [  0.838621,   0.820533,   0.541630]

  Decomposition into state-averaged NTOs
    H- 0 -> L+ 2:  0.6650 ( 88.4%)
    H- 1 -> L+ 0: -0.1484 (  4.4%)
                   omega =  93.0%
  ----------------------------------------------------------------------------


  Excited state 5 (singlet, A)                                     [converged]
  ----------------------------------------------------------------------------
  Term symbol:  6 (1) A                                     R^2 =  9.67908e-14

  Total energy:                                            -77.9443847766 a.u.
  Excitation energy:                                              10.211188 eV

  Osc. strength:                                                      0.000003
  Trans. dip. moment [a.u.]:           [  -0.001877,   -0.002584,   -0.000782]
  <i|r^2|0> [a.u.]:                    [  -0.101291,    0.107366,   -0.019764]
  Two-photon absorption cross-section (SoS) [a.u.]:                 178.087551
  Two-photon absorption matrix (SoS) [a.u.]:
                                       |   -0.352964   -0.034845    3.354852 |
                                       |   -0.034845    0.383891   -3.296081 |
                                       |    3.354852   -3.296081   -0.087016 |
  Two-photon absorption cross-section [a.u.]:                        79.703421
  Two-photon absorption matrix [a.u.]:
[...]
    16   -1.378906037883e-03
    17   -1.783733884189e-03
    18   -9.627173602561e-05
    19   -3.310498728368e-03
    20    1.073751770796e-02
    21    9.337819459932e-01
    22   -2.781751448846e-04
    23    1.397260318977e-02
    24    8.308017244868e-04
    25    7.030945910063e-02
    26   -5.232944949848e-02
    27   -1.399168791909e+00
    28    9.786417459562e-02
    29   -9.284625656180e-02
    30   -2.631007572998e-03
    31    3.847615979340e-01
    32   -3.626356045800e-01
    33   -1.029259283439e-02
    34    1.558360175341e-02
    35   -1.444572883222e-03
    36   -2.100040826022e-03
    37   -8.860514078896e-05
    38   -3.131273363059e-03
    39    9.997722048459e-03
    40    9.326631596164e-01
    41    2.498419988831e-04
    42   -1.391623087942e-02
    43   -9.881301546174e-04
    44    1.012124660831e-02
    45    9.394599362193e-01
    46    1.412041748649e-02
    47    3.596701155130e-04
    48    6.612151107503e-04
Sym=X
Ene= 0.232934
Spin=Alpha
Occup=0
     1    2.615599587338e-02
     2    1.229912323978e+00
     3   -1.425857016230e-02
     4   -3.798243918528e-03
     5   -8.254923692078e-04
     6    2.736943774275e-03
     7   -3.178016954756e-03
     8   -4.236532846529e-02
     9   -1.546203489694e-01
    10   -1.588315638030e-01
    11   -1.594003930975e-02
    12   -5.555635456834e-01
    13   -5.590781599895e-01
    14   -5.579610818998e-02
    15    4.529141392564e-04
    16    5.557543500598e-05
    17   -5.541030737379e-05
    18   -1.996899578743e-04
    19   -3.111480465830e-04
    20   -2.514969750817e-02
    21   -1.163948367543e+00
    22   -2.520192252190e-03
    23   -1.362531811779e-02
    24   -9.101460747422e-04
    25   -2.532011043472e-03
    26    2.984546477222e-03
    27    3.727862437455e-02
    28   -1.538102053271e-01
    29   -1.591233201617e-01
    30   -1.873817086991e-02
    31   -5.475780606339e-01
    32   -5.554144816416e-01
    33   -6.684254345923e-02
    34   -4.729895543785e-04
    35    5.623715456228e-06
    36   -1.641155465564e-04
    37    3.720145134096e-04
    38    3.355334149733e-04
    39    2.518804340842e-02
    40    1.160500059315e+00
    41   -2.473212393621e-03
    42   -1.363317937347e-02
    43   -1.077448620513e-03
    44   -2.613385861939e-02
    45   -1.219918159406e+00
    46   -1.419777034894e-02
    47   -3.745758335266e-03
    48   -9.665492536776e-04
Sym=X
Ene= 0.239390
Spin=Alpha
Occup=0
     1   -1.602190656505e-02
     2   -1.055408073850e+00
     3    1.656865796531e-02
     4    9.110331211437e-03
     5    1.390673792743e-03
     6   -8.655441021076e-02
     7    7.978929746130e-02
     8    1.594016953890e+00
     9    5.367257433282e-02
    10   -6.022142113964e-02
    11   -3.147068208760e-04
    12    2.127870040940e-01
    13   -2.344406307211e-01
    14   -2.881386534640e-04
    15   -2.255049722971e-02
    16    2.742483030700e-03
    17    2.934486576813e-03
    18   -5.050217393703e-04
    19    1.287116088796e-02
    20   -1.698632450729e-02
    21   -1.121775857156e+00
    22   -8.535057986283e-03
    23   -1.773268409708e-02
    24   -1.441420040753e-03
    25    8.642251930372e-02
    26   -7.932048822061e-02
    27   -1.594825370684e+00
    28    5.384828546031e-02
    29   -6.063331984236e-02
    30   -3.017622122761e-03
    31    2.128966381152e-01
    32   -2.384038200360e-01
    33   -1.181921504093e-02
    34    2.254415213863e-02
    35   -2.593776453097e-03
    36   -3.306707812374e-03
    37    6.788118182424e-04
    38   -1.277428391968e-02
    39    1.683579667661e-02
    40    1.125805354378e+00
    41   -8.601897437234e-03
    42   -1.779861467609e-02
    43   -1.683362647503e-03
    44    1.576812020677e-02
    45    1.052020158437e+00
    46    1.647261181090e-02
    47    9.263454514301e-03
    48    1.270713566550e-03
Sym=X
Ene= 0.303254
Spin=Alpha
Occup=0
     1   -2.080278152496e-02
     2    1.691710077986e+00
     3   -2.291582027166e-02
     4    2.778106933469e-04
     5   -1.105302667451e-03
     6   -1.992870756177e-04
     7    1.691727276515e-04
     8    1.847046977950e-03
     9   -1.339646335363e-01
    10   -1.396336133887e-01
    11   -1.434355840228e-02
    12   -1.144207757470e+00
    13   -1.193743891927e+00
    14   -1.268486065586e-01
    15   -1.373644956775e-04
    16   -1.765359526713e-03
    17    1.783502652731e-03
    18   -3.266713508204e-02
    19   -1.574535222781e-03
    20    1.999556739232e-02
    21   -1.690141340273e+00
    22    1.425876196233e-03
    23   -2.291501295565e-02
    24   -1.221991943175e-03
    25    8.704755200245e-05
    26    2.647591465860e-04
    27   -9.838574287580e-03
    28    1.346170768590e-01
    29    1.401717521148e-01
    30    1.606856295227e-02
    31    1.139511054048e+00
    32    1.196610792533e+00
    33    1.323915965374e-01
    34    1.543295298501e-04
    35   -1.428655614107e-03
    36    2.280084315262e-03
    37   -3.247196928025e-02
    38   -1.740149680534e-03
    39    1.948592888061e-02
    40   -1.690371043319e+00
    41   -1.614265234646e-03
    42    2.282191876327e-02
    43    1.460765146546e-03
    44   -2.017971779333e-02
    45    1.698215986231e+00
    46    2.304410479345e-02
    47   -3.442607262886e-04
    48    1.096169330565e-03
Sym=X
Ene= 0.462015
Spin=Alpha
Occup=0
     1   -1.154509567065e-01
     2   -7.141985511228e-01
     3   -1.567326037071e-02
     4   -1.032783733258e-02
     5   -1.292534988957e-03
     6    6.079480804458e-02
     7    1.739438098014e-02
     8   -3.591643647764e+00
     9    1.030421068459e-01
    10   -9.898057804140e-02
    11   -1.340280275936e-03
    12    2.425593889343e+00
    13   -2.303126382077e+00
    14   -1.883289718687e-02
    15    5.366208434614e-02
    16   -3.071087197310e-03
    17   -4.724417101139e-03
    18   -7.825559928268e-04
    19    1.800562481647e-02
    20   -1.211575066473e-01
    21   -7.022908601797e-01
    22    8.715293486902e-03
    23    1.638186471497e-02
    24    1.362288230951e-03
    25   -6.095031143949e-02
    26   -1.632357450810e-02
    27    3.591973755063e+00
    28    1.052189789564e-01
    29   -1.003192238441e-01
    30   -2.887077360722e-03
    31    2.423049572409e+00
    32   -2.297333970669e+00
    33   -2.571444863483e-02
    34   -5.267204392741e-02
    35    3.577924362275e-03
    36    4.974900417637e-03
    37    6.446649684322e-04
    38   -1.907924803565e-02
    39    1.155754516331e-01
    40    7.073501922401e-01
    41    8.573913222460e-03
    42    1.624637697970e-02
    43    1.471372672767e-03
    44    1.108434032843e-01
    45    7.184641455375e-01
    46   -1.544457165302e-02
    47   -9.949281585831e-03
    48   -1.504736315038e-03
Sym=X
Ene= 0.577490
Spin=Alpha
Occup=0
     1    2.468994644679e-01
     2    4.128779652489e-02
     3   -1.847861324527e-02
     4    2.571057310455e-02
     5    6.622829248426e-04
     6   -4.462350233747e-03
     7   -1.571574376140e-01
     8   -4.653804397262e-01
     9    2.987288786398e-01
    10   -2.878902460513e-01
    11   -3.131382097106e-03
    12   -7.203400237291e-01
    13    6.966313933131e-01
    14    8.949603644019e-03
    15   -5.877879182655e-03
    16    4.056776204356e-03
    17    3.800953482606e-03
    18   -4.432181761332e-03
    19    6.022579558985e-02
    20    2.555315950853e-01
    21    2.925418386674e-02
    22   -2.642506792700e-02
    23    1.643127621379e-02
    24   -2.704298602254e-04
    25   -5.624677352468e-03
    26   -1.578763959460e-01
    27   -4.097273725319e-01
    28   -2.973565115783e-01
    29    2.852405216718e-01
    30    2.795112449521e-03
    31    7.624154542598e-01
    32   -7.317890999004e-01
    33   -1.067284191907e-02
    34   -5.878495769908e-03
    35    4.102913401987e-03
    36    3.823819548300e-03
    37   -3.791877600785e-03
    38    6.018525191711e-02
    39    2.507698570310e-01
    40    4.875930275618e-02
    41    2.728078021750e-02
    42   -1.705241749879e-02
    43    1.574539683141e-04
    44    2.492125825857e-01
    45    5.604515961689e-02
    46    1.841655761540e-02
    47   -2.585272973507e-02
    48   -8.540864988767e-04
Sym=X
Ene= 0.615164
Spin=Alpha
Occup=0
     1   -5.224244533894e-01
     2    1.997039973141e-01
     3   -6.135338925315e-02
     4    3.761376229309e-02
     5   -8.400085796116e-04
     6   -5.905110983376e-04
     7    1.220156449027e-04
     8   -1.731587751123e-02
     9   -4.043362128537e-02
    10   -3.846397641042e-02
    11   -4.788002260200e-03
    12    3.060635134587e-01
    13    2.788703229178e-01
    14    2.868743777159e-02
    15    1.894418900664e-03
    16   -7.957739147256e-03
    17    8.292200654136e-03
    18   -1.479792691533e-01
    19   -6.440835275502e-03
    20    5.079995668227e-01
    21   -2.050553679511e-01
    22    4.179073794448e-02
    23   -5.844488601305e-02
    24   -1.593528901983e-03
    25    4.171993351495e-04
    26   -7.414279268501e-04
    27    2.429019573142e-02
    28   -3.985071879902e-02
    29   -4.007500559615e-02
    30   -4.043735813504e-03
    31    3.034296196256e-01
    32    2.878197435330e-01
    33    3.615443079318e-02
    34   -1.561428833584e-03
    35    6.947176331567e-03
    36   -9.789513341286e-03
    37    1.491568136191e-01
    38    6.317908539343e-03
    39   -5.152522063384e-01
    40    2.091870269847e-01
    41    4.096214119825e-02
    42   -5.860278795874e-02
    43   -1.854174580047e-03
    44    5.216584249219e-01
    45   -2.041500724183e-01
    46   -6.149765378101e-02
    47    3.760887360380e-02
    48   -2.590024674923e-04
Sym=X
Ene= 0.689146
Spin=Alpha
Occup=0
     1    2.772023789839e-03
     2    1.994067283297e-03
     3    1.373875123779e-03
     4    1.399039241490e-03
     5   -2.098404800466e-02
     6    2.056000236166e-04
     7    1.946574333350e-03
     8    4.767627952921e-04
     9    3.021295797827e-02
    10    4.089530372667e-02
    11   -6.703391464946e-01
    12   -3.110263717950e-02
    13   -3.288719566349e-02
    14    6.136898672687e-01
    15   -2.150115429773e-03
    16    8.273656936982e-02
    17   -7.817485585780e-02
    18   -9.422147319033e-03
    19   -6.166001710968e-04
    20    3.390518861149e-03
    21   -8.320680781363e-04
    22    4.429881875730e-04
    23    6.288459218208e-04
    24   -2.098649797096e-02
    25    6.093767316473e-05
    26    3.346384284689e-03
    27   -3.730279580216e-03
    28    3.422001903976e-02
    29    4.290853578936e-02
    30   -6.698269266609e-01
    31   -3.603455277279e-02
    32   -3.605246168694e-02
    33    6.129093060290e-01
    34    4.047044734137e-04
    35   -8.269389661241e-02
    36    7.853710431435e-02
    37    8.373245787357e-03
    38    1.209989070506e-03
    39    9.937206861961e-04
    40   -5.087512229254e-03
    41    1.241409072694e-03
    42    2.295165442847e-03
    43   -2.085951338957e-02
    44    3.605256956096e-04
    45   -2.276509090567e-03
    46    3.302256384848e-04
    47    1.537666813205e-03
    48   -2.106738477754e-02
Sym=X
Ene= 0.708817
Spin=Alpha
Occup=0
     1   -4.748198575644e-01
     2    1.575207608724e-01
     3   -8.058809580926e-02
     4   -4.424332249127e-02
     5   -6.727939892906e-03
     6   -4.771239451280e-02
     7   -3.200484207339e-01
     8    5.074043424623e-01
     9    2.039442918088e-01
    10   -1.922194963733e-01
    11   -5.197162159071e-03
    12   -9.699116626764e-02
    13    8.023332269169e-02
    14    9.877952963003e-04
    15    1.938029575743e-01
    16   -2.056149733206e-02
    17   -2.430234454612e-02
    18    3.135894390611e-03
    19   -7.734636208362e-02
    20   -4.780639598193e-01
    21    1.495183405921e-01
    22    4.090328799124e-02
    23    8.163323212396e-02
    24    6.561757192650e-03
    25   -4.678742260825e-02
    26   -3.205555044405e-01
    27    4.634323501675e-01
    28   -2.038449496347e-01
    29    1.923414707299e-01
    30   -1.073817595200e-03
    31    6.540651712328e-02
    32   -5.438937330290e-02
    33    6.511288594898e-03
    34    1.934828947701e-01
    35   -2.150058624348e-02
    36   -2.538080844842e-02
    37    2.381929253594e-03
    38   -7.549518515755e-02
    39   -4.730560949141e-01
    40    1.378006070286e-01
    41   -4.066469624967e-02
    42   -8.103901127285e-02
    43   -7.195832811315e-03
    44   -4.748823849588e-01
    45    1.465679180745e-01
    46    8.055745847016e-02
    47    4.394607880653e-02
    48    6.872434711601e-03
Sym=X
Ene= 0.784448
Spin=Alpha
Occup=0
     1    5.271845932897e-01
     2   -4.691492552632e-01
     3    1.103120691675e-01
     4    2.600662860266e-02
     5    6.775663807182e-03
     6    9.100859657882e-02
     7   -2.152030200530e-01
     8   -6.440407116846e-01
     9    1.101327423625e-01
    10   -1.059577472127e-01
    11    4.700814211554e-03
    12    3.185777305212e-01
    13   -2.933375306403e-01
    14   -1.294663895851e-02
    15   -2.065303569988e-01
    16    1.734523306422e-02
    17    2.141512100438e-02
    18   -1.190721736941e-03
    19    9.412084030018e-03
    20    5.363971492898e-01
    21   -4.689323972561e-01
    22   -2.039266001280e-02
    23   -1.123840107759e-01
    24   -7.487628354814e-03
    25   -9.129677791566e-02
    26    2.138632547785e-01
    27    6.553572299757e-01
    28    1.124309554420e-01
    29   -1.046107339966e-01
    30   -5.562908142424e-03
    31    3.089481559423e-01
    32   -2.914578944930e-01
    33    7.373277828969e-03
    34    2.070029714683e-01
    35   -1.788697460207e-02
    36   -2.513585317575e-02
    37    1.822739215270e-03
    38   -8.733437360185e-03
    39   -5.416182191314e-01
    40    4.694935494843e-01
    41   -2.049445466599e-02
    42   -1.128570329773e-01
    43   -8.485586169950e-03
    44   -5.308801068919e-01
    45    4.639289678040e-01
    46    1.097643861123e-01
    47    2.666153679497e-02
    48    7.180343063886e-03
Sym=X
Ene= 0.807964
Spin=Alpha
Occup=0
     1   -3.362332019666e-03
     2    7.560879423115e-03
     3   -2.903074693636e-03
     4   -2.309518397066e-03
     5    3.373514705650e-02
     6   -6.822832108956e-04
     7    2.513782680787e-03
     8    4.501811664985e-04
     9   -3.658794821922e-02
    10   -4.265838176092e-02
    11    7.631203870203e-01
    12    4.983756173097e-02
    13    6.596116374941e-02
    14   -1.127112061200e+00
    15    8.104806646873e-04
    16    6.507289518105e-02
    17   -6.193621062561e-02
    18   -8.054476801941e-03
    19   -4.965683714497e-04
    20   -3.275806414501e-03
    21   -2.585772640741e-04
    22   -2.045682079427e-03
    23   -1.634847224439e-03
    24    3.448752333625e-02
    25    5.738140878113e-04
    26   -1.367474881346e-04
    27   -1.772367673106e-03
    28    3.759061963448e-02
    29    5.192201651888e-02
    30   -7.627620260672e-01
    31   -6.014533320962e-02
    32   -7.322987147544e-02
    33    1.126237853215e+00
    34   -2.991186614329e-03
    35    6.540596985604e-02
    36   -6.168083587651e-02
    37   -5.978252686923e-03
    38   -1.220946127492e-03
    39    3.260264004511e-03
    40   -4.316822384212e-04
    41    1.080431386645e-03
    42    3.210903282762e-03
    43   -3.409469141060e-02
    44    3.332818059759e-03
    45   -8.141786270591e-03
    46   -2.049781254309e-04
    47    2.064481076762e-03
    48   -3.383844197834e-02
Sym=X
Ene= 0.862211
Spin=Alpha
Occup=0
     1    1.349849936363e-02
     2   -1.095295223383e+00
     3    1.483498242209e-01
     4    5.643685688375e-02
     5    1.027733631713e-02
     6    2.651859825986e-04
     7   -8.608045700554e-04
     8    2.384639779056e-03
     9   -4.063583429325e-01
    10   -4.289993039226e-01
    11   -4.205332075853e-02
    12    9.469873227905e-01
    13    9.984941007263e-01
    14    9.832488023326e-02
    15   -9.678000558683e-04
    16    1.180477679971e-02
    17   -1.430538875229e-02
    18    2.351254330802e-01
    19    9.365543027967e-03
    20   -1.304787673075e-02
    21    1.102109674385e+00
    22    5.038965104939e-02
    23    1.511002072998e-01
    24    1.162206951118e-02
    25   -2.178546350528e-04
    26    1.409526864131e-03
    27   -2.241356425768e-03
    28   -4.064540609744e-01
    29   -4.300764749230e-01
    30   -5.074417734148e-02
    31    9.465437816434e-01
    32    1.002699583094e+00
    33    1.178411762506e-01
    34    8.561828804913e-04
    35   -1.170473976164e-02
    36    1.460744196118e-02
    37   -2.362605268748e-01
    38   -1.013585343738e-02
    39    1.175305109978e-02
    40   -1.102544311205e+00
    41    4.898984664707e-02
    42    1.515016049733e-01
    43    1.264385670440e-02
    44   -1.208110975191e-02
    45    1.095395024702e+00
    46    1.489027919921e-01
    47    5.568941356707e-02
    48    1.045860376093e-02
Sym=X
Ene= 0.935839
Spin=Alpha
Occup=0
     1   -1.135645312952e-01
     2    1.279972746414e+00
     3   -1.812446278857e-01
     4    5.354208026572e-03
     5   -8.554051839536e-03
     6    3.835893582612e-05
     7   -3.891435983986e-03
     8    2.250044142461e-03
     9    4.735357063428e-01
    10    4.993007816283e-01
    11    5.255031767419e-02
    12   -1.466733753358e+00
    13   -1.539650933102e+00
    14   -1.627203580231e-01
    15   -1.134297225640e-03
    16   -6.126426664292e-03
    17    5.980071908479e-03
    18   -1.206347974811e-01
    19   -2.444108242649e-03
    20    1.176197746671e-01
    21   -1.287604955113e+00
    22    1.157116261856e-02
    23   -1.831843494243e-01
    24   -9.856354825090e-03
    25   -6.887817193101e-05
    26   -2.576687206000e-03
    27    2.938488227644e-03
    28   -4.736131723783e-01
    29   -4.975329507649e-01
    30   -5.527291834746e-02
    31    1.466529875727e+00
    32    1.531383201175e+00
    33    1.702302465856e-01
    34   -1.383832615808e-04
    35   -6.160812169307e-03
    36    8.496493461246e-03
    37   -1.202726516565e-01
    38   -4.458862558428e-03
    39    1.167784631938e-01
    40   -1.281029273000e+00
    41   -1.327055736859e-02
    42    1.819220233958e-01
    43    1.129110931638e-02
    44   -1.155810608993e-01
    45    1.283403765618e+00
    46    1.816345396401e-01
    47   -5.625378810699e-03
    48    8.690038544263e-03
Sym=X
Ene= 0.972414
Spin=Alpha
Occup=0
     1   -6.439262436837e-02
     2    9.252232691418e-01
     3   -9.078703891545e-02
     4   -9.843340142619e-02
     5   -1.042108557946e-02
     6    2.534932177046e-02
     7    2.521097714561e-01
     8    5.201072693119e-01
     9    4.810362805925e-01
    10   -4.544634625058e-01
    11   -3.352894323955e-03
    12   -1.494143518967e+00
    13    1.407262574624e+00
    14    1.013960479716e-02
    15   -5.397708515347e-02
    16   -1.313973914010e-02
    17   -1.022738834374e-02
    18    1.333172825042e-02
    19   -3.014578152581e-01
    20   -6.240598665593e-02
    21    9.086409251405e-01
    22    9.522041579100e-02
    23    9.280374551616e-02
    24    1.025380691196e-02
    25   -2.520683107561e-02
    26   -2.386160598879e-01
    27   -5.425198906377e-01
    28    4.785853091491e-01
    29   -4.548259459830e-01
    30   -7.385296638288e-03
    31   -1.485529381155e+00
    32    1.414598714498e+00
    33    2.174943313509e-02
    34    5.307648147709e-02
    35    1.273559706632e-02
    36    1.038756088459e-02
    37   -1.381133426945e-02
    38    2.991361752713e-01
    39    6.205919152238e-02
    40   -9.079914979883e-01
    41    9.416967576276e-02
    42    9.260206008342e-02
    43    1.117924404934e-02
    44    6.588187528859e-02
    45   -9.123491476096e-01
    46   -8.913076980014e-02
    47   -9.789788526897e-02
    48   -9.753761202142e-03
[5D]

======= END OF MOLDEN-FORMATTED INPUT FILE =======


        *************************************************************
        *                                                           *
        *  Thank you very much for using Q-Chem.  Have a nice day.  *
        *                                                           *
        *************************************************************


