                  Welcome to Q-Chem
     A Quantum Leap Into The Future Of Chemistry


 Q-Chem 5.4 (devel), Q-Chem, Inc., Pleasanton, CA (2021)

 E. Epifanovsky,  A. T. B. Gilbert,  Xintian Feng,  Joonho Lee,  Yuezhi Mao,  
 N. Mardirossian,  P. Pokhilko,  A. White,  M. Wormit,  M. P. Coons,  
 A. L. Dempwolff,  Zhengting Gan,  D. Hait,  P. R. Horn,  L. D. Jacobson,  
 I. Kaliman,  J. Kussmann,  A. W. Lange,  Ka Un Lao,  D. S. Levine,  Jie Liu,  
 S. C. McKenzie,  A. F. Morrison,  K. Nanda,  F. Plasser,  D. R. Rehn,  
 M. L. Vidal,  Zhi-Qiang You,  Ying Zhu,  B. Alam,  B. Albrecht,  
 A. Aldossary,  E. Alguire,  J. H. Andersen,  D. Barton,  K. Begam,  A. Behn,  
 Y. A. Bernard,  E. J. Berquist,  H. Burton,  A. Carreras,  K. Carter-Fenk,  
 R. Chakraborty,  A. D. Chien,  K. D. Closser,  V. Cofer-Shabica,  
 S. Dasgupta,  Jia Deng,  M. de Wergifosse,  M. Diedenhofen,  Hainam Do,  
 S. Ehlert,  Po-Tung Fang,  S. Fatehi,  Qingguo Feng,  T. Friedhoff,  
 J. Gayvert,  Qinghui Ge,  G. Gidofalvi,  M. Goldey,  J. Gomes,  
 C. Gonzalez-Espinoza,  S. Gulania,  A. Gunina,  M. W. D. Hanson-Heine,  
 P. H. P. Harbach,  A. W. Hauser,  M. F. Herbst,  M. Hernandez Vera,  
 M. Hodecker,  Z. C. Holden,  S. Houck,  Xunkun Huang,  Kerwin Hui,  
 B. C. Huynh,  M. Ivanov,  Hyunjun Ji,  Hanjie Jiang,  B. Kaduk,  S. Kaehler,  
 K. Khistyaev,  Jaehoon Kim,  P. Klunzinger,  Z. Koczor-Benda,  
 Joong Hoon Koh,  D. Kosenkov,  L. Koulias,  T. Kowalczyk,  C. M. Krauter,  
 K. Kue,  A. Kunitsa,  T. Kus,  A. Landau,  K. V. Lawler,  D. Lefrancois,  
 S. Lehtola,  Rain Li,  Yi-Pei Li,  Jiashu Liang,  M. Liebenthal,  
 Hung-Hsuan Lin,  You-Sheng Lin,  Fenglai Liu,  Kuan-Yu Liu,  
 M. Loipersberger,  A. Luenser,  A. Manjanath,  P. Manohar,  E. Mansoor,  
 S. F. Manzer,  Shan-Ping Mao,  A. V. Marenich,  T. Markovich,  S. Mason,  
 S. A. Maurer,  P. F. McLaughlin,  M. F. S. J. Menger,  J.-M. Mewes,  
 S. A. Mewes,  P. Morgante,  J. W. Mullinax,  K. J. Oosterbaan,  G. Paran,  
 Alexander C. Paul,  Suranjan K. Paul,  F. Pavosevic,  Zheng Pei,  S. Prager,  
 E. I. Proynov,  E. Ramos,  B. Rana,  A. E. Rask,  A. Rettig,  R. M. Richard,  
 F. Rob,  E. Rossomme,  T. Scheele,  M. Scheurer,  M. Schneider,  
 N. Sergueev,  S. M. Sharada,  W. Skomorowski,  D. W. Small,  C. J. Stein,  
 Yu-Chuan Su,  E. J. Sundstrom,  Zhen Tao,  J. Thirman,  T. Tsuchimochi,  
 N. M. Tubman,  S. P. Veccham,  O. Vydrov,  J. Wenzel,  J. Witte,  A. Yamada,  
 Kun Yao,  S. Yeganeh,  S. R. Yost,  A. Zech,  Igor Ying Zhang,  Xing Zhang,  
 Yu Zhang,  D. Zuev,  A. Aspuru-Guzik,  A. T. Bell,  N. A. Besley,  
 K. B. Bravaya,  B. R. Brooks,  D. Casanova,  Jeng-Da Chai,  S. Coriani,  
 C. J. Cramer,  A. E. DePrince, III,  R. A. DiStasio Jr.,  A. Dreuw,  
 B. D. Dunietz,  T. R. Furlani,  W. A. Goddard III,  S. Grimme,  
 S. Hammes-Schiffer,  T. Head-Gordon,  W. J. Hehre,  Chao-Ping Hsu,  
 T.-C. Jagau,  Yousung Jung,  A. Klamt,  Jing Kong,  D. S. Lambrecht,  
 WanZhen Liang,  N. J. Mayhall,  C. W. McCurdy,  J. B. Neaton,  
 C. Ochsenfeld,  J. A. Parkhill,  R. Peverati,  V. A. Rassolov,  Yihan Shao,  
 L. V. Slipchenko,  T. Stauch,  R. P. Steele,  J. E. Subotnik,  
 A. J. W. Thom,  A. Tkatchenko,  D. G. Truhlar,  T. Van Voorhis,  
 T. A. Wesolowski,  K. B. Whaley,  H. L. Woodcock III,  P. M. Zimmerman,  
 S. Faraji,  P. M. W. Gill,  M. Head-Gordon,  J. M. Herbert,  A. I. Krylov

 Additional authors for Version 5.4.1: 
 S. Kotaru,  Shaozhi Li,  Xiangyuan Li,  F. Matz,  A. Molle,  Haisheng Ren,  
 Yingli Su,  Hung-Yi Tsai,  C. Utku,  Fang Wang

 Contributors to earlier versions of Q-Chem not listed above: 
 R. D. Adamson,  B. Austin,  R. Baer,  J. Baker,  G. J. O. Beran,  
 K. Brandhorst,  S. T. Brown,  E. F. C. Byrd,  A. K. Chakraborty,  
 G. K. L. Chan,  Chun-Min Chang,  Yunqing Chen,  C.-L. Cheng,  
 Siu Hung Chien,  D. M. Chipman,  D. L. Crittenden,  H. Dachsel,  
 R. J. Doerksen,  A. D. Dutoi,  R. G. Edgar,  J. Fosso-Tande,  
 L. Fusti-Molnar,  D. Ghosh,  A. Ghysels,  A. Golubeva-Zadorozhnaya,  
 J. Gonthier,  M. S. Gordon,  S. R. Gwaltney,  G. Hawkins,  J. E. Herr,  
 A. Heyden,  S. Hirata,  E. G. Hohenstein,  G. Kedziora,  F. J. Keil,  
 C. Kelley,  Jihan Kim,  R. A. King,  R. Z. Khaliullin,  P. P. Korambath,  
 W. Kurlancheek,  A. Laurent,  A. M. Lee,  M. S. Lee,  S. V. Levchenko,  
 Ching Yeh Lin,  D. Liotard,  E. Livshits,  R. C. Lochan,  I. Lotan,  
 L. A. Martinez-Martinez,  P. E. Maslen,  N. Nair,  D. P. O'Neill,  
 D. Neuhauser,  E. Neuscamman,  C. M. Oana,  R. Olivares-Amaya,  R. Olson,  
 T. M. Perrine,  B. Peters,  P. A. Pieniazek,  A. Prociuk,  Y. M. Rhee,  
 J. Ritchie,  M. A. Rohrdanz,  E. Rosta,  N. J. Russ,  H. F. Schaefer III,  
 M. W. Schmidt,  N. E. Schultz,  S. Sharma,  N. Shenvi,  C. D. Sherrill,  
 A. C. Simmonett,  A. Sodt,  T. Stein,  D. Stuck,  K. S. Thanthiriwatte,  
 V. Vanovschi,  L. Vogt,  Tao Wang,  A. Warshel,  M. A. Watson,  
 C. F. Williams,  Q. Wu,  X. Xu,  Jun Yang,  W. Zhang,  Yan Zhao

 Please cite Q-Chem as follows:
 Y. Shao et al., Mol. Phys. 113, 184-215 (2015)
 DOI: 10.1080/00268976.2014.952696

 Q-Chem 5.4.1 for Intel X86 EM64T Linux

 Parts of Q-Chem use Armadillo 9.800.1 (Horizon Scraper).
 http://arma.sourceforge.net/

 Q-Chem begins on Thu Nov 17 00:22:07 2022  

 Host: cpu318.baobab
0

     Scratch files written to /scratch/fum/qchem75788//
 Processing $rem in /home/share/wesolowski/qc5.aug2021.FDE/config/preferences:
 Processing $rem in /home/fum/.qchemrc:

 Checking the input file for inconsistencies... 	...done.

--------------------------------------------------------------
User input:
--------------------------------------------------------------
$comment
generated from CCJob.Templates
$end

$rem
sym_ignore = true
method = adc(2)
ee_states = 10
basis = cc-pVDZ
mem_static = 1024
mem_total = 30000
adc_davidson_maxiter = 900
adc_davidson_conv = 6
adc_print = 3
adc_prop_es = true
adc_prop_es2es = true
adc_prop_tpa = true
molden_format = True
state_analysis = true
print_orbitals = 15
gen_scfman = false
fde_export_density = true
fde_details = 3
$end

$molecule
0 1
H -0.0348278765 -0.2442097827 0.0636489606
C -1.0765972949 -0.5242748755 -0.0023551776
H -1.313264467 -1.5767591607 -0.0757276926
C -2.043634118 0.3926884087 0.0061254933
H -1.8137616575 1.4459188338 0.0804456828
H -3.085977293 0.119931858 -0.0593381042                     
$end
--------------------------------------------------------------
 ----------------------------------------------------------------
             Standard Nuclear Orientation (Angstroms)
    I     Atom           X                Y                Z
 ----------------------------------------------------------------
    1      H      -0.0348278765    -0.2442097827     0.0636489606
    2      C      -1.0765972949    -0.5242748755    -0.0023551776
    3      H      -1.3132644670    -1.5767591607    -0.0757276926
    4      C      -2.0436341180     0.3926884087     0.0061254933
    5      H      -1.8137616575     1.4459188338     0.0804456828
    6      H      -3.0859772930     0.1199318580    -0.0593381042
 ----------------------------------------------------------------
 Nuclear Repulsion Energy =          33.42625815 hartrees
 There are        8 alpha and        8 beta electrons
 Requested basis set is cc-pVDZ
 There are 24 shells and 48 basis functions
 Total memory of 30000 MB is distributed as follows: 
   MEM_STATIC is set to 1024 MB
   QALLOC/CCMAN JOB total memory use is  28976 MB
 Warning: actual memory use might exceed 30000 MB

 Total QAlloc Memory Limit  30000 MB
 Mega-Array Size      1001 MB
 MEM_STATIC part      1024 MB

                       Distance Matrix (Angstroms)
             H (  1)   C (  2)   H (  3)   C (  4)   H (  5)
   C (  2)  1.080776
   H (  3)  1.851895  1.081258
   C (  4)  2.108139  1.332687  2.102109
   H (  5)  2.453859  2.105215  3.067812  1.080583
   H (  6)  3.075262  2.110890  2.453883  1.079426  1.842909

 A cutoff of  1.0D-11 yielded    300 shell pairs
 There are      1220 function pairs (      1329 Cartesian)
 Smallest overlap matrix eigenvalue = 4.80E-03

 Scale SEOQF with 1.000000e-01/1.000000e-01/1.000000e+00

 Standard Electronic Orientation quadrupole field applied
 Nucleus-field energy     =     0.0000000022 hartrees
 Guess from superposition of atomic densities
 Warning:  Energy on first SCF cycle will be non-variational
 SAD guess density has 16.000000 electrons
 A restricted Hartree-Fock SCF calculation will be
 performed using Pulay DIIS extrapolation
 SCF converges when DIIS error is below 1.0E-08
 using 8 threads for integral computing
 -------------------------------------------------------
 OpenMP Integral computing Module                
 Release: version 1.0, May 2013, Q-Chem Inc. Pittsburgh 
 -------------------------------------------------------
 ---------------------------------------
  Cycle       Energy         DIIS Error
 ---------------------------------------
    1     -78.4395751135      1.01E-01
    2     -78.0176820641      7.21E-03
    3     -78.0383159757      1.84E-03
    4     -78.0397988939      5.73E-04
    5     -78.0399204771      5.81E-05
    6     -78.0399223561      9.65E-06
    7     -78.0399224179      2.83E-06
    8     -78.0399224215      1.12E-06
    9     -78.0399224220      9.27E-08
   10     -78.0399224220      1.56E-08
   11     -78.0399224220      4.73E-09 Convergence criterion met
 ---------------------------------------
 SCF time:  CPU 3.09 s  wall 2.31 s
 SCF   energy in the final basis set = -78.03992242
 Total energy in the final basis set = -78.03992242
Exporting Density Matrix to file 'Densmat_SCF.txt'.
Export successful
================================================================================
|                                                                              |
|                                 A D C  M A N                                 |
|                                                                              |
 ------------------------------------------------------------------------------ 
|                                                                              |
| Components:                                                                  |
|                                                                              |
| - libvmm - 1.3-trunk                                                         |
|   Authors:                                                                   |
|   Evgeny Epifanovsky, Ilya Kaliman                                           |
|                                                                              |
| - libtensor - 2.5-trunk                                                      |
|   Authors:                                                                   |
|   Evgeny Epifanovsky, Michael Wormit, Dmitry Zuev, Sam Manzer,               |
|   Ilya Kaliman                                                               |
|                                                                              |
| - libwfa - 1.1-trunk                                                         |
|   Authors:                                                                   |
|   Felix Plasser, Stefanie Mewes (Baeppler), Benjamin Thomitzni,              |
|   Michael Wormit, Feng Chen, Anna I. Krylov, Pavel Pokhilko                  |
|                                                                              |
| - libadc - 1.1-trunk                                                         |
|   Authors:                                                                   |
|   Michael Wormit, Adrian L. Dempwolff, Philipp H. P. Harbach,                |
|   Caroline Krauter, Dirk Rehn, Matthias Schneider, Jan Wenzel                |
|                                                                              |
| - adcman - 2.6-trunk                                                         |
|   Authors:                                                                   |
|   Michael Wormit, Adrian L. Dempwolff, Philipp H. P. Harbach,                |
|   Caroline Krauter, Daniel Lefrancois, Jan-Michael Mewes, Dirk Rehn,         |
|   Matthias Schneider, Jan Wenzel, Andreas Dreuw                              |
|                                                                              |
| Authors of earlier versions of ADCMAN:                                       |
| Andreas Dreuw, Jan Hendrik Starcke, Dirk Rehn, Michael Wormit                |
|                                                                              |
================================================================================

 Created directory /scratch/fum/qchem75788/plots
  Import QC data ...  CPU 0.00 s  wall 0.02 s

 Alpha MOs, Restricted
 -- Occupied --                  
-11.235 -11.233  -1.032  -0.790  -0.641  -0.582  -0.505  -0.374
  1 A     2 A     3 A     4 A     5 A     6 A     7 A     8 A                  
 -- Virtual --                   
  0.168   0.204   0.233   0.239   0.303   0.462   0.578   0.615
  9 A    10 A    11 A    12 A    13 A    14 A    15 A    16 A                  
  0.689   0.709   0.785   0.808   0.862   0.936   0.973   1.010
 17 A    18 A    19 A    20 A    21 A    22 A    23 A    24 A                  
  1.131   1.235   1.253   1.265   1.294   1.601   1.728   1.752
 25 A    26 A    27 A    28 A    29 A    30 A    31 A    32 A                  
  1.819   1.858   1.867   1.921   1.976   1.979   2.223   2.258
 33 A    34 A    35 A    36 A    37 A    38 A    39 A    40 A                  
  2.375   2.454   2.508   2.636   2.721   2.823   3.139   3.401
 41 A    42 A    43 A    44 A    45 A    46 A    47 A    48 A                  

 Beta MOs, Restricted
 -- Occupied --                  
-11.235 -11.233  -1.032  -0.790  -0.641  -0.582  -0.505  -0.374
  1 A     2 A     3 A     4 A     5 A     6 A     7 A     8 A                  
 -- Virtual --                   
  0.168   0.204   0.233   0.239   0.303   0.462   0.578   0.615
  9 A    10 A    11 A    12 A    13 A    14 A    15 A    16 A                  
  0.689   0.709   0.785   0.808   0.862   0.936   0.973   1.010
 17 A    18 A    19 A    20 A    21 A    22 A    23 A    24 A                  
  1.131   1.235   1.253   1.265   1.294   1.601   1.728   1.752
 25 A    26 A    27 A    28 A    29 A    30 A    31 A    32 A                  
  1.819   1.858   1.867   1.921   1.976   1.979   2.223   2.258
 33 A    34 A    35 A    36 A    37 A    38 A    39 A    40 A                  
  2.375   2.454   2.508   2.636   2.721   2.823   3.139   3.401
 41 A    42 A    43 A    44 A    45 A    46 A    47 A    48 A                  
  Import AO data ...  CPU 0.00 s  wall 0.25 s
  Using point group: C1
  Irreducible representations in point group: A
  Molecular orbitals: 
  Occupied MOs:
  Block   0:   1 (  A) A   2 (  A) A   3 (  A) A   4 (  A) A   5 (  A) A
                  -11.24      -11.23      -1.032     -0.7901      -0.641
               6 (  A) A   7 (  A) A   8 (  A) A
                 -0.5823     -0.5045      -0.374
  Block   1:   1 (  A) B   2 (  A) B   3 (  A) B   4 (  A) B   5 (  A) B
                  -11.24      -11.23      -1.032     -0.7901      -0.641
               6 (  A) B   7 (  A) B   8 (  A) B
                 -0.5823     -0.5045      -0.374
  Virtual MOs:
  Block   0:   9 (  A) A  10 (  A) A  11 (  A) A  12 (  A) A  13 (  A) A
                  0.1684      0.2038      0.2331      0.2393      0.3033
              14 (  A) A  15 (  A) A  16 (  A) A  17 (  A) A  18 (  A) A
                  0.4623      0.5778      0.6146      0.6891      0.7093
              19 (  A) A  20 (  A) A  21 (  A) A  22 (  A) A
                  0.7846       0.808      0.8623       0.936
  Block   1:  23 (  A) A  24 (  A) A  25 (  A) A  26 (  A) A  27 (  A) A
                  0.9726        1.01       1.131       1.235       1.253
              28 (  A) A  29 (  A) A  30 (  A) A  31 (  A) A  32 (  A) A
                   1.265       1.294       1.601       1.728       1.752
              33 (  A) A  34 (  A) A  35 (  A) A  36 (  A) A
                   1.819       1.858       1.867       1.921
  Block   2:  37 (  A) A  38 (  A) A  39 (  A) A  40 (  A) A  41 (  A) A
                   1.976       1.979       2.223       2.258       2.375
              42 (  A) A  43 (  A) A  44 (  A) A  45 (  A) A  46 (  A) A
                   2.454       2.508       2.636       2.721       2.823
              47 (  A) A  48 (  A) A
                   3.139       3.401
  Block   3:   9 (  A) B  10 (  A) B  11 (  A) B  12 (  A) B  13 (  A) B
                  0.1684      0.2038      0.2331      0.2393      0.3033
              14 (  A) B  15 (  A) B  16 (  A) B  17 (  A) B  18 (  A) B
                  0.4623      0.5778      0.6146      0.6891      0.7093
              19 (  A) B  20 (  A) B  21 (  A) B  22 (  A) B
                  0.7846       0.808      0.8623       0.936
  Block   4:  23 (  A) B  24 (  A) B  25 (  A) B  26 (  A) B  27 (  A) B
                  0.9726        1.01       1.131       1.235       1.253
              28 (  A) B  29 (  A) B  30 (  A) B  31 (  A) B  32 (  A) B
                   1.265       1.294       1.601       1.728       1.752
              33 (  A) B  34 (  A) B  35 (  A) B  36 (  A) B
                   1.819       1.858       1.867       1.921
  Block   5:  37 (  A) B  38 (  A) B  39 (  A) B  40 (  A) B  41 (  A) B
                   1.976       1.979       2.223       2.258       2.375
              42 (  A) B  43 (  A) B  44 (  A) B  45 (  A) B  46 (  A) B
                   2.454       2.508       2.636       2.721       2.823
              47 (  A) B  48 (  A) B
                   3.139       3.401
  Import MO data ...  CPU 0.01 s  wall 0.43 s
  Import HF data ...  CPU 1.50 s  wall 0.50 s
  Import 2e integrals ...  CPU 3.65 s  wall 0.56 s

--------------------------------------------------------------------------------
                                   HF Summary                                   
--------------------------------------------------------------------------------
  Energy:                                                  -78.0399224220 a.u.
  Dip. moment [a.u.]:                  [  -0.001244,    0.001036,    0.000376]
  Total dipole [Debye]:                                               0.004225
  <r^2> [a.u.]:                        [ 175.311557,   34.925516,   11.624604]
  Total <r^2> [a.u.]:                                               221.861677
--------------------------------------------------------------------------------
  HF properties ...  CPU 0.01 s  wall 0.00 s
  MP(1) calculation ...  CPU 0.00 s  wall 0.00 s
  N^6 prerequesite intermediates ...  CPU 0.34 s  wall 0.07 s
  Difference density matrix of state mp2_gs printed to ASCII file 'State_mp2_gs_Difference.txt'
Exporting MP density matrix to file 'Densmat_MP.txt'.
Export successful
  Total density matrix of state mp2_gs printed to ASCII file 'State_mp2_gs_Total.txt'
Exporting MP density matrix to file 'Densmat_MP.txt'.
Export successful

--------------------------------------------------------------------------------
                                 MP(2) Summary                                  
--------------------------------------------------------------------------------
  MP energy contribution:                                   -0.2796835069 a.u.
  Total energy:                                            -78.3196059289 a.u.
  Dip. moment [a.u.]:                  [  -0.001137,    0.000964,    0.000372]
  Total dipole [Debye]:                                               0.003905
  <r^2> [a.u.]:                        [ 175.359145,   34.965905,   11.456543]
  Total <r^2> [a.u.]:                                               221.781592

  Density matrix analysis:
  ------------------------
  NOs
    Occupation of frontier NOs:
       0.0453   1.9383
    Number of electrons: 16.000000
    Number of unpaired electrons: n_u =  0.40334, n_u,nl =  0.04506
    NO participation ratio (PR_NO): 13.856387
  
  
  Mulliken Population Analysis
  Atom      Charge (e)              h+              e-           Del q
  --------------------------------------------------------------------
   1 H        0.051045        0.014024       -0.011202        0.002822
   2 C       -0.100653        0.093274       -0.098832       -0.005558
   3 H        0.050595        0.014071       -0.011191        0.002880
   4 C       -0.101141        0.092841       -0.098887       -0.006046
   5 H        0.049919        0.014151       -0.011175        0.002976
   6 H        0.050236        0.014112       -0.011186        0.002926
  --------------------------------------------------------------------
  Sum:       -0.000000        0.242473       -0.242473        0.000000
  
  Multipole moment analysis of the density matrix
    Molecular charge:                      -0.000000
    Number of electrons:                   16.000000
      Center of electronic charge [Ang]: [ -1.560539,  -0.065322,   0.001966]
    Total nuclear charge:                  16.000000
      Center of nuclear charge [Ang]:    [ -1.560576,  -0.065290,   0.001978]
    Dipole moment [D]:                     0.003905
      Cartesian components [D]:          [ -0.002890,   0.002451,   0.000945]
    RMS size of the density [Ang]:         1.200842
      Cartesian components [Ang]:        [  0.796126,   0.779550,   0.447779]
  
  Exciton analysis of the difference density matrix
    <r_h> [Ang]:                  [ -1.560104,  -0.065655,   0.001907]
    <r_e> [Ang]:                  [ -1.560338,  -0.065499,   0.001915]
    |<r_e - r_h>| [Ang]:            0.000282
    Hole size [Ang]:                1.393660
      Cartesian components [Ang]: [  0.846442,   0.834328,   0.727820]
    Electron size [Ang]:            1.359812
      Cartesian components [Ang]: [  0.877890,   0.861839,   0.579336]
--------------------------------------------------------------------------------
  MP(2) calculation ...  CPU 0.44 s  wall 0.19 s
  Start ADC(2)-s ...  CPU 0.16 s  wall 0.05 s
  ADC(2) intermediates ...  CPU 0.37 s  wall 0.09 s
  Starting Davidson for singlet states of irrep A ... 
--------------------------------------------------------------------------------
   It NVec Conv  Avg. Norm  Max. Norm  Conv. states           Remark
--------------------------------------------------------------------------------
        10    0  1.330e-01  4.689e-01  0.4120 n n n n n n n n Guess.
    1   20    0  2.307e-02  1.110e-01  0.3262 n n n n n n n n 
    2   30    0  5.872e-03  2.611e-02  0.3215 n n n n n n n n 
    3   40    0  2.060e-03  1.456e-02  0.3211 n n n n n n n n 
    4   50    0  6.351e-04  4.828e-03  0.3211 n n n n n n n n 
    5   20    0  2.747e-04  2.033e-03  0.3211 n n n n n n n n Subspace collapsed.
    6   30    0  1.899e-04  1.719e-03  0.3211 n n n n n n n n 
    7   40    0  1.027e-04  8.454e-04  0.3211 n n n n n n n n 
    8   50    0  1.326e-04  1.285e-03  0.3211 n n n n n n n n 
    9   20    2  7.311e-05  6.999e-04  0.3211 n y n y n n n n Subspace collapsed.
   10   30    4  9.757e-05  9.642e-04  0.3211 n y y y y n n n 
   11   40    5  1.021e-04  1.019e-03  0.3211 n y y y y y n n 
   12   50    6  1.052e-04  1.052e-03  0.3211 y y y y y y n n 
   13   20    6  5.416e-05  5.414e-04  0.3211 y y y y y y n n Subspace collapsed.
   14   30    6  4.404e-05  4.403e-04  0.3211 y y y y y y n n 
   15   40    7  2.228e-05  2.227e-04  0.3211 y y y y y y n y 
   16   50    6  4.086e-05  4.086e-04  0.3211 y y y y y y n n 
   17   20    7  1.736e-05  1.736e-04  0.3211 y y y y y y n y Subspace collapsed.
   18   30    7  2.515e-05  2.515e-04  0.3211 y y y y y y n y 
   19   40    8  2.768e-05  2.768e-04  0.3211 y y y y y y y y 
   20   50    9  2.921e-05  2.921e-04  0.3211 y y y y y y y y 
   21   20    9  1.354e-05  1.354e-04  0.3211 y y y y y y y y Subspace collapsed.
   22   30    9  1.008e-05  1.008e-04  0.3211 y y y y y y y y 
   23   39    9  7.412e-06  7.412e-05  0.3211 y y y y y y y y 
   24   47    9  1.028e-05  1.028e-04  0.3211 y y y y y y y y 
   25   50    9  1.187e-05  1.187e-04  0.3211 y y y y y y y y 
   26   15    9  4.629e-06  4.629e-05  0.3211 y y y y y y y y Subspace collapsed.
   27   20    9  5.861e-06  5.861e-05  0.3211 y y y y y y y y 
   28   25    9  5.223e-06  5.223e-05  0.3211 y y y y y y y y 
   29   29    9  5.490e-06  5.490e-05  0.3211 y y y y y y y y 
   30   33    9  4.632e-06  4.632e-05  0.3211 y y y y y y y y 
   31   37    9  4.186e-06  4.186e-05  0.3211 y y y y y y y y 
   32   41    9  2.533e-06  2.533e-05  0.3211 y y y y y y y y 
   33   45    9  1.307e-06  1.307e-05  0.3211 y y y y y y y y 
   34   49    9  6.219e-07  6.219e-06  0.3211 y y y y y y y y 
   35   50    9  5.387e-07  5.387e-06  0.3211 y y y y y y y y 
   36   14    9  2.441e-07  2.441e-06  0.3211 y y y y y y y y Subspace collapsed.
   37   18    9  1.459e-07  1.459e-06  0.3211 y y y y y y y y 
   38   22   10  6.938e-08  6.938e-07  0.3211 y y y y y y y y Converged.
--------------------------------------------------------------------------------
  Davidson Summary: 
 ------------------------------------------------------------
  State  0: excitation energy =   0.3211 a.u.   (converged)
  State  1: excitation energy =   0.3326 a.u.   (converged)
  State  2: excitation energy =   0.3372 a.u.   (converged)
  State  3: excitation energy =   0.3614 a.u.   (converged)
  State  4: excitation energy =   0.3754 a.u.   (converged)
  State  5: excitation energy =   0.3873 a.u.   (converged)
  State  6: excitation energy =   0.4248 a.u.   (converged)
  State  7: excitation energy =   0.4470 a.u.   (converged)
  State  8: excitation energy =   0.4563 a.u.   (converged)
  State  9: excitation energy =   0.4647 a.u.   (converged)
 ------------------------------------------------------------

  Singlet states of irrep A ...  CPU 261.27 s  wall 70.44 s
  TDMs ...  CPU 4.22 s  wall 1.10 s
  SDMs ...  CPU 9.28 s  wall 2.19 s
  Starting TPA DIIS iterations ... 
------------------------------------ 
   It     Res. Norm  Remark
------------------------------------
                       Guess.
    1     4.408e+00  
    2     5.843e+00  
    3     1.077e+00  
    4     2.563e-01  
    5     6.573e-02  
    6     2.673e-02  
    7     8.238e-03  
    8     1.437e-03  
    9     5.338e-04  
   10     8.986e-05  
   11     2.817e-05  
   12     4.391e-06  
   13     1.421e-06  
   14     4.462e-07  Converged.
   ... Converged in 14 steps (norm: 4.46214e-07)
------------------------------------
  Starting TPA DIIS iterations ... 
------------------------------------ 
   It     Res. Norm  Remark
------------------------------------
                       Guess.
    1     4.184e+00  
    2     5.542e+00  
    3     1.030e+00  
    4     2.556e-01  
    5     6.532e-02  
    6     2.675e-02  
    7     8.125e-03  
    8     1.456e-03  
    9     5.377e-04  
   10     9.002e-05  
   11     2.843e-05  
   12     4.363e-06  
   13     1.434e-06  
   14     4.407e-07  Converged.
   ... Converged in 14 steps (norm: 4.40712e-07)
------------------------------------
  Starting TPA DIIS iterations ... 
------------------------------------ 
   It     Res. Norm  Remark
------------------------------------
                       Guess.
    1     6.873e-01  
    2     4.829e-01  
    3     1.705e-01  
    4     6.030e-02  
    5     1.830e-02  
    6     6.620e-03  
    7     1.034e-03  
    8     4.461e-04  
    9     1.234e-04  
   10     2.918e-05  
   11     4.981e-06  
   12     1.525e-06  
   13     7.807e-07  Converged.
   ... Converged in 13 steps (norm: 7.80696e-07)
------------------------------------
  Starting TPA DIIS iterations ... 
------------------------------------ 
   It     Res. Norm  Remark
------------------------------------
                       Guess.
    1     4.693e+00  
    2     6.356e+00  
    3     1.157e+00  
    4     2.846e-01  
    5     7.399e-02  
    6     3.034e-02  
    7     9.333e-03  
    8     1.626e-03  
    9     6.084e-04  
   10     1.030e-04  
   11     3.260e-05  
   12     5.127e-06  
   13     1.673e-06  
   14     5.277e-07  Converged.
   ... Converged in 14 steps (norm: 5.27674e-07)
------------------------------------
  Starting TPA DIIS iterations ... 
------------------------------------ 
   It     Res. Norm  Remark
------------------------------------
                       Guess.
    1     4.454e+00  
    2     6.027e+00  
    3     1.107e+00  
    4     2.836e-01  
    5     7.355e-02  
    6     3.039e-02  
    7     9.209e-03  
    8     1.648e-03  
    9     6.129e-04  
   10     1.032e-04  
   11     3.289e-05  
   12     5.092e-06  
   13     1.686e-06  
   14     5.213e-07  Converged.
   ... Converged in 14 steps (norm: 5.2133e-07)
------------------------------------
  Starting TPA DIIS iterations ... 
------------------------------------ 
   It     Res. Norm  Remark
------------------------------------
                       Guess.
    1     6.992e-01  
    2     5.002e-01  
    3     1.803e-01  
    4     6.817e-02  
    5     1.970e-02  
    6     7.231e-03  
    7     1.167e-03  
    8     5.249e-04  
    9     1.488e-04  
   10     3.334e-05  
   11     5.613e-06  
   12     1.793e-06  
   13     9.734e-07  Converged.
   ... Converged in 13 steps (norm: 9.73437e-07)
------------------------------------
  Starting TPA DIIS iterations ... 
------------------------------------ 
   It     Res. Norm  Remark
------------------------------------
                       Guess.
    1     4.813e+00  
    2     6.575e+00  
    3     1.191e+00  
    4     2.969e-01  
    5     7.758e-02  
    6     3.192e-02  
    7     9.810e-03  
    8     1.708e-03  
    9     6.410e-04  
   10     1.087e-04  
   11     3.456e-05  
   12     5.454e-06  
   13     1.785e-06  
   14     5.642e-07  Converged.
   ... Converged in 14 steps (norm: 5.64199e-07)
------------------------------------
  Starting TPA DIIS iterations ... 
------------------------------------ 
   It     Res. Norm  Remark
------------------------------------
                       Guess.
    1     4.568e+00  
    2     6.234e+00  
    3     1.139e+00  
    4     2.958e-01  
    5     7.712e-02  
    6     3.198e-02  
    7     9.680e-03  
    8     1.732e-03  
    9     6.457e-04  
   10     1.089e-04  
   11     3.486e-05  
   12     5.415e-06  
   13     1.798e-06  
   14     5.576e-07  Converged.
   ... Converged in 14 steps (norm: 5.57554e-07)
------------------------------------
  Starting TPA DIIS iterations ... 
------------------------------------ 
   It     Res. Norm  Remark
------------------------------------
                       Guess.
    1     7.040e-01  
    2     5.072e-01  
    3     1.844e-01  
    4     7.165e-02  
    5     2.028e-02  
    6     7.496e-03  
    7     1.225e-03  
    8     5.602e-04  
    9     1.601e-04  
   10     3.481e-05  
   11     5.882e-06  
   12     1.913e-06  
   13     1.064e-06  
   14     3.566e-07  Converged.
   ... Converged in 14 steps (norm: 3.56574e-07)
------------------------------------
  Starting TPA DIIS iterations ... 
------------------------------------ 
   It     Res. Norm  Remark
------------------------------------
                       Guess.
    1     5.552e+00  
    2     7.952e+00  
    3     1.398e+00  
    4     3.767e-01  
    5     1.009e-01  
    6     4.226e-02  
    7     1.291e-02  
    8     2.238e-03  
    9     8.545e-04  
   10     1.464e-04  
   11     4.769e-05  
   12     7.644e-06  
   13     2.557e-06  
   14     8.179e-07  Converged.
   ... Converged in 14 steps (norm: 8.17892e-07)
------------------------------------
  Starting TPA DIIS iterations ... 
------------------------------------ 
   It     Res. Norm  Remark
------------------------------------
                       Guess.
    1     5.267e+00  
    2     7.540e+00  
    3     1.336e+00  
    4     3.746e-01  
    5     1.003e-01  
    6     4.242e-02  
    7     1.275e-02  
    8     2.273e-03  
    9     8.606e-04  
   10     1.467e-04  
   11     4.801e-05  
   12     7.582e-06  
   13     2.567e-06  
   14     8.106e-07  Converged.
   ... Converged in 14 steps (norm: 8.10584e-07)
------------------------------------
  Starting TPA DIIS iterations ... 
------------------------------------ 
   It     Res. Norm  Remark
------------------------------------
                       Guess.
    1     7.308e-01  
    2     5.485e-01  
    3     2.088e-01  
    4     9.492e-02  
    5     2.381e-02  
    6     9.225e-03  
    7     1.621e-03  
    8     7.953e-04  
    9     2.344e-04  
   10     4.030e-05  
   11     7.573e-06  
   12     2.746e-06  
   13     1.739e-06  
   14     5.281e-07  Converged.
   ... Converged in 14 steps (norm: 5.28136e-07)
------------------------------------
  Starting TPA DIIS iterations ... 
------------------------------------ 
   It     Res. Norm  Remark
------------------------------------
                       Guess.
    1     6.066e+00  
    2     8.944e+00  
    3     1.541e+00  
    4     4.364e-01  
    5     1.183e-01  
    6     5.008e-02  
    7     1.522e-02  
    8     2.633e-03  
    9     1.016e-03  
   10     1.749e-04  
   11     5.784e-05  
   12     9.342e-06  
   13     3.173e-06  
   14     1.027e-06  
   15     3.639e-07  Converged.
   ... Converged in 15 steps (norm: 3.63874e-07)
------------------------------------
  Starting TPA DIIS iterations ... 
------------------------------------ 
   It     Res. Norm  Remark
------------------------------------
                       Guess.
    1     5.753e+00  
    2     8.480e+00  
    3     1.472e+00  
    4     4.335e-01  
    5     1.177e-01  
    6     5.033e-02  
    7     1.504e-02  
    8     2.676e-03  
    9     1.023e-03  
   10     1.753e-04  
   11     5.814e-05  
   12     9.263e-06  
   13     3.176e-06  
   14     1.021e-06  
   15     3.242e-07  Converged.
   ... Converged in 15 steps (norm: 3.24208e-07)
------------------------------------
  Starting TPA DIIS iterations ... 
------------------------------------ 
   It     Res. Norm  Remark
------------------------------------
                       Guess.
    1     7.472e-01  
    2     5.753e-01  
    3     2.252e-01  
    4     1.130e-01  
    5     2.630e-02  
    6     1.053e-02  
    7     1.934e-03  
    8     9.663e-04  
    9     2.876e-04  
   10     4.161e-05  
   11     8.822e-06  
   12     3.413e-06  
   13     2.328e-06  
   14     6.636e-07  Converged.
   ... Converged in 14 steps (norm: 6.63568e-07)
------------------------------------
  Starting TPA DIIS iterations ... 
------------------------------------ 
   It     Res. Norm  Remark
------------------------------------
                       Guess.
    1     6.567e+00  
    2     9.935e+00  
    3     1.679e+00  
    4     4.976e-01  
    5     1.361e-01  
    6     5.817e-02  
    7     1.760e-02  
    8     3.036e-03  
    9     1.183e-03  
   10     2.044e-04  
   11     6.843e-05  
   12     1.112e-05  
   13     3.830e-06  
   14     1.258e-06  
   15     4.547e-07  Converged.
   ... Converged in 15 steps (norm: 4.54702e-07)
------------------------------------
  Starting TPA DIIS iterations ... 
------------------------------------ 
   It     Res. Norm  Remark
------------------------------------
                       Guess.
    1     6.227e+00  
    2     9.419e+00  
    3     1.604e+00  
    4     4.938e-01  
    5     1.355e-01  
    6     5.851e-02  
    7     1.739e-02  
    8     3.088e-03  
    9     1.190e-03  
   10     2.049e-04  
   11     6.869e-05  
   12     1.102e-05  
   13     3.821e-06  
   14     1.256e-06  
   15     3.994e-07  Converged.
   ... Converged in 15 steps (norm: 3.99445e-07)
------------------------------------
  Starting TPA DIIS iterations ... 
------------------------------------ 
   It     Res. Norm  Remark
------------------------------------
                       Guess.
    1     7.617e-01  
    2     6.001e-01  
    3     2.407e-01  
    4     1.318e-01  
    5     2.880e-02  
    6     1.187e-02  
    7     2.267e-03  
    8     1.128e-03  
    9     3.385e-04  
   10     4.225e-05  
   11     1.012e-05  
   12     4.125e-06  
   13     2.987e-06  
   14     8.064e-07  Converged.
   ... Converged in 14 steps (norm: 8.06417e-07)
------------------------------------
  Starting TPA DIIS iterations ... 
------------------------------------ 
   It     Res. Norm  Remark
------------------------------------
                       Guess.
    1     8.675e+00  
    2     1.435e+01  
    3     2.252e+00  
    4     7.824e-01  
    5     2.193e-01  
    6     9.665e-02  
    7     2.867e-02  
    8     4.906e-03  
    9     1.973e-03  
   10     3.436e-04  
   11     1.185e-04  
   12     1.967e-05  
   13     7.043e-06  
   14     2.587e-06  
   15     9.639e-07  Converged.
   ... Converged in 15 steps (norm: 9.63947e-07)
------------------------------------
  Starting TPA DIIS iterations ... 
------------------------------------ 
   It     Res. Norm  Remark
------------------------------------
                       Guess.
    1     8.224e+00  
    2     1.360e+01  
    3     2.149e+00  
    4     7.737e-01  
    5     2.184e-01  
    6     9.751e-02  
    7     2.836e-02  
    8     4.997e-03  
    9     1.983e-03  
   10     3.443e-04  
   11     1.184e-04  
   12     1.955e-05  
   13     6.923e-06  
   14     2.634e-06  
   15     8.190e-07  Converged.
   ... Converged in 15 steps (norm: 8.18973e-07)
------------------------------------
  Starting TPA DIIS iterations ... 
------------------------------------ 
   It     Res. Norm  Remark
------------------------------------
                       Guess.
    1     8.118e-01  
    2     6.938e-01  
    3     3.024e-01  
    4     2.209e-01  
    5     4.012e-02  
    6     1.807e-02  
    7     3.928e-03  
    8     1.642e-03  
    9     5.348e-04  
   10     5.152e-05  
   11     1.646e-05  
   12     7.640e-06  
   13     6.562e-06  
   14     1.500e-06  
   15     5.297e-07  Converged.
   ... Converged in 15 steps (norm: 5.29716e-07)
------------------------------------
  Starting TPA DIIS iterations ... 
------------------------------------ 
   It     Res. Norm  Remark
------------------------------------
                       Guess.
    1     1.049e+01  
    2     1.842e+01  
    3     2.732e+00  
    4     1.055e+00  
    5     2.996e-01  
    6     1.347e-01  
    7     3.935e-02  
    8     6.699e-03  
    9     2.750e-03  
   10     4.794e-04  
   11     1.657e-04  
   12     2.825e-05  
   13     1.020e-05  
   14     4.252e-06  
   15     1.595e-06  
   16     9.307e-07  Converged.
   ... Converged in 16 steps (norm: 9.3068e-07)
------------------------------------
  Starting TPA DIIS iterations ... 
------------------------------------ 
   It     Res. Norm  Remark
------------------------------------
                       Guess.
    1     9.940e+00  
    2     1.746e+01  
    3     2.606e+00  
    4     1.040e+00  
    5     2.986e-01  
    6     1.361e-01  
    7     3.894e-02  
    8     6.827e-03  
    9     2.762e-03  
   10     4.801e-04  
   11     1.651e-04  
   12     2.826e-05  
   13     9.900e-06  
   14     4.401e-06  
   15     1.390e-06  
   16     1.103e-06  
   17     4.040e-07  Converged.
   ... Converged in 17 steps (norm: 4.0404e-07)
------------------------------------
  Starting TPA DIIS iterations ... 
------------------------------------ 
   It     Res. Norm  Remark
------------------------------------
                       Guess.
    1     8.451e-01  
    2     7.644e-01  
    3     3.513e-01  
    4     3.023e-01  
    5     5.073e-02  
    6     2.370e-02  
    7     5.591e-03  
    8     1.855e-03  
    9     6.849e-04  
   10     6.932e-05  
   11     2.293e-05  
   12     1.118e-05  
   13     1.052e-05  
   14     2.192e-06  
   15     7.931e-07  Converged.
   ... Converged in 15 steps (norm: 7.93122e-07)
------------------------------------
  Starting TPA DIIS iterations ... 
------------------------------------ 
   It     Res. Norm  Remark
------------------------------------
                       Guess.
    1     1.143e+01  
    2     2.063e+01  
    3     2.976e+00  
    4     1.203e+00  
    5     3.439e-01  
    6     1.559e-01  
    7     4.524e-02  
    8     7.685e-03  
    9     3.183e-03  
   10     5.544e-04  
   11     1.909e-04  
   12     3.315e-05  
   13     1.200e-05  
   14     5.319e-06  
   15     2.018e-06  
   16     1.239e-06  
   17     2.600e-07  Converged.
   ... Converged in 17 steps (norm: 2.59991e-07)
------------------------------------
  Starting TPA DIIS iterations ... 
------------------------------------ 
   It     Res. Norm  Remark
------------------------------------
                       Guess.
    1     1.083e+01  
    2     1.955e+01  
    3     2.839e+00  
    4     1.186e+00  
    5     3.428e-01  
    6     1.577e-01  
    7     4.478e-02  
    8     7.833e-03  
    9     3.195e-03  
   10     5.552e-04  
   11     1.901e-04  
   12     3.330e-05  
   13     1.157e-05  
   14     5.545e-06  
   15     1.812e-06  
   16     1.493e-06  
   17     5.464e-07  Converged.
   ... Converged in 17 steps (norm: 5.46403e-07)
------------------------------------
  Starting TPA DIIS iterations ... 
------------------------------------ 
   It     Res. Norm  Remark
------------------------------------
                       Guess.
    1     8.600e-01  
    2     7.984e-01  
    3     3.755e-01  
    4     3.434e-01  
    5     5.645e-02  
    6     2.658e-02  
    7     6.505e-03  
    8     1.915e-03  
    9     7.585e-04  
   10     8.009e-05  
   11     2.662e-05  
   12     1.322e-05  
   13     1.288e-05  
   14     2.589e-06  
   15     9.752e-07  Converged.
   ... Converged in 15 steps (norm: 9.75226e-07)
------------------------------------
  Starting TPA DIIS iterations ... 
------------------------------------ 
   It     Res. Norm  Remark
------------------------------------
                       Guess.
    1     1.241e+01  
    2     2.299e+01  
    3     3.228e+00  
    4     1.363e+00  
    5     3.919e-01  
    6     1.791e-01  
    7     5.162e-02  
    8     8.753e-03  
    9     3.656e-03  
   10     6.360e-04  
   11     2.179e-04  
   12     3.863e-05  
   13     1.405e-05  
   14     6.587e-06  
   15     2.549e-06  
   16     1.622e-06  
   17     3.361e-07  Converged.
   ... Converged in 17 steps (norm: 3.36115e-07)
------------------------------------
  Starting TPA DIIS iterations ... 
------------------------------------ 
   It     Res. Norm  Remark
------------------------------------
                       Guess.
    1     1.176e+01  
    2     2.179e+01  
    3     3.079e+00  
    4     1.341e+00  
    5     3.907e-01  
    6     1.813e-01  
    7     5.111e-02  
    8     8.922e-03  
    9     3.668e-03  
   10     6.367e-04  
   11     2.169e-04  
   12     3.901e-05  
   13     1.347e-05  
   14     6.910e-06  
   15     2.370e-06  
   16     1.985e-06  
   17     7.199e-07  Converged.
   ... Converged in 17 steps (norm: 7.19859e-07)
------------------------------------
  Starting TPA DIIS iterations ... 
------------------------------------ 
   It     Res. Norm  Remark
------------------------------------
                       Guess.
    1     8.742e-01  
    2     8.324e-01  
    3     4.000e-01  
    4     3.844e-01  
    5     6.255e-02  
    6     2.948e-02  
    7     7.482e-03  
    8     1.960e-03  
    9     8.333e-04  
   10     9.178e-05  
   11     3.073e-05  
   12     1.555e-05  
   13     1.561e-05  
   14     3.050e-06  
   15     1.223e-06  
   16     6.796e-07  Converged.
   ... Converged in 16 steps (norm: 6.79578e-07)
------------------------------------
  Two-photon absorbption ...  CPU 245.09 s  wall 59.25 s
  Transition density matrix of state singlet_A_1 printed to ASCII file 'State_singlet_A_1_Transition.txt'
  Transition density matrix of state singlet_A_2 printed to ASCII file 'State_singlet_A_2_Transition.txt'
  Transition density matrix of state singlet_A_3 printed to ASCII file 'State_singlet_A_3_Transition.txt'
  Transition density matrix of state singlet_A_4 printed to ASCII file 'State_singlet_A_4_Transition.txt'
  Transition density matrix of state singlet_A_5 printed to ASCII file 'State_singlet_A_5_Transition.txt'
  Transition density matrix of state singlet_A_6 printed to ASCII file 'State_singlet_A_6_Transition.txt'
  Transition density matrix of state singlet_A_7 printed to ASCII file 'State_singlet_A_7_Transition.txt'
  Transition density matrix of state singlet_A_8 printed to ASCII file 'State_singlet_A_8_Transition.txt'
  Transition density matrix of state singlet_A_9 printed to ASCII file 'State_singlet_A_9_Transition.txt'
  Transition density matrix of state singlet_A_10 printed to ASCII file 'State_singlet_A_10_Transition.txt'
  Transition properties ...  CPU 0.31 s  wall 0.32 s
  Difference density matrix of state singlet_A_1 printed to ASCII file 'State_singlet_A_1_Difference.txt'
  Total density matrix of state singlet_A_1 printed to ASCII file 'State_singlet_A_1_Total.txt'
  Difference density matrix of state singlet_A_2 printed to ASCII file 'State_singlet_A_2_Difference.txt'
  Total density matrix of state singlet_A_2 printed to ASCII file 'State_singlet_A_2_Total.txt'
  Difference density matrix of state singlet_A_3 printed to ASCII file 'State_singlet_A_3_Difference.txt'
  Total density matrix of state singlet_A_3 printed to ASCII file 'State_singlet_A_3_Total.txt'
  Difference density matrix of state singlet_A_4 printed to ASCII file 'State_singlet_A_4_Difference.txt'
  Total density matrix of state singlet_A_4 printed to ASCII file 'State_singlet_A_4_Total.txt'
  Difference density matrix of state singlet_A_5 printed to ASCII file 'State_singlet_A_5_Difference.txt'
  Total density matrix of state singlet_A_5 printed to ASCII file 'State_singlet_A_5_Total.txt'
  Difference density matrix of state singlet_A_6 printed to ASCII file 'State_singlet_A_6_Difference.txt'
  Total density matrix of state singlet_A_6 printed to ASCII file 'State_singlet_A_6_Total.txt'
  Difference density matrix of state singlet_A_7 printed to ASCII file 'State_singlet_A_7_Difference.txt'
  Total density matrix of state singlet_A_7 printed to ASCII file 'State_singlet_A_7_Total.txt'
  Difference density matrix of state singlet_A_8 printed to ASCII file 'State_singlet_A_8_Difference.txt'
  Total density matrix of state singlet_A_8 printed to ASCII file 'State_singlet_A_8_Total.txt'
  Difference density matrix of state singlet_A_9 printed to ASCII file 'State_singlet_A_9_Difference.txt'
  Total density matrix of state singlet_A_9 printed to ASCII file 'State_singlet_A_9_Total.txt'
  Difference density matrix of state singlet_A_10 printed to ASCII file 'State_singlet_A_10_Difference.txt'
  Total density matrix of state singlet_A_10 printed to ASCII file 'State_singlet_A_10_Total.txt'
  Properties ...  CPU 0.38 s  wall 0.47 s
  ISR TDMS ...  CPU 55.75 s  wall 13.74 s
  ISR transition properties ...  CPU 1.41 s  wall 0.39 s
  Sum-over-states TPA ...  CPU 0.00 s  wall 0.00 s

--------------------------------------------------------------------------------
                   State-averaged natural transition orbitals
--------------------------------------------------------------------------------
--------------------------------------------------------------------------------
  SA-NTO decomposition ...  CPU 0.01 s  wall 0.02 s

--------------------------------------------------------------------------------
                             Excited State Summary
--------------------------------------------------------------------------------
--------------------------------------------------------------------------------

  Excited state 1 (singlet, A)                                     [converged]
  ----------------------------------------------------------------------------
  Term symbol:  2 (1) A                                     R^2 =  7.21530e-13

  Total energy:                                            -77.9985367043 a.u.
  Excitation energy:                                               8.736738 eV

  Osc. strength:                                                      0.445578
  Trans. dip. moment [a.u.]:           [   1.045059,   -0.994712,   -0.009336]
  <i|r^2|0> [a.u.]:                    [   6.161642,   -0.247136,   -0.000340]
  Two-photon absorption cross-section (SoS) [a.u.]:                   0.001150
  Two-photon absorption matrix (SoS) [a.u.]:
                                       |    0.004766   -0.003803   -0.000689 |
                                       |   -0.003803    0.004792   -0.000183 |
                                       |   -0.000689   -0.000183    0.007809 |
  Two-photon absorption cross-section [a.u.]:                         0.000600
  Two-photon absorption matrix [a.u.]:
                                       |   -0.004653   -0.005141    0.000633 |
                                       |   -0.005141   -0.004471    0.001891 |
                                       |    0.000633    0.001891    0.006665 |

  Dip. moment [a.u.]:                  [  -0.000912,    0.000770,    0.000459]
  Total dipole [Debye]:                                               0.003252
  <r^2> [a.u.]:                        [ 176.114443,   35.655517,   11.866605]
  Total <r^2> [a.u.]:                                               223.636565

  V1^2 = 0.9715, V2^2 = 0.0285

  Important amplitudes:
      occ i     occ j     vir a      vir b          v   
    -----------------------------------------------------
     8 (A) A              9 (A) A                 0.6811
     6 (A) A             14 (A) A                 0.0623
     4 (A) A             10 (A) A                -0.0606
     7 (A) A             16 (A) A                 0.0571
     5 (A) A             13 (A) A                -0.0513
     6 (A) A             23 (A) A                 0.0485
     8 (A) A             20 (A) A                 0.0349
     6 (A) A             19 (A) A                 0.0309
     3 (A) A             12 (A) A                 0.0281
     5 (A) A             22 (A) A                -0.0215
     7 (A) A             11 (A) A                 0.0207
     4 (A) A             24 (A) A                -0.0187
     3 (A) A             26 (A) A                -0.0185
     8 (A) A   8 (A) B   17 (A) A   20 (A) B     -0.0184
     8 (A) A   8 (A) B    9 (A) A   28 (A) B     -0.0168
     6 (A) A             26 (A) A                 0.0164
     7 (A) A             21 (A) A                 0.0147
     3 (A) A             14 (A) A                -0.0139
     6 (A) A             12 (A) A                 0.0131
     3 (A) A   4 (A) B    9 (A) A    9 (A) B      0.0129
     3 (A) A             19 (A) A                -0.0119
     8 (A) A   8 (A) B   18 (A) A   19 (A) B      0.0113
     7 (A) A             32 (A) A                 0.0095
     7 (A) A             36 (A) A                 0.0086
     3 (A) A             23 (A) A                -0.0080
     8 (A) A   8 (A) B   25 (A) A   29 (A) B      0.0076
     6 (A) A             35 (A) A                 0.0072
     6 (A) A             40 (A) A                 0.0068
     3 (A) A   6 (A) B    9 (A) A   28 (A) B      0.0065
     6 (A) A   8 (A) A   19 (A) A   28 (A) A      0.0061
     5 (A) A   7 (A) B    9 (A) A    9 (A) B     -0.0060
     5 (A) A   8 (A) B   11 (A) A   20 (A) B     -0.0059
     7 (A) A   8 (A) B   13 (A) A   20 (A) B      0.0059
     5 (A) A   8 (A) B   16 (A) A    9 (A) B     -0.0059
     5 (A) A   8 (A) B   11 (A) A    9 (A) B      0.0059
     3 (A) A   5 (A) B    9 (A) A   25 (A) B     -0.0058
     3 (A) A             40 (A) A                -0.0057
     7 (A) A   8 (A) B   22 (A) A   20 (A) B      0.0057
     6 (A) A   8 (A) A    9 (A) A   18 (A) A      0.0057
     8 (A) A   8 (A) B   19 (A) A   30 (A) B      0.0056
    -----------------------------------------------------

  Density matrix analysis:
  ------------------------
  NOs
    Occupation of frontier NOs:
       0.9495   1.0217
    Number of electrons: 16.000000
    Number of unpaired electrons: n_u =  2.31332, n_u,nl =  2.03262
    NO participation ratio (PR_NO):  2.863578
  
  
  Mulliken Population Analysis
  Atom      Charge (e)              h+              e-           Del q
  --------------------------------------------------------------------
   1 H        0.058817        0.020304       -0.012532        0.007772
   2 C       -0.115848        0.490930       -0.506125       -0.015195
   3 H        0.058167        0.020167       -0.012594        0.007572
   4 C       -0.116830        0.490679       -0.506368       -0.015689
   5 H        0.057594        0.020221       -0.012546        0.007675
   6 H        0.058099        0.020352       -0.012488        0.007864
  --------------------------------------------------------------------
  Sum:       -0.000000        1.062653       -1.062653        0.000000
  
  Multipole moment analysis of the density matrix
    Molecular charge:                      0.000000
    Number of electrons:                   16.000000
      Center of electronic charge [Ang]: [ -1.560546,  -0.065315,   0.001963]
    Total nuclear charge:                  16.000000
      Center of nuclear charge [Ang]:    [ -1.560576,  -0.065290,   0.001978]
    Dipole moment [D]:                     0.003252
      Cartesian components [D]:          [ -0.002319,   0.001958,   0.001167]
    RMS size of the density [Ang]:         1.214275
      Cartesian components [Ang]:        [  0.804371,   0.787254,   0.455722]
  
  Exciton analysis of the difference density matrix
    <r_h> [Ang]:                  [ -1.560179,  -0.065694,   0.001773]
    <r_e> [Ang]:                  [ -1.560291,  -0.065597,   0.001729]
    |<r_e - r_h>| [Ang]:            0.000154
    Hole size [Ang]:                1.285444
      Cartesian components [Ang]: [  0.728443,   0.712702,   0.783449]
    Electron size [Ang]:            1.463164
      Cartesian components [Ang]: [  0.854000,   0.830471,   0.849618]

  Transition density matrix analysis:
  -----------------------------------
  
  CT numbers (Mulliken)
    omega =     0.9535
    <Phe> =    -0.1607
  
  Exciton analysis of the transition density matrix
    Trans. dipole moment [D]:             1.833623
      Cartesian components [D]:         [  1.328138,  -1.264153,  -0.011864]
    <r_h> [Ang]:                        [ -1.559990,  -0.065896,   0.001808]
    <r_e> [Ang]:                        [ -1.560308,  -0.065573,   0.001702]
    |<r_e - r_h>| [Ang]:                  0.000466
    Hole size [Ang]:                      1.214141
      Cartesian components [Ang]:       [  0.649565,   0.636456,   0.804442]
    Electron size [Ang]:                  1.486030
      Cartesian components [Ang]:       [  0.864441,   0.839386,   0.869746]
    RMS electron-hole separation [Ang]:   1.936781
      Cartesian components [Ang]:       [  1.106830,   1.075177,   1.170488]
    Covariance(r_h, r_e) [Ang^2]:        -0.034348
    Correlation coefficient:             -0.019037
    Center-of-mass size [Ang]:            0.950491
      Cartesian components [Ang]:       [  0.527569,   0.515578,   0.599402]

  Decomposition into state-averaged NTOs
    H- 0 -> L+ 0: -0.6699 ( 89.8%)
    H- 2 -> L+ 5:  0.0836 (  1.4%)
                   omega =  95.4%
  ----------------------------------------------------------------------------


  Excited state 2 (singlet, A)                                     [converged]
  ----------------------------------------------------------------------------
  Term symbol:  3 (1) A                                     R^2 =  4.46787e-13

  Total energy:                                            -77.9869645543 a.u.
  Excitation energy:                                               9.051632 eV

  Osc. strength:                                                      0.000009
  Trans. dip. moment [a.u.]:           [   0.004347,   -0.004401,   -0.000972]
  <i|r^2|0> [a.u.]:                    [  -0.038222,   -0.087855,    0.150622]
  Two-photon absorption cross-section (SoS) [a.u.]:                   4.826171
  Two-photon absorption matrix (SoS) [a.u.]:
                                       |   -0.051905   -0.058357    0.536279 |
                                       |   -0.058357   -0.065000    0.549517 |
                                       |    0.536279    0.549517    0.116981 |
  Two-photon absorption cross-section [a.u.]:                         0.079680
  Two-photon absorption matrix [a.u.]:
                                       |    0.003148    0.007085   -0.055950 |
                                       |    0.007085    0.011936   -0.081181 |
                                       |   -0.055950   -0.081181   -0.015025 |

  Dip. moment [a.u.]:                  [  -0.010886,    0.008345,    0.000825]
  Total dipole [Debye]:                                               0.034926
  <r^2> [a.u.]:                        [ 174.485964,   33.956526,   13.173221]
  Total <r^2> [a.u.]:                                               221.615711

  V1^2 = 0.9542, V2^2 = 0.0458

  Important amplitudes:
      occ i     occ j     vir a      vir b          v   
    -----------------------------------------------------
     7 (A) A              9 (A) A                 0.6694
     8 (A) A             11 (A) A                 0.1472
     7 (A) A             20 (A) A                 0.0759
     5 (A) A   8 (A) B    9 (A) A    9 (A) B     -0.0317
     8 (A) A             16 (A) A                -0.0272
     8 (A) A             21 (A) A                 0.0175
     5 (A) A             28 (A) A                -0.0151
     4 (A) A   7 (A) B    9 (A) A   19 (A) B     -0.0135
     5 (A) A   7 (A) B    9 (A) A   16 (A) B      0.0134
     7 (A) A   8 (A) B   20 (A) A   17 (A) B     -0.0105
     7 (A) A   8 (A) A    9 (A) A   28 (A) A      0.0098
     5 (A) A   8 (A) B    9 (A) A   20 (A) B     -0.0096
     4 (A) A   6 (A) B    9 (A) A   16 (A) B     -0.0091
     5 (A) A   6 (A) A    9 (A) A   23 (A) A      0.0091
     5 (A) A   6 (A) A    9 (A) A   14 (A) A      0.0089
     5 (A) A   6 (A) B    9 (A) A   19 (A) B      0.0087
     8 (A) A   7 (A) B    9 (A) A   28 (A) B     -0.0085
     4 (A) A   5 (A) A    9 (A) A   10 (A) A      0.0084
     6 (A) A   7 (A) B    9 (A) A   18 (A) B      0.0083
     5 (A) A   6 (A) B    9 (A) A   23 (A) B      0.0080
     3 (A) A   7 (A) B    9 (A) A   18 (A) B      0.0080
     5 (A) A   7 (A) A    9 (A) A   16 (A) A      0.0079
     4 (A) A   8 (A) B    9 (A) A   25 (A) B      0.0077
     7 (A) A   8 (A) B   17 (A) A   20 (A) B     -0.0074
     4 (A) A   7 (A) B   19 (A) A    9 (A) B     -0.0074
     5 (A) A   5 (A) B    9 (A) A   13 (A) B     -0.0072
     7 (A) A   8 (A) B   19 (A) A   18 (A) B      0.0072
     5 (A) A   8 (A) A    9 (A) A   20 (A) A     -0.0069
     4 (A) A   5 (A) B    9 (A) A   18 (A) B     -0.0068
     7 (A) A   7 (A) B   20 (A) A   22 (A) B      0.0065
     7 (A) A   8 (A) B   17 (A) A    9 (A) B     -0.0065
     5 (A) A   6 (A) B    9 (A) A   14 (A) B      0.0063
     4 (A) A   7 (A) A    9 (A) A   19 (A) A     -0.0061
     4 (A) A   5 (A) B   10 (A) A    9 (A) B     -0.0061
     5 (A) A             38 (A) A                -0.0061
     5 (A) A   7 (A) B   11 (A) A   20 (A) B     -0.0060
     4 (A) A   7 (A) B    9 (A) A   14 (A) B      0.0060
     8 (A) A             12 (A) A                 0.0058
     4 (A) A   8 (A) A    9 (A) A   25 (A) A      0.0057
     6 (A) A   7 (A) A   19 (A) A   28 (A) A      0.0057
    -----------------------------------------------------

  Density matrix analysis:
  ------------------------
  NOs
    Occupation of frontier NOs:
       0.9586   1.0531
    Number of electrons: 16.000000
    Number of unpaired electrons: n_u =  2.35524, n_u,nl =  2.06233
    NO participation ratio (PR_NO):  3.023629
  
  
  Mulliken Population Analysis
  Atom      Charge (e)              h+              e-           Del q
  --------------------------------------------------------------------
   1 H        0.147424        0.120902       -0.024522        0.096380
   2 C       -0.302213        0.270472       -0.472033       -0.201561
   3 H        0.153582        0.127242       -0.024254        0.102988
   4 C       -0.302600        0.273695       -0.475153       -0.201459
   5 H        0.154665        0.129398       -0.024652        0.104746
   6 H        0.149142        0.122593       -0.023686        0.098907
  --------------------------------------------------------------------
  Sum:       -0.000000        1.044300       -1.044300       -0.000000
  
  Multipole moment analysis of the density matrix
    Molecular charge:                      -0.000000
    Number of electrons:                   16.000000
      Center of electronic charge [Ang]: [ -1.560216,  -0.065566,   0.001951]
    Total nuclear charge:                  16.000000
      Center of nuclear charge [Ang]:    [ -1.560576,  -0.065290,   0.001978]
    Dipole moment [D]:                     0.034926
      Cartesian components [D]:          [ -0.027668,   0.021211,   0.002097]
    RMS size of the density [Ang]:         1.200039
      Cartesian components [Ang]:        [  0.787109,   0.768115,   0.480157]
  
  Exciton analysis of the difference density matrix
    <r_h> [Ang]:                  [ -1.565426,  -0.060022,   0.002111]
    <r_e> [Ang]:                  [ -1.560486,  -0.063762,   0.001881]
    |<r_e - r_h>| [Ang]:            0.006200
    Hole size [Ang]:                1.486342
      Cartesian components [Ang]: [  0.996924,   1.004576,   0.454073]
    Electron size [Ang]:            1.476385
      Cartesian components [Ang]: [  0.880430,   0.859095,   0.816400]

  Transition density matrix analysis:
  -----------------------------------
  
  CT numbers (Mulliken)
    omega =     0.9218
    <Phe> =    -0.0122
  
  Exciton analysis of the transition density matrix
    Trans. dipole moment [D]:             0.007958
      Cartesian components [D]:         [  0.005525,  -0.005593,  -0.001235]
    <r_h> [Ang]:                        [ -1.566348,  -0.059151,   0.002168]
    <r_e> [Ang]:                        [ -1.559709,  -0.064415,   0.001823]
    |<r_e - r_h>| [Ang]:                  0.008480
    Hole size [Ang]:                      1.515153
      Cartesian components [Ang]:       [  1.019383,   1.029424,   0.443660]
    Electron size [Ang]:                  1.473440
      Cartesian components [Ang]:       [  0.871053,   0.848289,   0.832284]
    RMS electron-hole separation [Ang]:   2.093622
      Cartesian components [Ang]:       [  1.324971,   1.318931,   0.942405]
    Covariance(r_h, r_e) [Ang^2]:         0.041766
    Correlation coefficient:              0.018708
    Center-of-mass size [Ang]:            1.066565
      Cartesian components [Ang]:       [  0.678278,   0.674363,   0.471947]

  Decomposition into state-averaged NTOs
    H- 1 -> L+ 0: -0.6618 ( 87.6%)
    H- 0 -> L+ 2: -0.1473 (  4.3%)
                   omega =  92.2%
  ----------------------------------------------------------------------------


  Excited state 3 (singlet, A)                                     [converged]
  ----------------------------------------------------------------------------
  Term symbol:  4 (1) A                                     R^2 =  5.45515e-13

  Total energy:                                            -77.9824254181 a.u.
  Excitation energy:                                               9.175148 eV

  Osc. strength:                                                      0.025317
  Trans. dip. moment [a.u.]:           [   0.015509,    0.020254,   -0.334625]
  <i|r^2|0> [a.u.]:                    [   0.093614,    0.002643,    0.002285]
  Two-photon absorption cross-section (SoS) [a.u.]:                   0.002249
  Two-photon absorption matrix (SoS) [a.u.]:
                                       |    0.015775    0.000582   -0.001438 |
                                       |    0.000582   -0.015576    0.004606 |
                                       |   -0.001438    0.004606    0.003890 |
  Two-photon absorption cross-section [a.u.]:                         0.002271
  Two-photon absorption matrix [a.u.]:
                                       |    0.013206   -0.000082   -0.005905 |
                                       |   -0.000082   -0.010787    0.009654 |
                                       |   -0.005905    0.009654    0.002739 |

  Dip. moment [a.u.]:                  [  -0.013277,    0.006679,   -0.000734]
  Total dipole [Debye]:                                               0.037822
  <r^2> [a.u.]:                        [ 180.787411,   40.620510,   11.028812]
  Total <r^2> [a.u.]:                                               232.436733

  V1^2 = 0.9587, V2^2 = 0.0413

  Important amplitudes:
      occ i     occ j     vir a      vir b          v   
    -----------------------------------------------------
     8 (A) A             10 (A) A                 0.6891
     8 (A) A             24 (A) A                 0.0507
     8 (A) A             18 (A) A                -0.0312
     4 (A) A              9 (A) A                -0.0237
     8 (A) A   8 (A) B    9 (A) A   12 (A) B      0.0219
     8 (A) A   8 (A) B   10 (A) A   17 (A) B      0.0173
     8 (A) A             15 (A) A                 0.0167
     5 (A) A   8 (A) B   11 (A) A   10 (A) B      0.0165
     7 (A) A   8 (A) B   13 (A) A   10 (A) B     -0.0141
     4 (A) A   8 (A) B   12 (A) A   10 (A) B     -0.0111
     6 (A) A   8 (A) A   10 (A) A   15 (A) A      0.0110
     7 (A) A   8 (A) B   22 (A) A   10 (A) B     -0.0108
     6 (A) A   8 (A) B   15 (A) A   10 (A) B     -0.0108
     4 (A) A   8 (A) A   10 (A) A   12 (A) A      0.0106
     7 (A) A   8 (A) A   10 (A) A   22 (A) A      0.0099
     7 (A) A   8 (A) A   10 (A) A   13 (A) A      0.0098
     5 (A) A   8 (A) B   21 (A) A   10 (A) B      0.0094
     5 (A) A   8 (A) A   10 (A) A   11 (A) A     -0.0094
     6 (A) A   8 (A) A   10 (A) A   18 (A) A      0.0087
     6 (A) A   8 (A) B   10 (A) A   10 (A) B      0.0087
     7 (A) A   8 (A) A   12 (A) A   16 (A) A      0.0082
     5 (A) A   8 (A) A   10 (A) A   21 (A) A     -0.0080
     3 (A) A   4 (A) B   10 (A) A    9 (A) B      0.0079
     4 (A) A   8 (A) B   19 (A) A   10 (A) B      0.0075
     8 (A) A   8 (A) B    9 (A) A   23 (A) B      0.0075
     8 (A) A   8 (A) B   10 (A) A   28 (A) B     -0.0073
     3 (A) A   8 (A) B   10 (A) A   10 (A) B      0.0072
     5 (A) A   8 (A) B   10 (A) A   11 (A) B      0.0071
     3 (A) A   8 (A) A   10 (A) A   24 (A) A     -0.0071
     7 (A) A   8 (A) B   16 (A) A   12 (A) B     -0.0071
     3 (A) A   8 (A) B   10 (A) A   18 (A) B     -0.0069
     8 (A) A   8 (A) B    9 (A) A   19 (A) B     -0.0068
     6 (A) A   8 (A) B   18 (A) A   10 (A) B     -0.0066
     3 (A) A   6 (A) B   10 (A) A   28 (A) B      0.0062
     7 (A) A   8 (A) B   12 (A) A   11 (A) B      0.0057
     6 (A) A             28 (A) A                -0.0057
     3 (A) A   5 (A) B   10 (A) A   25 (A) B     -0.0056
     5 (A) A   8 (A) A   10 (A) A   16 (A) A      0.0056
     3 (A) A   8 (A) A   10 (A) A   18 (A) A     -0.0056
     4 (A) A   8 (A) A   10 (A) A   23 (A) A      0.0055
    -----------------------------------------------------

  Density matrix analysis:
  ------------------------
  NOs
    Occupation of frontier NOs:
       0.9814   0.9850
    Number of electrons: 16.000000
    Number of unpaired electrons: n_u =  2.28514, n_u,nl =  2.02438
    NO participation ratio (PR_NO):  2.691624
  
  
  Mulliken Population Analysis
  Atom      Charge (e)              h+              e-           Del q
  --------------------------------------------------------------------
   1 H       -0.165229        0.053774       -0.270048       -0.216274
   2 C        0.328911        0.539498       -0.109934        0.429564
   3 H       -0.165815        0.053823       -0.270233       -0.216410
   4 C        0.327659        0.537141       -0.108341        0.428801
   5 H       -0.163950        0.053947       -0.267816       -0.213869
   6 H       -0.161575        0.053990       -0.265801       -0.211811
  --------------------------------------------------------------------
  Sum:       -0.000000        1.292173       -1.292173        0.000000
  
  Multipole moment analysis of the density matrix
    Molecular charge:                      -0.000000
    Number of electrons:                   16.000000
      Center of electronic charge [Ang]: [ -1.560137,  -0.065511,   0.002002]
    Total nuclear charge:                  16.000000
      Center of nuclear charge [Ang]:    [ -1.560576,  -0.065290,   0.001978]
    Dipole moment [D]:                     0.037822
      Cartesian components [D]:          [ -0.033747,   0.016976,  -0.001865]
    RMS size of the density [Ang]:         1.276610
      Cartesian components [Ang]:        [  0.854444,   0.840619,   0.439340]
  
  Exciton analysis of the difference density matrix
    <r_h> [Ang]:                  [ -1.559679,  -0.066122,   0.001857]
    <r_e> [Ang]:                  [ -1.554707,  -0.068463,   0.002310]
    |<r_e - r_h>| [Ang]:            0.005514
    Hole size [Ang]:                1.410360
      Cartesian components [Ang]: [  0.834011,   0.819984,   0.788141]
    Electron size [Ang]:            2.076866
      Cartesian components [Ang]: [  1.373836,   1.377489,   0.726960]

  Transition density matrix analysis:
  -----------------------------------
  
  CT numbers (Mulliken)
    omega =     0.9259
    <Phe> =    -0.0108
  
  Exciton analysis of the transition density matrix
    Trans. dipole moment [D]:             0.426500
      Cartesian components [D]:         [  0.019710,   0.025741,  -0.425266]
    <r_h> [Ang]:                        [ -1.559945,  -0.066119,   0.001744]
    <r_e> [Ang]:                        [ -1.552635,  -0.069639,   0.002433]
    |<r_e - r_h>| [Ang]:                  0.008143
    Hole size [Ang]:                      1.212928
      Cartesian components [Ang]:       [  0.636448,   0.623514,   0.823018]
    Electron size [Ang]:                  2.297553
      Cartesian components [Ang]:       [  1.518629,   1.525269,   0.803785]
    RMS electron-hole separation [Ang]:   2.588176
      Cartesian components [Ang]:       [  1.639129,   1.640815,   1.148754]
    Covariance(r_h, r_e) [Ang^2]:         0.025678
    Correlation coefficient:              0.009214
    Center-of-mass size [Ang]:            1.303965
      Cartesian components [Ang]:       [  0.827029,   0.827370,   0.576026]

  Decomposition into state-averaged NTOs
    H- 0 -> L+ 1:  0.6798 ( 92.4%)
                   omega =  92.6%
  ----------------------------------------------------------------------------


  Excited state 4 (singlet, A)                                     [converged]
  ----------------------------------------------------------------------------
  Term symbol:  5 (1) A                                     R^2 =  5.47617e-13

  Total energy:                                            -77.9581720631 a.u.
  Excitation energy:                                               9.835116 eV

  Osc. strength:                                                      0.000001
  Trans. dip. moment [a.u.]:           [   0.001685,   -0.001574,   -0.000793]
  <i|r^2|0> [a.u.]:                    [   0.027784,    0.018122,   -0.036347]
  Two-photon absorption cross-section (SoS) [a.u.]:                 149.923792
  Two-photon absorption matrix (SoS) [a.u.]:
                                       |    0.291352    0.325479   -3.023109 |
                                       |    0.325479    0.359768   -3.029239 |
                                       |   -3.023109   -3.029239   -0.651001 |
  Two-photon absorption cross-section [a.u.]:                        91.929958
  Two-photon absorption matrix [a.u.]:
                                       |    0.229104    0.254871   -2.359690 |
                                       |    0.254871    0.280979   -2.379581 |
                                       |   -2.359690   -2.379581   -0.509951 |

  Dip. moment [a.u.]:                  [  -0.000593,    0.010168,    0.000047]
  Total dipole [Debye]:                                               0.025888
  <r^2> [a.u.]:                        [ 181.304143,   40.536850,   10.761493]
  Total <r^2> [a.u.]:                                               232.602486

  V1^2 = 0.9635, V2^2 = 0.0365

  Important amplitudes:
      occ i     occ j     vir a      vir b          v   
    -----------------------------------------------------
     8 (A) A             11 (A) A                -0.6698
     7 (A) A              9 (A) A                 0.1493
     8 (A) A             21 (A) A                -0.0781
     8 (A) A             16 (A) A                 0.0647
     8 (A) A   8 (A) B    9 (A) A   13 (A) B      0.0167
     5 (A) A   8 (A) B   11 (A) A   11 (A) B     -0.0155
     8 (A) A   8 (A) B   11 (A) A   17 (A) B     -0.0140
     7 (A) A             20 (A) A                 0.0136
     8 (A) A             12 (A) A                -0.0132
     7 (A) A   8 (A) B   13 (A) A   11 (A) B      0.0127
     5 (A) A   8 (A) A   11 (A) A   21 (A) A      0.0110
     4 (A) A   8 (A) B   12 (A) A   11 (A) B      0.0110
     8 (A) A   8 (A) B    9 (A) A   22 (A) B      0.0108
     7 (A) A   8 (A) A   11 (A) A   22 (A) A     -0.0096
     6 (A) A   8 (A) B   15 (A) A   11 (A) B      0.0090
     6 (A) A   8 (A) B   10 (A) A   11 (A) B     -0.0090
     7 (A) A   8 (A) B   22 (A) A   11 (A) B      0.0089
     6 (A) A              9 (A) A                 0.0087
     3 (A) A   4 (A) B   11 (A) A    9 (A) B     -0.0083
     3 (A) A   8 (A) B   11 (A) A   18 (A) B      0.0081
     6 (A) A   8 (A) A   11 (A) A   15 (A) A     -0.0080
     7 (A) A   8 (A) A   13 (A) A   16 (A) A      0.0078
     7 (A) A   8 (A) A   11 (A) A   13 (A) A     -0.0077
     5 (A) A   8 (A) B   21 (A) A   11 (A) B     -0.0071
     4 (A) A   8 (A) B   19 (A) A   11 (A) B     -0.0070
     5 (A) A   8 (A) B    9 (A) A    9 (A) B     -0.0067
     4 (A) A   8 (A) A   11 (A) A   12 (A) A     -0.0062
     6 (A) A   8 (A) A   11 (A) A   18 (A) A     -0.0062
     3 (A) A   6 (A) B   11 (A) A   28 (A) B     -0.0060
     6 (A) A   8 (A) B   18 (A) A   11 (A) B      0.0060
     7 (A) A   8 (A) B   16 (A) A   13 (A) B     -0.0057
     3 (A) A   8 (A) A   11 (A) A   18 (A) A      0.0056
     5 (A) A   8 (A) B   10 (A) A   10 (A) B     -0.0056
     3 (A) A   8 (A) B   11 (A) A   30 (A) B      0.0055
     3 (A) A   5 (A) B   11 (A) A   25 (A) B      0.0055
     6 (A) A   8 (A) B   11 (A) A   10 (A) B     -0.0054
     7 (A) A   8 (A) B   12 (A) A   10 (A) B     -0.0054
     8 (A) A   8 (A) B   20 (A) A   22 (A) B      0.0053
     3 (A) A   8 (A) A   11 (A) A   24 (A) A      0.0053
     5 (A) A   8 (A) A   11 (A) A   16 (A) A     -0.0048
    -----------------------------------------------------

  Density matrix analysis:
  ------------------------
  NOs
    Occupation of frontier NOs:
       0.9413   1.0272
    Number of electrons: 16.000000
    Number of unpaired electrons: n_u =  2.31901, n_u,nl =  2.04871
    NO participation ratio (PR_NO):  2.911042
  
  
  Mulliken Population Analysis
  Atom      Charge (e)              h+              e-           Del q
  --------------------------------------------------------------------
   1 H       -0.144635        0.045530       -0.241210       -0.195680
   2 C        0.275435        0.497607       -0.121519        0.376087
   3 H       -0.131471        0.046934       -0.229000       -0.182066
   4 C        0.273382        0.496994       -0.122470        0.374524
   5 H       -0.127803        0.047070       -0.224791       -0.177721
   6 H       -0.144909        0.045687       -0.240831       -0.195145
  --------------------------------------------------------------------
  Sum:       -0.000000        1.179822       -1.179822        0.000000
  
  Multipole moment analysis of the density matrix
    Molecular charge:                      -0.000000
    Number of electrons:                   16.000000
      Center of electronic charge [Ang]: [ -1.560557,  -0.065626,   0.001977]
    Total nuclear charge:                  16.000000
      Center of nuclear charge [Ang]:    [ -1.560576,  -0.065290,   0.001978]
    Dipole moment [D]:                     0.025888
      Cartesian components [D]:          [ -0.001507,   0.025844,   0.000120]
    RMS size of the density [Ang]:         1.277228
      Cartesian components [Ang]:        [  0.858958,   0.839738,   0.433983]
  
  Exciton analysis of the difference density matrix
    <r_h> [Ang]:                  [ -1.560438,  -0.065700,   0.001829]
    <r_e> [Ang]:                  [ -1.560682,  -0.069828,   0.001975]
    |<r_e - r_h>| [Ang]:            0.004138
    Hole size [Ang]:                1.394591
      Cartesian components [Ang]: [  0.817699,   0.806957,   0.790615]
    Electron size [Ang]:            2.124119
      Cartesian components [Ang]: [  1.441841,   1.404590,   0.678309]

  Transition density matrix analysis:
  -----------------------------------
  
  CT numbers (Mulliken)
    omega =     0.9298
    <Phe> =    -0.0135
  
  Exciton analysis of the transition density matrix
    Trans. dipole moment [D]:             0.003099
      Cartesian components [D]:         [  0.002142,  -0.002001,  -0.001008]
    <r_h> [Ang]:                        [ -1.560448,  -0.065430,   0.001776]
    <r_e> [Ang]:                        [ -1.560870,  -0.070527,   0.001980]
    |<r_e - r_h>| [Ang]:                  0.005119
    Hole size [Ang]:                      1.227728
      Cartesian components [Ang]:       [  0.657124,   0.650405,   0.807761]
    Electron size [Ang]:                  2.262426
      Cartesian components [Ang]:       [  1.536350,   1.496288,   0.720640]
    RMS electron-hole separation [Ang]:   2.563391
      Cartesian components [Ang]:       [  1.662432,   1.623737,   1.082021]
    Covariance(r_h, r_e) [Ang^2]:         0.027471
    Correlation coefficient:              0.009890
    Center-of-mass size [Ang]:            1.292365
      Cartesian components [Ang]:       [  0.839745,   0.819651,   0.541486]

  Decomposition into state-averaged NTOs
    H- 0 -> L+ 2:  0.6652 ( 88.5%)
    H- 1 -> L+ 0: -0.1473 (  4.3%)
                   omega =  93.0%
  ----------------------------------------------------------------------------


  Excited state 5 (singlet, A)                                     [converged]
  ----------------------------------------------------------------------------
  Term symbol:  6 (1) A                                     R^2 =  4.38931e-13

  Total energy:                                            -77.9441906787 a.u.
  Excitation energy:                                              10.215568 eV

  Osc. strength:                                                      0.000000
  Trans. dip. moment [a.u.]:           [  -0.000177,   -0.000281,   -0.000147]
  <i|r^2|0> [a.u.]:                    [  -0.088663,    0.103049,   -0.015659]
  Two-photon absorption cross-section (SoS) [a.u.]:                 184.427957
  Two-photon absorption matrix (SoS) [a.u.]:
                                       |   -0.325488   -0.041426    3.405227 |
                                       |   -0.041426    0.398333   -3.364655 |
                                       |    3.405227   -3.364655   -0.077436 |
  Two-photon absorption cross-section [a.u.]:                        84.318965
  Two-photon absorption matrix [a.u.]:
                                       |   -0.220124   -0.027328    2.287427 |
                                       |   -0.027328    0.269588   -2.290131 |
                                       |    2.287427   -2.290131   -0.055233 |

  Dip. moment [a.u.]:                  [   0.015595,   -0.015238,   -0.000011]
  Total dipole [Debye]:                                               0.055419
  <r^2> [a.u.]:                        [ 178.552425,   38.447344,   11.900375]
[...]
    16   -1.484240927220e-03
    17   -1.761405151684e-03
    18   -1.049403564460e-04
    19   -3.365760038384e-03
    20    1.059791362812e-02
    21    9.326879607803e-01
    22   -2.734294818836e-04
    23    1.396933383443e-02
    24    8.134295053075e-04
    25    7.011771487406e-02
    26   -5.205110868232e-02
    27   -1.398497936589e+00
    28    9.703622947668e-02
    29   -9.333750362848e-02
    30   -1.088641569784e-03
    31    3.843331306458e-01
    32   -3.661251510605e-01
    33   -4.107359037107e-03
    34    1.569789510291e-02
    35   -1.482687002912e-03
    36   -1.788822553531e-03
    37   -1.570009019364e-04
    38   -3.062805624080e-03
    39    9.692576481191e-03
    40    9.348678814048e-01
    41    1.333308394081e-04
    42   -1.393873479129e-02
    43   -8.354408407852e-04
    44    9.464005082727e-03
    45    9.382672897838e-01
    46    1.412956891326e-02
    47    3.648744199491e-04
    48    6.885828838292e-04
Sym=X
Ene= 0.233065
Spin=Alpha
Occup=0
     1    2.627639460278e-02
     2    1.235892403619e+00
     3   -1.429490224844e-02
     4   -3.847729724044e-03
     5   -8.978739128272e-04
     6    3.105533430410e-03
     7   -3.682133624813e-03
     8   -4.608475199721e-02
     9   -1.547201706002e-01
    10   -1.589996056250e-01
    11   -1.665672659790e-02
    12   -5.576221848996e-01
    13   -5.594700258568e-01
    14   -5.915063332778e-02
    15    5.062870649336e-04
    16   -6.007342031872e-05
    17   -6.391547175429e-05
    18   -1.412936087082e-04
    19   -3.533126849312e-04
    20   -2.508200761753e-02
    21   -1.162545605429e+00
    22   -2.475913571747e-03
    23   -1.359061108979e-02
    24   -9.191482757221e-04
    25   -3.220205254932e-03
    26    3.729645951533e-03
    27    4.962702387901e-02
    28   -1.544305735704e-01
    29   -1.583490225110e-01
    30   -1.688533762142e-02
    31   -5.501886749393e-01
    32   -5.496793030461e-01
    33   -5.937846290792e-02
    34   -5.645959405577e-04
    35    8.202099113595e-05
    36    3.487929606543e-05
    37    3.844419937259e-04
    38    3.897485603313e-04
    39    2.521411167585e-02
    40    1.150112404544e+00
    41   -2.390686012794e-03
    42   -1.352897241852e-02
    43   -9.284890042985e-04
    44   -2.627752076487e-02
    45   -1.227843462094e+00
    46   -1.432659317864e-02
    47   -3.797218694532e-03
    48   -9.108518294258e-04
Sym=X
Ene= 0.239340
Spin=Alpha
Occup=0
     1   -1.587167712691e-02
     2   -1.044358094158e+00
     3    1.640658091149e-02
     4    9.092394488188e-03
     5    1.323884658486e-03
     6   -8.644176266832e-02
     7    7.981431736816e-02
     8    1.589670170773e+00
     9    5.239925794715e-02
    10   -6.113726839561e-02
    11   -1.032979967895e-03
    12    2.080289974283e-01
    13   -2.397330930989e-01
    14   -3.855491210200e-03
    15   -2.251432038833e-02
    16    2.608117841617e-03
    17    2.960203691691e-03
    18   -5.786088302294e-04
    19    1.281672859699e-02
    20   -1.715672043541e-02
    21   -1.129522085326e+00
    22   -8.538734960250e-03
    23   -1.782732236306e-02
    24   -1.455607016894e-03
    25    8.640284002498e-02
    26   -7.919406301309e-02
    27   -1.596638154676e+00
    28    5.297604461705e-02
    29   -6.172354512687e-02
    30   -1.353252171429e-03
    31    2.130253585701e-01
    32   -2.432523510410e-01
    33   -5.145044829993e-03
    34    2.266251297345e-02
    35   -2.598345351712e-03
    36   -3.011437234688e-03
    37    5.633033153120e-04
    38   -1.272769568526e-02
    39    1.663389880793e-02
    40    1.132397437142e+00
    41   -8.745257319470e-03
    42   -1.788010417307e-02
    43   -1.495013536131e-03
    44    1.542136735917e-02
    45    1.049509764765e+00
    46    1.649525914042e-02
    47    9.292793512045e-03
    48    1.324641845868e-03
Sym=X
Ene= 0.303291
Spin=Alpha
Occup=0
     1   -2.092010329656e-02
     2    1.691733585733e+00
     3   -2.299796089780e-02
     4    2.584434024081e-04
     5   -1.078520617699e-03
     6   -5.103143432210e-05
     7    2.652872686958e-04
     8   -5.251359849208e-03
     9   -1.339359130120e-01
    10   -1.391565425052e-01
    11   -1.454908588777e-02
    12   -1.142255598117e+00
    13   -1.194378630774e+00
    14   -1.249607648292e-01
    15   -1.752791932310e-05
    16   -1.667182140327e-03
    17    1.852437545310e-03
    18   -3.281044294967e-02
    19   -1.640127764135e-03
    20    2.002362675853e-02
    21   -1.685978802919e+00
    22    1.464722516565e-03
    23   -2.286928336814e-02
    24   -1.275907569886e-03
    25   -8.074077620201e-05
    26    2.597453179708e-04
    27   -5.070399957070e-03
    28    1.350668910594e-01
    29    1.403970219971e-01
    30    1.484453240803e-02
    31    1.143164531214e+00
    32    1.194230148510e+00
    33    1.255618789931e-01
    34   -1.413424942782e-05
    35   -1.615157468844e-03
    36    1.903549655804e-03
    37   -3.262398447265e-02
    38   -1.642304702752e-03
    39    1.926656925491e-02
    40   -1.694548985913e+00
    41   -1.690964032179e-03
    42    2.293357128223e-02
    43    1.296784613190e-03
    44   -2.025520386987e-02
    45    1.700854560023e+00
    46    2.305191458483e-02
    47   -4.736958941249e-04
    48    1.065107041356e-03
Sym=X
Ene= 0.462315
Spin=Alpha
Occup=0
     1   -1.160141350898e-01
     2   -7.156033066742e-01
     3   -1.560487132736e-02
     4   -1.043681793961e-02
     5   -1.349520928862e-03
     6    6.091138707855e-02
     7    1.737744744891e-02
     8   -3.596158881533e+00
     9    1.026410218381e-01
    10   -9.851580483419e-02
    11   -9.721426136020e-04
    12    2.430739180982e+00
    13   -2.307146391090e+00
    14   -2.111195600002e-02
    15    5.380104952525e-02
    16   -3.373416983009e-03
    17   -4.670009584729e-03
    18   -5.765509577371e-04
    19    1.783272859498e-02
    20   -1.224204869868e-01
    21   -7.020614732504e-01
    22    8.796227453567e-03
    23    1.644122937507e-02
    24    1.388007960441e-03
    25   -6.111362362250e-02
    26   -1.571976694823e-02
    27    3.594402181186e+00
    28    1.053160459447e-01
    29   -1.011786109410e-01
    30   -1.186249057794e-03
    31    2.425153018015e+00
    32   -2.300906379532e+00
    33   -2.183642568643e-02
    34   -5.232590771964e-02
    35    3.232386954710e-03
    36    4.477759109125e-03
    37    6.475890613172e-04
    38   -1.937459874085e-02
    39    1.142043890209e-01
    40    7.097239008327e-01
    41    8.381037127308e-03
    42    1.616978928831e-02
    43    1.363847849179e-03
    44    1.075844869448e-01
    45    7.251829762150e-01
    46   -1.536114746065e-02
    47   -1.003807272510e-02
    48   -1.340087878739e-03
Sym=X
Ene= 0.577753
Spin=Alpha
Occup=0
     1    2.473956397146e-01
     2    3.760149665767e-02
     3   -1.849665294558e-02
     4    2.539291061171e-02
     5    6.256820367200e-04
     6   -4.235323311318e-03
     7   -1.580204370581e-01
     8   -4.811783727114e-01
     9    2.998160807485e-01
    10   -2.890875199106e-01
    11   -2.936154786625e-03
    12   -7.101069545812e-01
    13    6.871550841876e-01
    14    7.167180430418e-03
    15   -5.431976091593e-03
    16    3.840469023058e-03
    17    3.684425525069e-03
    18   -4.239813920696e-03
    19    6.011785867865e-02
    20    2.530012301569e-01
    21    2.644764110192e-02
    22   -2.653233100684e-02
    23    1.680205305435e-02
    24   -2.638329099773e-04
    25   -6.036875305708e-03
    26   -1.590094434718e-01
    27   -3.960872715857e-01
    28   -2.965285230697e-01
    29    2.860949848448e-01
    30    2.886288188652e-03
    31    7.723412003736e-01
    32   -7.463843410007e-01
    33   -7.918126417563e-03
    34   -5.345299984905e-03
    35    3.821101769974e-03
    36    3.688105973929e-03
    37   -4.414536938170e-03
    38    6.002492472522e-02
    39    2.516774273628e-01
    40    5.322876156998e-02
    41    2.718865822393e-02
    42   -1.711134728093e-02
    43    2.626262538895e-04
    44    2.447569859384e-01
    45    6.627397044895e-02
    46    1.893235320696e-02
    47   -2.610370773833e-02
    48   -6.677648058394e-04
Sym=X
Ene= 0.614642
Spin=Alpha
Occup=0
     1   -5.206825996902e-01
     2    1.993493742124e-01
     3   -6.129589657557e-02
     4    3.777660965299e-02
     5   -6.891308495518e-04
     6   -6.044721962439e-04
     7    4.021190301963e-04
     8   -2.705380763121e-02
     9   -4.000891852458e-02
    10   -3.907593641742e-02
    11   -4.266782705340e-03
    12    3.053071895712e-01
    13    2.757214930575e-01
    14    3.053930965159e-02
    15    2.030230792833e-03
    16   -7.553203841327e-03
    17    8.229124232708e-03
    18   -1.474679126105e-01
    19   -5.949999785033e-03
    20    5.079968565395e-01
    21   -2.055921873255e-01
    22    4.160847322526e-02
    23   -5.817168455167e-02
    24   -1.477300874095e-03
    25    5.838696613102e-04
    26   -5.138128026293e-04
    27    2.517901125632e-02
    28   -4.184980037048e-02
    29   -3.982591754580e-02
    30   -4.317991460319e-03
    31    3.153507802234e-01
    32    2.830674435129e-01
    33    3.215887433458e-02
    34   -1.891844283065e-03
    35    7.499517211415e-03
    36   -8.496476230883e-03
    37    1.490959588855e-01
    38    5.995684925084e-03
    39   -5.127707223139e-01
    40    2.098909457740e-01
    41    4.095274632516e-02
    42   -5.841936246296e-02
    43   -1.550695613575e-03
    44    5.251046159025e-01
    45   -2.015991269335e-01
    46   -6.135108640397e-02
    47    3.704362126568e-02
    48   -6.702464957918e-04
Sym=X
Ene= 0.689149
Spin=Alpha
Occup=0
     1    2.842432550842e-04
     2    1.346720817346e-04
     3    1.047003435683e-03
     4    1.258219470484e-03
     5   -2.100879578826e-02
     6    2.115176895798e-05
     7    2.504924574560e-04
     8   -2.155660595799e-05
     9    3.159433225826e-02
    10    3.978654620236e-02
    11   -6.704155592577e-01
    12   -2.918628264602e-02
    13   -3.604076261095e-02
    14    6.136853567574e-01
    15   -1.360762838687e-03
    16    8.264692718551e-02
    17   -7.830194381896e-02
    18   -8.635293820728e-03
    19   -1.122029024651e-03
    20    3.445176546110e-04
    21   -1.502132175539e-04
    22    9.367686286210e-04
    23    1.163329690603e-03
    24   -2.093404722159e-02
    25    9.521912061583e-06
    26    3.644698147460e-04
    27   -3.566781094199e-04
    28    3.199651714647e-02
    29    3.995531018647e-02
    30   -6.700028284005e-01
    31   -2.967514327550e-02
    32   -3.632213281765e-02
    33    6.131918576345e-01
    34    1.160438394702e-03
    35   -8.281505370280e-02
    36    7.849654021462e-02
    37    8.546754759003e-03
    38    1.194257017482e-03
    39    1.521693706907e-04
    40   -4.945497751026e-04
    41    1.029133450504e-03
    42    1.360774208188e-03
    43   -2.106676508000e-02
    44    8.801618068243e-05
    45   -2.085808808270e-04
    46    9.343591885624e-04
    47    1.283095643332e-03
    48   -2.128956617593e-02
Sym=X
Ene= 0.709265
Spin=Alpha
Occup=0
     1   -4.788483853253e-01
     2    1.630413018624e-01
     3   -8.120498241738e-02
     4   -4.444755339650e-02
     5   -6.504079755707e-03
     6   -4.823945965211e-02
     7   -3.193699178637e-01
     8    5.267436025236e-01
     9    2.028466120366e-01
    10   -1.908001677237e-01
    11   -2.080471851578e-03
    12   -1.048822869977e-01
    13    8.631772006908e-02
    14    3.411516054001e-04
    15    1.945771096956e-01
    16   -2.057690603559e-02
    17   -2.398026688537e-02
    18    2.705409944345e-03
    19   -7.804814549286e-02
    20   -4.803083354379e-01
    21    1.523252972853e-01
    22    4.122864647222e-02
    23    8.172589750997e-02
    24    6.767652515678e-03
    25   -4.631932220189e-02
    26   -3.219582418585e-01
    27    4.539192795765e-01
    28   -2.028028953818e-01
    29    1.914853637045e-01
    30    1.396082069026e-03
    31    5.249451895630e-02
    32   -3.892716621744e-02
    33    8.512183971491e-04
    34    1.933756495499e-01
    35   -2.041548421629e-02
    36   -2.382640577027e-02
    37    2.447886488232e-03
    38   -7.506598585774e-02
    39   -4.725879615679e-01
    40    1.300971173674e-01
    41   -4.085121382339e-02
    42   -8.069080759985e-02
    43   -6.761277636248e-03
    44   -4.719557689189e-01
    45    1.387522890262e-01
    46    8.029699258215e-02
    47    4.387250771501e-02
    48    6.439500132172e-03
Sym=X
Ene= 0.784635
Spin=Alpha
Occup=0
     1    5.234722367414e-01
     2   -4.646448585378e-01
     3    1.096457161693e-01
     4    2.579056952275e-02
     5    6.721499806586e-03
     6    9.072980963667e-02
     7   -2.173336830736e-01
     8   -6.275551041389e-01
     9    1.118415284176e-01
    10   -1.058949087526e-01
    11   -3.199715590130e-04
    12    3.104901858091e-01
    13   -2.880083395675e-01
    14   -3.577652433590e-03
    15   -2.058004553179e-01
    16    1.738991533633e-02
    17    2.165744784053e-02
    18   -1.812771930291e-03
    19    8.382034072912e-03
    20    5.350686296175e-01
    21   -4.673981994994e-01
    22   -1.992880742283e-02
    23   -1.124911305946e-01
    24   -7.583215575465e-03
    25   -9.155663099429e-02
    26    2.109449007201e-01
    27    6.533145389405e-01
    28    1.123640534519e-01
    29   -1.055063944359e-01
    30   -1.495177167229e-03
    31    2.993065732933e-01
    32   -2.791613379901e-01
    33   -1.160552260915e-03
    34    2.086589511548e-01
    35   -1.764309177588e-02
    36   -2.233818839513e-02
    37    1.864363001575e-03
    38   -8.109773892869e-03
    39   -5.449064656865e-01
    40    4.636305128568e-01
    41   -2.084854908245e-02
    42   -1.131305212098e-01
    43   -7.767349144766e-03
    44   -5.323592375290e-01
    45    4.583910065616e-01
    46    1.101222540703e-01
    47    2.668102885100e-02
    48    6.833008705197e-03
Sym=X
Ene= 0.807960
Spin=Alpha
Occup=0
     1    3.896045538143e-04
     2   -8.292174880144e-04
     3    1.756501885860e-03
     4    2.026955969933e-03
     5   -3.379739533844e-02
     6    7.772173209975e-05
     7   -2.524228265974e-04
     8   -6.578514935316e-05
     9    3.621017059350e-02
    10    4.485443115189e-02
    11   -7.629488900938e-01
    12   -5.299887013179e-02
    13   -6.661201276961e-02
    14    1.126947818568e+00
    15    7.818272673435e-04
    16   -6.521190683691e-02
    17    6.186140223095e-02
    18    6.879873157978e-03
    19    8.799024061574e-04
    20    3.838185762734e-04
    21   -4.302647386440e-05
    22    1.680111532427e-03
    23    1.973583179970e-03
    24   -3.447979307929e-02
    25   -6.922356457647e-05
    26    5.626501893418e-05
    27    1.843199822771e-04
    28   -3.626228524297e-02
    29   -4.587349337204e-02
    30    7.632700552111e-01
    31    5.406491077744e-02
    32    6.734329296872e-02
    33   -1.127065134586e+00
    34    1.226151485763e-03
    35   -6.521568477192e-02
    36    6.180140066589e-02
    37    6.667199867238e-03
    38    9.671810644656e-04
    39   -3.846662940015e-04
    40    9.554035319747e-05
    41   -1.568154702752e-03
    42   -2.161091837927e-03
    43    3.427416103198e-02
    44   -3.892108944956e-04
    45    8.729316031127e-04
    46   -1.402124593924e-03
    47   -2.002892684227e-03
    48    3.372395350754e-02
Sym=X
Ene= 0.862288
Spin=Alpha
Occup=0
     1    1.513384480453e-02
     2   -1.096839434861e+00
     3    1.487460242655e-01
     4    5.631985389481e-02
     5    1.037732257431e-02
     6    3.070542371475e-04
     7   -1.897204614597e-03
     8    3.414965431141e-03
     9   -4.063838598605e-01
    10   -4.300297412057e-01
    11   -4.442655275207e-02
    12    9.455940335990e-01
    13    1.000488164624e+00
    14    1.034046180940e-01
    15   -9.211832286731e-04
    16    1.176885893138e-02
    17   -1.351083521282e-02
    18    2.355620516051e-01
    19    9.039489443909e-03
    20   -1.451967870740e-02
    21    1.105172309021e+00
    22    5.030425625747e-02
    23    1.514343833422e-01
    24    1.136093981471e-02
    25   -3.557226797069e-04
    26    9.075069359774e-04
    27   -2.661225602093e-03
    28   -4.055489829948e-01
    29   -4.292608466103e-01
    30   -4.521148607945e-02
    31    9.459776210181e-01
    32    1.000859746871e+00
    33    1.053931308999e-01
    34    1.165132690908e-03
    35   -1.184429456836e-02
    36    1.360654032785e-02
    37   -2.371425140943e-01
    38   -9.098317538132e-03
    39    1.081101775938e-02
    40   -1.102338668882e+00
    41    4.868369848483e-02
    42    1.514949369561e-01
    43    1.140244887244e-02
    44   -1.164808569027e-02
    45    1.093852496274e+00
    46    1.489218206134e-01
    47    5.461644515610e-02
    48    1.029771135155e-02
Sym=X
Ene= 0.936032
Spin=Alpha
Occup=0
     1    1.135807698242e-01
     2   -1.280443007256e+00
     3    1.813002508699e-01
     4   -5.232080565305e-03
     5    8.308026928861e-03
     6   -6.231689433735e-05
     7    4.144121568923e-03
     8   -4.846609592116e-03
     9   -4.741741376178e-01
    10   -4.974374802378e-01
    11   -5.194476215307e-02
    12    1.470017863424e+00
    13    1.533087003851e+00
    14    1.605355733101e-01
    15    9.958201940540e-04
    16    5.847777956394e-03
    17   -6.947140728230e-03
    18    1.203198534414e-01
    19    3.258125504535e-03
    20   -1.169239024258e-01
    21    1.281910912920e+00
    22   -1.183720054949e-02
    23    1.827401131433e-01
    24    1.020345038847e-02
    25    1.226737955787e-04
    26    4.788867640573e-03
    27   -3.073268832972e-03
    28    4.729534341054e-01
    29    4.994163133632e-01
    30    5.229025037305e-02
    31   -1.464416966762e+00
    32   -1.535637887477e+00
    33   -1.612342468300e-01
    34    5.053923463557e-04
    35    5.871368237761e-03
    36   -7.334220116373e-03
    37    1.218809640907e-01
    38    2.369650993224e-03
    39   -1.180061699997e-01
    40    1.288339810548e+00
    41    1.298491226217e-02
    42   -1.831199396296e-01
    43   -1.034548601270e-02
    44    1.149217649467e-01
    45   -1.282340881187e+00
    46   -1.814270035302e-01
    47    6.984108945871e-03
    48   -8.212195783215e-03
Sym=X
Ene= 0.972647
Spin=Alpha
Occup=0
     1   -6.576441877631e-02
     2    9.271071142261e-01
     3   -9.153452719183e-02
     4   -9.885676728727e-02
     5   -1.022681337404e-02
     6    2.530179302529e-02
     7    2.610565921698e-01
     8    5.040999631128e-01
     9    4.802516030978e-01
    10   -4.565320684265e-01
    11   -4.147866483431e-03
    12   -1.490147859791e+00
    13    1.416692283887e+00
    14    1.290166844658e-02
    15   -5.358311079868e-02
    16   -1.294464899991e-02
    17   -9.722949876188e-03
    18    1.332876862711e-02
    19   -3.020826196266e-01
    20   -6.214691783312e-02
    21    9.187163447150e-01
    22    9.562608193394e-02
    23    9.439774651324e-02
    24    1.012463032564e-02
    25   -2.497181048645e-02
    26   -2.321016740143e-01
    27   -5.521324623324e-01
    28    4.788449504601e-01
    29   -4.522570286077e-01
    30   -4.413848223921e-03
    31   -1.492084088597e+00
    32    1.406979126487e+00
    33    1.348360062255e-02
    34    5.178573784837e-02
    35    1.283015358297e-02
    36    9.682933680989e-03
    37   -1.268444040902e-02
    38    2.977297573624e-01
    39    6.278126741283e-02
    40   -8.987069730504e-01
    41    9.420688013124e-02
    42    9.156836562549e-02
    43    1.000155881839e-02
    44    6.630781614067e-02
    45   -9.169964420767e-01
    46   -8.999950653185e-02
    47   -9.730446946078e-02
    48   -9.995155664333e-03
[5D]

======= END OF MOLDEN-FORMATTED INPUT FILE =======


        *************************************************************
        *                                                           *
        *  Thank you very much for using Q-Chem.  Have a nice day.  *
        *                                                           *
        *************************************************************


