                  Welcome to Q-Chem
     A Quantum Leap Into The Future Of Chemistry


 Q-Chem 5.4 (devel), Q-Chem, Inc., Pleasanton, CA (2021)

 E. Epifanovsky,  A. T. B. Gilbert,  Xintian Feng,  Joonho Lee,  Yuezhi Mao,  
 N. Mardirossian,  P. Pokhilko,  A. White,  M. Wormit,  M. P. Coons,  
 A. L. Dempwolff,  Zhengting Gan,  D. Hait,  P. R. Horn,  L. D. Jacobson,  
 I. Kaliman,  J. Kussmann,  A. W. Lange,  Ka Un Lao,  D. S. Levine,  Jie Liu,  
 S. C. McKenzie,  A. F. Morrison,  K. Nanda,  F. Plasser,  D. R. Rehn,  
 M. L. Vidal,  Zhi-Qiang You,  Ying Zhu,  B. Alam,  B. Albrecht,  
 A. Aldossary,  E. Alguire,  J. H. Andersen,  D. Barton,  K. Begam,  A. Behn,  
 Y. A. Bernard,  E. J. Berquist,  H. Burton,  A. Carreras,  K. Carter-Fenk,  
 R. Chakraborty,  A. D. Chien,  K. D. Closser,  V. Cofer-Shabica,  
 S. Dasgupta,  Jia Deng,  M. de Wergifosse,  M. Diedenhofen,  Hainam Do,  
 S. Ehlert,  Po-Tung Fang,  S. Fatehi,  Qingguo Feng,  T. Friedhoff,  
 J. Gayvert,  Qinghui Ge,  G. Gidofalvi,  M. Goldey,  J. Gomes,  
 C. Gonzalez-Espinoza,  S. Gulania,  A. Gunina,  M. W. D. Hanson-Heine,  
 P. H. P. Harbach,  A. W. Hauser,  M. F. Herbst,  M. Hernandez Vera,  
 M. Hodecker,  Z. C. Holden,  S. Houck,  Xunkun Huang,  Kerwin Hui,  
 B. C. Huynh,  M. Ivanov,  Hyunjun Ji,  Hanjie Jiang,  B. Kaduk,  S. Kaehler,  
 K. Khistyaev,  Jaehoon Kim,  P. Klunzinger,  Z. Koczor-Benda,  
 Joong Hoon Koh,  D. Kosenkov,  L. Koulias,  T. Kowalczyk,  C. M. Krauter,  
 K. Kue,  A. Kunitsa,  T. Kus,  A. Landau,  K. V. Lawler,  D. Lefrancois,  
 S. Lehtola,  Rain Li,  Yi-Pei Li,  Jiashu Liang,  M. Liebenthal,  
 Hung-Hsuan Lin,  You-Sheng Lin,  Fenglai Liu,  Kuan-Yu Liu,  
 M. Loipersberger,  A. Luenser,  A. Manjanath,  P. Manohar,  E. Mansoor,  
 S. F. Manzer,  Shan-Ping Mao,  A. V. Marenich,  T. Markovich,  S. Mason,  
 S. A. Maurer,  P. F. McLaughlin,  M. F. S. J. Menger,  J.-M. Mewes,  
 S. A. Mewes,  P. Morgante,  J. W. Mullinax,  K. J. Oosterbaan,  G. Paran,  
 Alexander C. Paul,  Suranjan K. Paul,  F. Pavosevic,  Zheng Pei,  S. Prager,  
 E. I. Proynov,  E. Ramos,  B. Rana,  A. E. Rask,  A. Rettig,  R. M. Richard,  
 F. Rob,  E. Rossomme,  T. Scheele,  M. Scheurer,  M. Schneider,  
 N. Sergueev,  S. M. Sharada,  W. Skomorowski,  D. W. Small,  C. J. Stein,  
 Yu-Chuan Su,  E. J. Sundstrom,  Zhen Tao,  J. Thirman,  T. Tsuchimochi,  
 N. M. Tubman,  S. P. Veccham,  O. Vydrov,  J. Wenzel,  J. Witte,  A. Yamada,  
 Kun Yao,  S. Yeganeh,  S. R. Yost,  A. Zech,  Igor Ying Zhang,  Xing Zhang,  
 Yu Zhang,  D. Zuev,  A. Aspuru-Guzik,  A. T. Bell,  N. A. Besley,  
 K. B. Bravaya,  B. R. Brooks,  D. Casanova,  Jeng-Da Chai,  S. Coriani,  
 C. J. Cramer,  A. E. DePrince, III,  R. A. DiStasio Jr.,  A. Dreuw,  
 B. D. Dunietz,  T. R. Furlani,  W. A. Goddard III,  S. Grimme,  
 S. Hammes-Schiffer,  T. Head-Gordon,  W. J. Hehre,  Chao-Ping Hsu,  
 T.-C. Jagau,  Yousung Jung,  A. Klamt,  Jing Kong,  D. S. Lambrecht,  
 WanZhen Liang,  N. J. Mayhall,  C. W. McCurdy,  J. B. Neaton,  
 C. Ochsenfeld,  J. A. Parkhill,  R. Peverati,  V. A. Rassolov,  Yihan Shao,  
 L. V. Slipchenko,  T. Stauch,  R. P. Steele,  J. E. Subotnik,  
 A. J. W. Thom,  A. Tkatchenko,  D. G. Truhlar,  T. Van Voorhis,  
 T. A. Wesolowski,  K. B. Whaley,  H. L. Woodcock III,  P. M. Zimmerman,  
 S. Faraji,  P. M. W. Gill,  M. Head-Gordon,  J. M. Herbert,  A. I. Krylov

 Additional authors for Version 5.4.1: 
 S. Kotaru,  Shaozhi Li,  Xiangyuan Li,  F. Matz,  A. Molle,  Haisheng Ren,  
 Yingli Su,  Hung-Yi Tsai,  C. Utku,  Fang Wang

 Contributors to earlier versions of Q-Chem not listed above: 
 R. D. Adamson,  B. Austin,  R. Baer,  J. Baker,  G. J. O. Beran,  
 K. Brandhorst,  S. T. Brown,  E. F. C. Byrd,  A. K. Chakraborty,  
 G. K. L. Chan,  Chun-Min Chang,  Yunqing Chen,  C.-L. Cheng,  
 Siu Hung Chien,  D. M. Chipman,  D. L. Crittenden,  H. Dachsel,  
 R. J. Doerksen,  A. D. Dutoi,  R. G. Edgar,  J. Fosso-Tande,  
 L. Fusti-Molnar,  D. Ghosh,  A. Ghysels,  A. Golubeva-Zadorozhnaya,  
 J. Gonthier,  M. S. Gordon,  S. R. Gwaltney,  G. Hawkins,  J. E. Herr,  
 A. Heyden,  S. Hirata,  E. G. Hohenstein,  G. Kedziora,  F. J. Keil,  
 C. Kelley,  Jihan Kim,  R. A. King,  R. Z. Khaliullin,  P. P. Korambath,  
 W. Kurlancheek,  A. Laurent,  A. M. Lee,  M. S. Lee,  S. V. Levchenko,  
 Ching Yeh Lin,  D. Liotard,  E. Livshits,  R. C. Lochan,  I. Lotan,  
 L. A. Martinez-Martinez,  P. E. Maslen,  N. Nair,  D. P. O'Neill,  
 D. Neuhauser,  E. Neuscamman,  C. M. Oana,  R. Olivares-Amaya,  R. Olson,  
 T. M. Perrine,  B. Peters,  P. A. Pieniazek,  A. Prociuk,  Y. M. Rhee,  
 J. Ritchie,  M. A. Rohrdanz,  E. Rosta,  N. J. Russ,  H. F. Schaefer III,  
 M. W. Schmidt,  N. E. Schultz,  S. Sharma,  N. Shenvi,  C. D. Sherrill,  
 A. C. Simmonett,  A. Sodt,  T. Stein,  D. Stuck,  K. S. Thanthiriwatte,  
 V. Vanovschi,  L. Vogt,  Tao Wang,  A. Warshel,  M. A. Watson,  
 C. F. Williams,  Q. Wu,  X. Xu,  Jun Yang,  W. Zhang,  Yan Zhao

 Please cite Q-Chem as follows:
 Y. Shao et al., Mol. Phys. 113, 184-215 (2015)
 DOI: 10.1080/00268976.2014.952696

 Q-Chem 5.4.1 for Intel X86 EM64T Linux

 Parts of Q-Chem use Armadillo 9.800.1 (Horizon Scraper).
 http://arma.sourceforge.net/

 Q-Chem begins on Thu Nov 17 15:41:06 2022  

 Host: cpu198.baobab
0

     Scratch files written to /scratch/fum/qchem8776//
 Processing $rem in /home/share/wesolowski/qc5.aug2021.FDE/config/preferences:
 Processing $rem in /home/fum/.qchemrc:

 Checking the input file for inconsistencies... 	...done.

--------------------------------------------------------------
User input:
--------------------------------------------------------------
$comment
generated from CCJob.Templates
$end

$rem
sym_ignore = true
method = adc(2)
ee_states = 10
basis = cc-pVDZ
mem_static = 1024
mem_total = 40000
adc_davidson_maxiter = 900
adc_davidson_conv = 6
adc_print = 3
adc_prop_es = true
adc_prop_es2es = true
adc_prop_tpa = true
molden_format = True
state_analysis = true
print_orbitals = 15
gen_scfman = false
fde_export_density = true
fde_details = 3
$end

$molecule
0 1
H -0.0348278765 -0.2442097827 0.0636489606
C -1.0865972949 -0.5242748755 -0.0023551776
H -1.313264467 -1.5767591607 -0.0757276926
C -2.043634118 0.3926884087 0.0061254933
H -1.8137616575 1.4459188338 0.0804456828
H -3.085977293 0.114931858 -0.0593381042                     
$end
--------------------------------------------------------------
 ----------------------------------------------------------------
             Standard Nuclear Orientation (Angstroms)
    I     Atom           X                Y                Z
 ----------------------------------------------------------------
    1      H      -0.0348278765    -0.2442097827     0.0636489606
    2      C      -1.0865972949    -0.5242748755    -0.0023551776
    3      H      -1.3132644670    -1.5767591607    -0.0757276926
    4      C      -2.0436341180     0.3926884087     0.0061254933
    5      H      -1.8137616575     1.4459188338     0.0804456828
    6      H      -3.0859772930     0.1149318580    -0.0593381042
 ----------------------------------------------------------------
 Nuclear Repulsion Energy =          33.49089901 hartrees
 There are        8 alpha and        8 beta electrons
 Requested basis set is cc-pVDZ
 There are 24 shells and 48 basis functions
 Total memory of 40000 MB is distributed as follows: 
   MEM_STATIC is set to 1024 MB
   QALLOC/CCMAN JOB total memory use is  38976 MB
 Warning: actual memory use might exceed 40000 MB

 Total QAlloc Memory Limit  40000 MB
 Mega-Array Size      1001 MB
 MEM_STATIC part      1024 MB

                       Distance Matrix (Angstroms)
             H (  1)   C (  2)   H (  3)   C (  4)   H (  5)
   C (  2)  1.090418
   H (  3)  1.851895  1.079113
   C (  4)  2.108139  1.325448  2.102109
   H (  5)  2.453859  2.101734  3.067812  1.080583
   H (  6)  3.074674  2.099846  2.450428  1.080700  1.846510

 A cutoff of  1.0D-11 yielded    300 shell pairs
 There are      1220 function pairs (      1329 Cartesian)
 Smallest overlap matrix eigenvalue = 4.68E-03

 Scale SEOQF with 1.000000e-01/1.000000e-01/1.000000e+00

 Standard Electronic Orientation quadrupole field applied
 Nucleus-field energy     =     0.0000000022 hartrees
 Guess from superposition of atomic densities
 Warning:  Energy on first SCF cycle will be non-variational
 SAD guess density has 16.000000 electrons
 A restricted Hartree-Fock SCF calculation will be
 performed using Pulay DIIS extrapolation
 SCF converges when DIIS error is below 1.0E-08
 using 10 threads for integral computing
 -------------------------------------------------------
 OpenMP Integral computing Module                
 Release: version 1.0, May 2013, Q-Chem Inc. Pittsburgh 
 -------------------------------------------------------
 ---------------------------------------
  Cycle       Energy         DIIS Error
 ---------------------------------------
    1     -78.4481140258      1.02E-01
    2     -78.0177534123      7.24E-03
    3     -78.0384417751      1.86E-03
    4     -78.0399338995      5.85E-04
    5     -78.0400605354      5.83E-05
    6     -78.0400624194      1.01E-05
    7     -78.0400624833      3.51E-06
    8     -78.0400624881      1.07E-06
    9     -78.0400624887      1.40E-07
   10     -78.0400624887      4.20E-08
   11     -78.0400624887      7.95E-09 Convergence criterion met
 ---------------------------------------
 SCF time:  CPU 1.57 s  wall 2.94 s
 SCF   energy in the final basis set = -78.04006249
 Total energy in the final basis set = -78.04006249
Exporting Density Matrix to file 'Densmat_SCF.txt'.
Export successful
================================================================================
|                                                                              |
|                                 A D C  M A N                                 |
|                                                                              |
 ------------------------------------------------------------------------------ 
|                                                                              |
| Components:                                                                  |
|                                                                              |
| - libvmm - 1.3-trunk                                                         |
|   Authors:                                                                   |
|   Evgeny Epifanovsky, Ilya Kaliman                                           |
|                                                                              |
| - libtensor - 2.5-trunk                                                      |
|   Authors:                                                                   |
|   Evgeny Epifanovsky, Michael Wormit, Dmitry Zuev, Sam Manzer,               |
|   Ilya Kaliman                                                               |
|                                                                              |
| - libwfa - 1.1-trunk                                                         |
|   Authors:                                                                   |
|   Felix Plasser, Stefanie Mewes (Baeppler), Benjamin Thomitzni,              |
|   Michael Wormit, Feng Chen, Anna I. Krylov, Pavel Pokhilko                  |
|                                                                              |
| - libadc - 1.1-trunk                                                         |
|   Authors:                                                                   |
|   Michael Wormit, Adrian L. Dempwolff, Philipp H. P. Harbach,                |
|   Caroline Krauter, Dirk Rehn, Matthias Schneider, Jan Wenzel                |
|                                                                              |
| - adcman - 2.6-trunk                                                         |
|   Authors:                                                                   |
|   Michael Wormit, Adrian L. Dempwolff, Philipp H. P. Harbach,                |
|   Caroline Krauter, Daniel Lefrancois, Jan-Michael Mewes, Dirk Rehn,         |
|   Matthias Schneider, Jan Wenzel, Andreas Dreuw                              |
|                                                                              |
| Authors of earlier versions of ADCMAN:                                       |
| Andreas Dreuw, Jan Hendrik Starcke, Dirk Rehn, Michael Wormit                |
|                                                                              |
================================================================================

 Created directory /scratch/fum/qchem8776/plots
  Import QC data ...  CPU 0.00 s  wall 0.00 s

 Alpha MOs, Restricted
 -- Occupied --                  
-11.235 -11.233  -1.034  -0.789  -0.641  -0.584  -0.502  -0.376
  1 A     2 A     3 A     4 A     5 A     6 A     7 A     8 A                  
 -- Virtual --                   
  0.170   0.204   0.232   0.239   0.304   0.464   0.577   0.615
  9 A    10 A    11 A    12 A    13 A    14 A    15 A    16 A                  
  0.688   0.708   0.786   0.809   0.861   0.936   0.976   1.009
 17 A    18 A    19 A    20 A    21 A    22 A    23 A    24 A                  
  1.130   1.237   1.254   1.268   1.294   1.598   1.729   1.751
 25 A    26 A    27 A    28 A    29 A    30 A    31 A    32 A                  
  1.820   1.862   1.868   1.921   1.973   1.980   2.226   2.262
 33 A    34 A    35 A    36 A    37 A    38 A    39 A    40 A                  
  2.376   2.451   2.508   2.640   2.714   2.822   3.137   3.405
 41 A    42 A    43 A    44 A    45 A    46 A    47 A    48 A                  

 Beta MOs, Restricted
 -- Occupied --                  
-11.235 -11.233  -1.034  -0.789  -0.641  -0.584  -0.502  -0.376
  1 A     2 A     3 A     4 A     5 A     6 A     7 A     8 A                  
 -- Virtual --                   
  0.170   0.204   0.232   0.239   0.304   0.464   0.577   0.615
  9 A    10 A    11 A    12 A    13 A    14 A    15 A    16 A                  
  0.688   0.708   0.786   0.809   0.861   0.936   0.976   1.009
 17 A    18 A    19 A    20 A    21 A    22 A    23 A    24 A                  
  1.130   1.237   1.254   1.268   1.294   1.598   1.729   1.751
 25 A    26 A    27 A    28 A    29 A    30 A    31 A    32 A                  
  1.820   1.862   1.868   1.921   1.973   1.980   2.226   2.262
 33 A    34 A    35 A    36 A    37 A    38 A    39 A    40 A                  
  2.376   2.451   2.508   2.640   2.714   2.822   3.137   3.405
 41 A    42 A    43 A    44 A    45 A    46 A    47 A    48 A                  
  Import AO data ...  CPU 0.00 s  wall 0.01 s
  Using point group: C1
  Irreducible representations in point group: A
  Molecular orbitals: 
  Occupied MOs:
  Block   0:   1 (  A) A   2 (  A) A   3 (  A) A   4 (  A) A   5 (  A) A
                  -11.23      -11.23      -1.034     -0.7886     -0.6408
               6 (  A) A   7 (  A) A   8 (  A) A
                 -0.5836     -0.5024     -0.3758
  Block   1:   1 (  A) B   2 (  A) B   3 (  A) B   4 (  A) B   5 (  A) B
                  -11.23      -11.23      -1.034     -0.7886     -0.6408
               6 (  A) B   7 (  A) B   8 (  A) B
                 -0.5836     -0.5024     -0.3758
  Virtual MOs:
  Block   0:   9 (  A) A  10 (  A) A  11 (  A) A  12 (  A) A  13 (  A) A
                  0.1701      0.2037      0.2324      0.2392      0.3037
              14 (  A) A  15 (  A) A  16 (  A) A  17 (  A) A  18 (  A) A
                  0.4637      0.5765      0.6149      0.6876      0.7083
              19 (  A) A  20 (  A) A  21 (  A) A  22 (  A) A
                   0.786      0.8087      0.8607      0.9362
  Block   1:  23 (  A) A  24 (  A) A  25 (  A) A  26 (  A) A  27 (  A) A
                  0.9762       1.009        1.13       1.237       1.254
              28 (  A) A  29 (  A) A  30 (  A) A  31 (  A) A  32 (  A) A
                   1.268       1.294       1.598       1.729       1.751
              33 (  A) A  34 (  A) A  35 (  A) A  36 (  A) A
                    1.82       1.862       1.868       1.921
  Block   2:  37 (  A) A  38 (  A) A  39 (  A) A  40 (  A) A  41 (  A) A
                   1.973        1.98       2.226       2.262       2.376
              42 (  A) A  43 (  A) A  44 (  A) A  45 (  A) A  46 (  A) A
                   2.451       2.508        2.64       2.714       2.822
              47 (  A) A  48 (  A) A
                   3.137       3.405
  Block   3:   9 (  A) B  10 (  A) B  11 (  A) B  12 (  A) B  13 (  A) B
                  0.1701      0.2037      0.2324      0.2392      0.3037
              14 (  A) B  15 (  A) B  16 (  A) B  17 (  A) B  18 (  A) B
                  0.4637      0.5765      0.6149      0.6876      0.7083
              19 (  A) B  20 (  A) B  21 (  A) B  22 (  A) B
                   0.786      0.8087      0.8607      0.9362
  Block   4:  23 (  A) B  24 (  A) B  25 (  A) B  26 (  A) B  27 (  A) B
                  0.9762       1.009        1.13       1.237       1.254
              28 (  A) B  29 (  A) B  30 (  A) B  31 (  A) B  32 (  A) B
                   1.268       1.294       1.598       1.729       1.751
              33 (  A) B  34 (  A) B  35 (  A) B  36 (  A) B
                    1.82       1.862       1.868       1.921
  Block   5:  37 (  A) B  38 (  A) B  39 (  A) B  40 (  A) B  41 (  A) B
                   1.973        1.98       2.226       2.262       2.376
              42 (  A) B  43 (  A) B  44 (  A) B  45 (  A) B  46 (  A) B
                   2.451       2.508        2.64       2.714       2.822
              47 (  A) B  48 (  A) B
                   3.137       3.405
  Import MO data ...  CPU 0.01 s  wall 0.02 s
  Import HF data ...  CPU 0.08 s  wall 0.04 s
  Import 2e integrals ...  CPU 0.67 s  wall 0.12 s

--------------------------------------------------------------------------------
                                   HF Summary                                   
--------------------------------------------------------------------------------
  Energy:                                                  -78.0400624887 a.u.
  Dip. moment [a.u.]:                  [  -0.001753,   -0.000632,    0.000074]
  Total dipole [Debye]:                                               0.004739
  <r^2> [a.u.]:                        [ 175.804756,   34.900339,   11.611360]
  Total <r^2> [a.u.]:                                               222.316456
--------------------------------------------------------------------------------
  HF properties ...  CPU 0.01 s  wall 0.01 s
  MP(1) calculation ...  CPU 0.01 s  wall 0.01 s
  N^6 prerequesite intermediates ...  CPU 0.50 s  wall 0.09 s
  Difference density matrix of state mp2_gs printed to ASCII file 'State_mp2_gs_Difference.txt'
Exporting MP density matrix to file 'Densmat_MP.txt'.
Export successful
  Total density matrix of state mp2_gs printed to ASCII file 'State_mp2_gs_Total.txt'
Exporting MP density matrix to file 'Densmat_MP.txt'.
Export successful

--------------------------------------------------------------------------------
                                 MP(2) Summary                                  
--------------------------------------------------------------------------------
  MP energy contribution:                                   -0.2793886332 a.u.
  Total energy:                                            -78.3194511219 a.u.
  Dip. moment [a.u.]:                  [  -0.001526,   -0.000421,    0.000095]
  Total dipole [Debye]:                                               0.004032
  <r^2> [a.u.]:                        [ 175.850976,   34.943870,   11.447590]
  Total <r^2> [a.u.]:                                               222.242436

  Density matrix analysis:
  ------------------------
  NOs
    Occupation of frontier NOs:
       0.0447   1.9388
    Number of electrons: 16.000000
    Number of unpaired electrons: n_u =  0.40205, n_u,nl =  0.04458
    NO participation ratio (PR_NO): 13.923920
  
  
  Mulliken Population Analysis
  Atom      Charge (e)              h+              e-           Del q
  --------------------------------------------------------------------
   1 H        0.051992        0.013986       -0.011212        0.002774
   2 C       -0.103509        0.092858       -0.098463       -0.005606
   3 H        0.049791        0.014093       -0.011200        0.002894
   4 C       -0.098086        0.092269       -0.098178       -0.005909
   5 H        0.049987        0.014092       -0.011182        0.002910
   6 H        0.049825        0.014111       -0.011175        0.002937
  --------------------------------------------------------------------
  Sum:        0.000000        0.241409       -0.241409       -0.000000
  
  Multipole moment analysis of the density matrix
    Molecular charge:                      0.000000
    Number of electrons:                   16.000000
      Center of electronic charge [Ang]: [ -1.564276,  -0.065588,   0.001975]
    Total nuclear charge:                  16.000000
      Center of nuclear charge [Ang]:    [ -1.564326,  -0.065602,   0.001978]
    Dipole moment [D]:                     0.004032
      Cartesian components [D]:          [ -0.003880,  -0.001070,   0.000241]
    RMS size of the density [Ang]:         1.199322
      Cartesian components [Ang]:        [  0.794196,   0.779281,   0.447604]
  
  Exciton analysis of the difference density matrix
    <r_h> [Ang]:                  [ -1.562822,  -0.065716,   0.002006]
    <r_e> [Ang]:                  [ -1.563318,  -0.066179,   0.001960]
    |<r_e - r_h>| [Ang]:            0.000680
    Hole size [Ang]:                1.391528
      Cartesian components [Ang]: [  0.846596,   0.833307,   0.724723]
    Electron size [Ang]:            1.359735
      Cartesian components [Ang]: [  0.876806,   0.863038,   0.579012]
--------------------------------------------------------------------------------
  MP(2) calculation ...  CPU 0.13 s  wall 0.12 s
  Start ADC(2)-s ...  CPU 0.01 s  wall 0.00 s
  ADC(2) intermediates ...  CPU 0.02 s  wall 0.01 s
  Starting Davidson for singlet states of irrep A ... 
--------------------------------------------------------------------------------
   It NVec Conv  Avg. Norm  Max. Norm  Conv. states           Remark
--------------------------------------------------------------------------------
        10    0  1.331e-01  4.696e-01  0.4134 n n n n n n n n Guess.
    1   20    0  2.297e-02  1.101e-01  0.3285 n n n n n n n n 
    2   30    0  5.864e-03  2.582e-02  0.3238 n n n n n n n n 
    3   40    0  2.052e-03  1.354e-02  0.3234 n n n n n n n n 
    4   50    0  5.610e-04  3.699e-03  0.3234 n n n n n n n n 
    5   20    0  2.587e-04  1.756e-03  0.3234 n n n n n n n n Subspace collapsed.
    6   30    0  1.538e-04  1.222e-03  0.3234 n n n n n n n n 
    7   40    0  1.149e-04  8.137e-04  0.3234 n n n n n n n n 
    8   50    0  1.153e-04  1.072e-03  0.3234 n n n n n n n n 
    9   20    2  5.440e-05  5.070e-04  0.3234 n y n y n n n n Subspace collapsed.
   10   30    3  3.407e-05  2.960e-04  0.3234 n y n y y n n n 
   11   40    5  1.943e-05  1.795e-04  0.3234 n y y y y y n n 
   12   50    6  2.393e-05  2.327e-04  0.3234 y y y y y y n n 
   13   20    6  1.365e-05  1.332e-04  0.3234 y y y y y y n n Subspace collapsed.
   14   30    6  1.606e-05  1.573e-04  0.3234 y y y y y y n n 
   15   40    6  1.767e-05  1.744e-04  0.3234 y y y y y y n n 
   16   50    6  1.817e-05  1.801e-04  0.3234 y y y y y y n n 
   17   20    6  9.311e-06  9.226e-05  0.3234 y y y y y y n n Subspace collapsed.
   18   30    6  6.620e-06  6.559e-05  0.3234 y y y y y y n n 
   19   40    7  4.449e-06  4.417e-05  0.3234 y y y y y y y n 
   20   50    7  4.064e-06  4.041e-05  0.3234 y y y y y y y n 
   21   20    8  2.521e-06  2.507e-05  0.3234 y y y y y y y y Subspace collapsed.
   22   30    8  3.680e-06  3.662e-05  0.3234 y y y y y y y y 
   23   39    8  3.231e-06  3.220e-05  0.3234 y y y y y y y y 
   24   47    8  3.423e-06  3.414e-05  0.3234 y y y y y y y y 
   25   50    8  3.305e-06  3.296e-05  0.3234 y y y y y y y y 
   26   10    8  3.305e-06  3.296e-05  0.3234 y y y y y y y y Subspace collapsed.
   27   10    8  3.305e-06  3.296e-05  0.3234 y y y y y y y y 
   28   20    8  1.682e-06  1.678e-05  0.3234 y y y y y y y y 
   29   25    8  1.700e-06  1.695e-05  0.3234 y y y y y y y y 
   30   30    9  8.774e-07  8.754e-06  0.3234 y y y y y y y y 
   31   34    9  9.314e-07  9.298e-06  0.3234 y y y y y y y y 
   32   38    9  1.043e-06  1.042e-05  0.3234 y y y y y y y y 
   33   42    9  7.621e-07  7.614e-06  0.3234 y y y y y y y y 
   34   46    9  3.500e-07  3.497e-06  0.3234 y y y y y y y y 
   35   50    9  1.743e-07  1.742e-06  0.3234 y y y y y y y y 
   36   14    9  1.058e-07  1.058e-06  0.3234 y y y y y y y y Subspace collapsed.
   37   18   10  9.493e-08  9.488e-07  0.3234 y y y y y y y y Converged.
--------------------------------------------------------------------------------
  Davidson Summary: 
 ------------------------------------------------------------
  State  0: excitation energy =   0.3234 a.u.   (converged)
  State  1: excitation energy =   0.3326 a.u.   (converged)
  State  2: excitation energy =   0.3381 a.u.   (converged)
  State  3: excitation energy =   0.3615 a.u.   (converged)
  State  4: excitation energy =   0.3770 a.u.   (converged)
  State  5: excitation energy =   0.3894 a.u.   (converged)
  State  6: excitation energy =   0.4231 a.u.   (converged)
  State  7: excitation energy =   0.4485 a.u.   (converged)
  State  8: excitation energy =   0.4577 a.u.   (converged)
  State  9: excitation energy =   0.4624 a.u.   (converged)
 ------------------------------------------------------------

  Singlet states of irrep A ...  CPU 84.91 s  wall 30.17 s
  TDMs ...  CPU 0.66 s  wall 0.28 s
  SDMs ...  CPU 1.60 s  wall 0.53 s
  Starting TPA DIIS iterations ... 
------------------------------------ 
   It     Res. Norm  Remark
------------------------------------
                       Guess.
    1     4.288e+00  
    2     5.661e+00  
    3     1.065e+00  
    4     2.542e-01  
    5     6.357e-02  
    6     2.650e-02  
    7     8.125e-03  
    8     1.479e-03  
    9     5.484e-04  
   10     9.157e-05  
   11     2.923e-05  
   12     4.474e-06  
   13     1.481e-06  
   14     4.450e-07  Converged.
   ... Converged in 14 steps (norm: 4.44963e-07)
------------------------------------
  Starting TPA DIIS iterations ... 
------------------------------------ 
   It     Res. Norm  Remark
------------------------------------
                       Guess.
    1     4.126e+00  
    2     5.433e+00  
    3     1.018e+00  
    4     2.489e-01  
    5     6.310e-02  
    6     2.597e-02  
    7     7.952e-03  
    8     1.442e-03  
    9     5.372e-04  
   10     8.920e-05  
   11     2.829e-05  
   12     4.318e-06  
   13     1.458e-06  
   14     4.368e-07  Converged.
   ... Converged in 14 steps (norm: 4.36807e-07)
------------------------------------
  Starting TPA DIIS iterations ... 
------------------------------------ 
   It     Res. Norm  Remark
------------------------------------
                       Guess.
    1     6.874e-01  
    2     4.818e-01  
    3     1.699e-01  
    4     5.711e-02  
    5     1.834e-02  
    6     6.705e-03  
    7     1.052e-03  
    8     4.524e-04  
    9     1.314e-04  
   10     2.466e-05  
   11     8.514e-06  
   12     2.707e-06  
   13     1.831e-06  
   14     7.761e-07  Converged.
   ... Converged in 14 steps (norm: 7.76116e-07)
------------------------------------
  Starting TPA DIIS iterations ... 
------------------------------------ 
   It     Res. Norm  Remark
------------------------------------
                       Guess.
    1     4.504e+00  
    2     6.046e+00  
    3     1.126e+00  
    4     2.760e-01  
    5     6.980e-02  
    6     2.932e-02  
    7     8.976e-03  
    8     1.632e-03  
    9     6.086e-04  
   10     1.021e-04  
   11     3.283e-05  
   12     5.060e-06  
   13     1.684e-06  
   14     5.065e-07  Converged.
   ... Converged in 14 steps (norm: 5.06549e-07)
------------------------------------
  Starting TPA DIIS iterations ... 
------------------------------------ 
   It     Res. Norm  Remark
------------------------------------
                       Guess.
    1     4.334e+00  
    2     5.803e+00  
    3     1.077e+00  
    4     2.700e-01  
    5     6.929e-02  
    6     2.873e-02  
    7     8.784e-03  
    8     1.591e-03  
    9     5.962e-04  
   10     9.944e-05  
   11     3.176e-05  
   12     4.882e-06  
   13     1.659e-06  
   14     4.981e-07  Converged.
   ... Converged in 14 steps (norm: 4.98053e-07)
------------------------------------
  Starting TPA DIIS iterations ... 
------------------------------------ 
   It     Res. Norm  Remark
------------------------------------
                       Guess.
    1     6.969e-01  
    2     4.954e-01  
    3     1.776e-01  
    4     6.278e-02  
    5     1.947e-02  
    6     7.185e-03  
    7     1.157e-03  
    8     5.138e-04  
    9     1.513e-04  
   10     2.664e-05  
   11     9.598e-06  
   12     3.107e-06  
   13     2.186e-06  
   14     9.403e-07  Converged.
   ... Converged in 14 steps (norm: 9.40335e-07)
------------------------------------
  Starting TPA DIIS iterations ... 
------------------------------------ 
   It     Res. Norm  Remark
------------------------------------
                       Guess.
    1     4.643e+00  
    2     6.296e+00  
    3     1.166e+00  
    4     2.904e-01  
    5     7.391e-02  
    6     3.119e-02  
    7     9.538e-03  
    8     1.733e-03  
    9     6.485e-04  
   10     1.091e-04  
   11     3.525e-05  
   12     5.454e-06  
   13     1.821e-06  
   14     5.481e-07  Converged.
   ... Converged in 14 steps (norm: 5.48137e-07)
------------------------------------
  Starting TPA DIIS iterations ... 
------------------------------------ 
   It     Res. Norm  Remark
------------------------------------
                       Guess.
    1     4.466e+00  
    2     6.043e+00  
    3     1.115e+00  
    4     2.840e-01  
    5     7.337e-02  
    6     3.055e-02  
    7     9.333e-03  
    8     1.690e-03  
    9     6.353e-04  
   10     1.062e-04  
   11     3.408e-05  
   12     5.261e-06  
   13     1.795e-06  
   14     5.395e-07  Converged.
   ... Converged in 14 steps (norm: 5.39519e-07)
------------------------------------
  Starting TPA DIIS iterations ... 
------------------------------------ 
   It     Res. Norm  Remark
------------------------------------
                       Guess.
    1     7.027e-01  
    2     5.038e-01  
    3     1.824e-01  
    4     6.658e-02  
    5     2.019e-02  
    6     7.501e-03  
    7     1.228e-03  
    8     5.553e-04  
    9     1.648e-04  
   10     2.770e-05  
   11     1.033e-05  
   12     3.382e-06  
   13     2.435e-06  
   14     1.058e-06  
   15     4.343e-07  Converged.
   ... Converged in 15 steps (norm: 4.34304e-07)
------------------------------------
  Starting TPA DIIS iterations ... 
------------------------------------ 
   It     Res. Norm  Remark
------------------------------------
                       Guess.
    1     5.312e+00  
    2     7.537e+00  
    3     1.357e+00  
    4     3.640e-01  
    5     9.493e-02  
    6     4.084e-02  
    7     1.242e-02  
    8     2.250e-03  
    9     8.547e-04  
   10     1.453e-04  
   11     4.798e-05  
   12     7.540e-06  
   13     2.561e-06  
   14     7.728e-07  Converged.
   ... Converged in 14 steps (norm: 7.72793e-07)
------------------------------------
  Starting TPA DIIS iterations ... 
------------------------------------ 
   It     Res. Norm  Remark
------------------------------------
                       Guess.
    1     5.109e+00  
    2     7.233e+00  
    3     1.297e+00  
    4     3.553e-01  
    5     9.427e-02  
    6     4.002e-02  
    7     1.215e-02  
    8     2.193e-03  
    9     8.371e-04  
   10     1.415e-04  
   11     4.633e-05  
   12     7.268e-06  
   13     2.531e-06  
   14     7.649e-07  Converged.
   ... Converged in 14 steps (norm: 7.64857e-07)
------------------------------------
  Starting TPA DIIS iterations ... 
------------------------------------ 
   It     Res. Norm  Remark
------------------------------------
                       Guess.
    1     7.283e-01  
    2     5.427e-01  
    3     2.053e-01  
    4     8.665e-02  
    5     2.358e-02  
    6     9.121e-03  
    7     1.603e-03  
    8     7.727e-04  
    9     2.341e-04  
   10     3.107e-05  
   11     1.431e-05  
   12     4.948e-06  
   13     3.875e-06  
   14     1.774e-06  
   15     6.766e-07  Converged.
   ... Converged in 15 steps (norm: 6.7664e-07)
------------------------------------
  Starting TPA DIIS iterations ... 
------------------------------------ 
   It     Res. Norm  Remark
------------------------------------
                       Guess.
    1     5.851e+00  
    2     8.569e+00  
    3     1.510e+00  
    4     4.278e-01  
    5     1.131e-01  
    6     4.932e-02  
    7     1.492e-02  
    8     2.696e-03  
    9     1.035e-03  
   10     1.771e-04  
   11     5.940e-05  
   12     9.416e-06  
   13     3.241e-06  
   14     9.836e-07  Converged.
   ... Converged in 14 steps (norm: 9.83572e-07)
------------------------------------
  Starting TPA DIIS iterations ... 
------------------------------------ 
   It     Res. Norm  Remark
------------------------------------
                       Guess.
    1     5.625e+00  
    2     8.223e+00  
    3     1.443e+00  
    4     4.169e-01  
    5     1.124e-01  
    6     4.834e-02  
    7     1.459e-02  
    8     2.628e-03  
    9     1.014e-03  
   10     1.724e-04  
   11     5.730e-05  
   12     9.074e-06  
   13     3.210e-06  
   14     9.779e-07  Converged.
   ... Converged in 14 steps (norm: 9.77886e-07)
------------------------------------
  Starting TPA DIIS iterations ... 
------------------------------------ 
   It     Res. Norm  Remark
------------------------------------
                       Guess.
    1     7.463e-01  
    2     5.719e-01  
    3     2.231e-01  
    4     1.047e-01  
    5     2.631e-02  
    6     1.054e-02  
    7     1.946e-03  
    8     9.553e-04  
    9     2.918e-04  
   10     3.342e-05  
   11     1.808e-05  
   12     6.520e-06  
   13     5.328e-06  
   14     2.528e-06  
   15     9.137e-07  Converged.
   ... Converged in 15 steps (norm: 9.13708e-07)
------------------------------------
  Starting TPA DIIS iterations ... 
------------------------------------ 
   It     Res. Norm  Remark
------------------------------------
                       Guess.
    1     6.346e+00  
    2     9.542e+00  
    3     1.649e+00  
    4     4.898e-01  
    5     1.308e-01  
    6     5.763e-02  
    7     1.735e-02  
    8     3.128e-03  
    9     1.212e-03  
   10     2.083e-04  
   11     7.068e-05  
   12     1.128e-05  
   13     3.924e-06  
   14     1.203e-06  
   15     3.839e-07  Converged.
   ... Converged in 15 steps (norm: 3.83858e-07)
------------------------------------
  Starting TPA DIIS iterations ... 
------------------------------------ 
   It     Res. Norm  Remark
------------------------------------
                       Guess.
    1     6.100e+00  
    2     9.156e+00  
    3     1.576e+00  
    4     4.767e-01  
    5     1.299e-01  
    6     5.649e-02  
    7     1.696e-02  
    8     3.049e-03  
    9     1.187e-03  
   10     2.027e-04  
   11     6.815e-05  
   12     1.087e-05  
   13     3.895e-06  
   14     1.201e-06  
   15     4.202e-07  Converged.
   ... Converged in 15 steps (norm: 4.20204e-07)
------------------------------------
  Starting TPA DIIS iterations ... 
------------------------------------ 
   It     Res. Norm  Remark
------------------------------------
                       Guess.
    1     7.614e-01  
    2     5.973e-01  
    3     2.390e-01  
    4     1.227e-01  
    5     2.887e-02  
    6     1.192e-02  
    7     2.293e-03  
    8     1.117e-03  
    9     3.445e-04  
   10     3.684e-05  
   11     2.201e-05  
   12     8.235e-06  
   13     6.896e-06  
   14     3.362e-06  
   15     1.187e-06  
   16     5.205e-07  Converged.
   ... Converged in 16 steps (norm: 5.2054e-07)
------------------------------------
  Starting TPA DIIS iterations ... 
------------------------------------ 
   It     Res. Norm  Remark
------------------------------------
                       Guess.
    1     8.109e+00  
    2     1.319e+01  
    3     2.138e+00  
    4     7.329e-01  
    5     2.001e-01  
    6     9.088e-02  
    7     2.688e-02  
    8     4.817e-03  
    9     1.916e-03  
   10     3.321e-04  
   11     1.154e-04  
   12     1.881e-05  
   13     6.656e-06  
   14     2.217e-06  
   15     6.922e-07  Converged.
   ... Converged in 15 steps (norm: 6.92214e-07)
------------------------------------
  Starting TPA DIIS iterations ... 
------------------------------------ 
   It     Res. Norm  Remark
------------------------------------
                       Guess.
    1     7.792e+00  
    2     1.266e+01  
    3     2.042e+00  
    4     7.103e-01  
    5     1.988e-01  
    6     8.910e-02  
    7     2.627e-02  
    8     4.693e-03  
    9     1.876e-03  
   10     3.232e-04  
   11     1.113e-04  
   12     1.812e-05  
   13     6.688e-06  
   14     2.236e-06  
   15     7.927e-07  Converged.
   ... Converged in 15 steps (norm: 7.92657e-07)
------------------------------------
  Starting TPA DIIS iterations ... 
------------------------------------ 
   It     Res. Norm  Remark
------------------------------------
                       Guess.
    1     8.060e-01  
    2     6.791e-01  
    3     2.926e-01  
    4     1.953e-01  
    5     3.863e-02  
    6     1.732e-02  
    7     3.739e-03  
    8     1.570e-03  
    9     5.221e-04  
   10     6.215e-05  
   11     3.967e-05  
   12     1.670e-05  
   13     1.411e-05  
   14     7.362e-06  
   15     2.783e-06  
   16     1.254e-06  
   17     2.793e-07  Converged.
   ... Converged in 17 steps (norm: 2.79328e-07)
------------------------------------
  Starting TPA DIIS iterations ... 
------------------------------------ 
   It     Res. Norm  Remark
------------------------------------
                       Guess.
    1     1.001e+01  
    2     1.742e+01  
    3     2.653e+00  
    4     1.026e+00  
    5     2.843e-01  
    6     1.323e-01  
    7     3.847e-02  
    8     6.858e-03  
    9     2.787e-03  
   10     4.845e-04  
   11     1.680e-04  
   12     2.840e-05  
   13     9.870e-06  
   14     3.770e-06  
   15     1.162e-06  
   16     7.159e-07  Converged.
   ... Converged in 16 steps (norm: 7.15881e-07)
------------------------------------
  Starting TPA DIIS iterations ... 
------------------------------------ 
   It     Res. Norm  Remark
------------------------------------
                       Guess.
    1     9.619e+00  
    2     1.671e+01  
    3     2.534e+00  
    4     9.911e-01  
    5     2.825e-01  
    6     1.297e-01  
    7     3.758e-02  
    8     6.678e-03  
    9     2.728e-03  
   10     4.711e-04  
   11     1.626e-04  
   12     2.730e-05  
   13     1.008e-05  
   14     3.823e-06  
   15     1.358e-06  
   16     7.904e-07  Converged.
   ... Converged in 16 steps (norm: 7.90402e-07)
------------------------------------
  Starting TPA DIIS iterations ... 
------------------------------------ 
   It     Res. Norm  Remark
------------------------------------
                       Guess.
    1     8.434e-01  
    2     7.565e-01  
    3     3.462e-01  
    4     2.818e-01  
    5     5.017e-02  
    6     2.358e-02  
    7     5.571e-03  
    8     1.820e-03  
    9     6.992e-04  
   10     1.016e-04  
   11     6.481e-05  
   12     3.027e-05  
   13     2.346e-05  
   14     1.320e-05  
   15     5.625e-06  
   16     2.525e-06  
   17     6.356e-07  Converged.
   ... Converged in 17 steps (norm: 6.35587e-07)
------------------------------------
  Starting TPA DIIS iterations ... 
------------------------------------ 
   It     Res. Norm  Remark
------------------------------------
                       Guess.
    1     1.089e+01  
    2     1.945e+01  
    3     2.887e+00  
    4     1.170e+00  
    5     3.259e-01  
    6     1.531e-01  
    7     4.420e-02  
    8     7.863e-03  
    9     3.222e-03  
   10     5.600e-04  
   11     1.931e-04  
   12     3.339e-05  
   13     1.147e-05  
   14     4.648e-06  
   15     1.469e-06  
   16     9.689e-07  Converged.
   ... Converged in 16 steps (norm: 9.68862e-07)
------------------------------------
  Starting TPA DIIS iterations ... 
------------------------------------ 
   It     Res. Norm  Remark
------------------------------------
                       Guess.
    1     1.046e+01  
    2     1.866e+01  
    3     2.756e+00  
    4     1.128e+00  
    5     3.238e-01  
    6     1.501e-01  
    7     4.317e-02  
    8     7.655e-03  
    9     3.154e-03  
   10     5.445e-04  
   11     1.872e-04  
   12     3.202e-05  
   13     1.177e-05  
   14     4.725e-06  
   15     1.705e-06  
   16     1.053e-06  
   17     2.452e-07  Converged.
   ... Converged in 17 steps (norm: 2.45205e-07)
------------------------------------
  Starting TPA DIIS iterations ... 
------------------------------------ 
   It     Res. Norm  Remark
------------------------------------
                       Guess.
    1     8.581e-01  
    2     7.894e-01  
    3     3.696e-01  
    4     3.219e-01  
    5     5.575e-02  
    6     2.646e-02  
    7     6.475e-03  
    8     1.884e-03  
    9     7.778e-04  
   10     1.214e-04  
   11     7.837e-05  
   12     3.810e-05  
   13     2.780e-05  
   14     1.625e-05  
   15     7.307e-06  
   16     3.321e-06  
   17     9.296e-07  Converged.
   ... Converged in 17 steps (norm: 9.29616e-07)
------------------------------------
  Starting TPA DIIS iterations ... 
------------------------------------ 
   It     Res. Norm  Remark
------------------------------------
                       Guess.
    1     1.138e+01  
    2     2.060e+01  
    3     3.014e+00  
    4     1.251e+00  
    5     3.496e-01  
    6     1.650e-01  
    7     4.746e-02  
    8     8.434e-03  
    9     3.471e-03  
   10     6.030e-04  
   11     2.071e-04  
   12     3.630e-05  
   13     1.240e-05  
   14     5.175e-06  
   15     1.672e-06  
   16     1.131e-06  
   17     3.958e-07  Converged.
   ... Converged in 17 steps (norm: 3.95836e-07)
------------------------------------
  Starting TPA DIIS iterations ... 
------------------------------------ 
   It     Res. Norm  Remark
------------------------------------
                       Guess.
    1     1.093e+01  
    2     1.976e+01  
    3     2.878e+00  
    4     1.206e+00  
    5     3.473e-01  
    6     1.618e-01  
    7     4.635e-02  
    8     8.210e-03  
    9     3.397e-03  
   10     5.863e-04  
   11     2.010e-04  
   12     3.476e-05  
   13     1.276e-05  
   14     5.269e-06  
   15     1.927e-06  
   16     1.220e-06  
   17     2.804e-07  Converged.
   ... Converged in 17 steps (norm: 2.80351e-07)
------------------------------------
  Starting TPA DIIS iterations ... 
------------------------------------ 
   It     Res. Norm  Remark
------------------------------------
                       Guess.
    1     8.657e-01  
    2     8.069e-01  
    3     3.823e-01  
    4     3.437e-01  
    5     5.889e-02  
    6     2.802e-02  
    7     6.985e-03  
    8     1.912e-03  
    9     8.207e-04  
   10     1.325e-04  
   11     8.636e-05  
   12     4.285e-05  
   13     3.017e-05  
   14     1.798e-05  
   15     8.340e-06  
   16     3.831e-06  
   17     1.139e-06  
   18     5.673e-07  Converged.
   ... Converged in 18 steps (norm: 5.67341e-07)
------------------------------------
  Two-photon absorbption ...  CPU 71.03 s  wall 18.09 s
  Transition density matrix of state singlet_A_1 printed to ASCII file 'State_singlet_A_1_Transition.txt'
  Transition density matrix of state singlet_A_2 printed to ASCII file 'State_singlet_A_2_Transition.txt'
  Transition density matrix of state singlet_A_3 printed to ASCII file 'State_singlet_A_3_Transition.txt'
  Transition density matrix of state singlet_A_4 printed to ASCII file 'State_singlet_A_4_Transition.txt'
  Transition density matrix of state singlet_A_5 printed to ASCII file 'State_singlet_A_5_Transition.txt'
  Transition density matrix of state singlet_A_6 printed to ASCII file 'State_singlet_A_6_Transition.txt'
  Transition density matrix of state singlet_A_7 printed to ASCII file 'State_singlet_A_7_Transition.txt'
  Transition density matrix of state singlet_A_8 printed to ASCII file 'State_singlet_A_8_Transition.txt'
  Transition density matrix of state singlet_A_9 printed to ASCII file 'State_singlet_A_9_Transition.txt'
  Transition density matrix of state singlet_A_10 printed to ASCII file 'State_singlet_A_10_Transition.txt'
  Transition properties ...  CPU 0.16 s  wall 0.46 s
  Difference density matrix of state singlet_A_1 printed to ASCII file 'State_singlet_A_1_Difference.txt'
  Total density matrix of state singlet_A_1 printed to ASCII file 'State_singlet_A_1_Total.txt'
  Difference density matrix of state singlet_A_2 printed to ASCII file 'State_singlet_A_2_Difference.txt'
  Total density matrix of state singlet_A_2 printed to ASCII file 'State_singlet_A_2_Total.txt'
  Difference density matrix of state singlet_A_3 printed to ASCII file 'State_singlet_A_3_Difference.txt'
  Total density matrix of state singlet_A_3 printed to ASCII file 'State_singlet_A_3_Total.txt'
  Difference density matrix of state singlet_A_4 printed to ASCII file 'State_singlet_A_4_Difference.txt'
  Total density matrix of state singlet_A_4 printed to ASCII file 'State_singlet_A_4_Total.txt'
  Difference density matrix of state singlet_A_5 printed to ASCII file 'State_singlet_A_5_Difference.txt'
  Total density matrix of state singlet_A_5 printed to ASCII file 'State_singlet_A_5_Total.txt'
  Difference density matrix of state singlet_A_6 printed to ASCII file 'State_singlet_A_6_Difference.txt'
  Total density matrix of state singlet_A_6 printed to ASCII file 'State_singlet_A_6_Total.txt'
  Difference density matrix of state singlet_A_7 printed to ASCII file 'State_singlet_A_7_Difference.txt'
  Total density matrix of state singlet_A_7 printed to ASCII file 'State_singlet_A_7_Total.txt'
  Difference density matrix of state singlet_A_8 printed to ASCII file 'State_singlet_A_8_Difference.txt'
  Total density matrix of state singlet_A_8 printed to ASCII file 'State_singlet_A_8_Total.txt'
  Difference density matrix of state singlet_A_9 printed to ASCII file 'State_singlet_A_9_Difference.txt'
  Total density matrix of state singlet_A_9 printed to ASCII file 'State_singlet_A_9_Total.txt'
  Difference density matrix of state singlet_A_10 printed to ASCII file 'State_singlet_A_10_Difference.txt'
  Total density matrix of state singlet_A_10 printed to ASCII file 'State_singlet_A_10_Total.txt'
  Properties ...  CPU 0.31 s  wall 0.56 s
  ISR TDMS ...  CPU 8.89 s  wall 3.16 s
  ISR transition properties ...  CPU 0.17 s  wall 0.08 s
  Sum-over-states TPA ...  CPU 0.00 s  wall 0.00 s

--------------------------------------------------------------------------------
                   State-averaged natural transition orbitals
--------------------------------------------------------------------------------
--------------------------------------------------------------------------------
  SA-NTO decomposition ...  CPU 0.01 s  wall 0.02 s

--------------------------------------------------------------------------------
                             Excited State Summary
--------------------------------------------------------------------------------
--------------------------------------------------------------------------------

  Excited state 1 (singlet, A)                                     [converged]
  ----------------------------------------------------------------------------
  Term symbol:  2 (1) A                                     R^2 =  3.19736e-13

  Total energy:                                            -77.9960419145 a.u.
  Excitation energy:                                               8.800412 eV

  Osc. strength:                                                      0.448798
  Trans. dip. moment [a.u.]:           [  -1.043839,    0.995934,    0.008864]
  <i|r^2|0> [a.u.]:                    [  -6.164865,    0.243388,    0.000728]
  Two-photon absorption cross-section (SoS) [a.u.]:                   0.001807
  Two-photon absorption matrix (SoS) [a.u.]:
                                       |    0.010831    0.011152    0.001972 |
                                       |    0.011152   -0.000317    0.001114 |
                                       |    0.001972    0.001114   -0.008566 |
  Two-photon absorption cross-section [a.u.]:                         0.001426
  Two-photon absorption matrix [a.u.]:
                                       |    0.005921    0.006710   -0.000311 |
                                       |    0.006710   -0.007274   -0.001481 |
                                       |   -0.000311   -0.001481   -0.010297 |

  Dip. moment [a.u.]:                  [  -0.001367,   -0.000267,    0.000165]
  Total dipole [Debye]:                                               0.003566
  <r^2> [a.u.]:                        [ 176.600696,   35.644747,   11.868136]
  Total <r^2> [a.u.]:                                               224.113579

  V1^2 = 0.9714, V2^2 = 0.0286

  Important amplitudes:
      occ i     occ j     vir a      vir b          v   
    -----------------------------------------------------
     8 (A) A              9 (A) A                 0.6811
     4 (A) A             10 (A) A                 0.0613
     6 (A) A             14 (A) A                -0.0608
     7 (A) A             16 (A) A                -0.0575
     5 (A) A             13 (A) A                -0.0518
     6 (A) A             23 (A) A                -0.0484
     8 (A) A             20 (A) A                 0.0347
     6 (A) A             19 (A) A                -0.0295
     3 (A) A             12 (A) A                -0.0280
     5 (A) A             22 (A) A                 0.0217
     7 (A) A             11 (A) A                -0.0202
     4 (A) A             24 (A) A                 0.0189
     3 (A) A             26 (A) A                -0.0186
     8 (A) A   8 (A) B   17 (A) A   20 (A) B     -0.0183
     8 (A) A   8 (A) B    9 (A) A   28 (A) B      0.0168
     6 (A) A             26 (A) A                 0.0165
     7 (A) A             21 (A) A                 0.0149
     6 (A) A             12 (A) A                -0.0145
     3 (A) A             14 (A) A                 0.0138
     3 (A) A   4 (A) B    9 (A) A    9 (A) B     -0.0129
     3 (A) A             19 (A) A                 0.0117
     8 (A) A   8 (A) B   18 (A) A   19 (A) B     -0.0112
     7 (A) A             32 (A) A                 0.0097
     7 (A) A             36 (A) A                -0.0086
     3 (A) A             23 (A) A                 0.0080
     8 (A) A   8 (A) B   25 (A) A   29 (A) B      0.0076
     6 (A) A             35 (A) A                 0.0073
     6 (A) A             40 (A) A                 0.0068
     3 (A) A   6 (A) B    9 (A) A   28 (A) B     -0.0065
     5 (A) A   8 (A) B   11 (A) A    9 (A) B     -0.0060
     6 (A) A   8 (A) A   19 (A) A   28 (A) A      0.0060
     5 (A) A   7 (A) B    9 (A) A    9 (A) B     -0.0060
     5 (A) A   8 (A) B   16 (A) A    9 (A) B      0.0060
     7 (A) A   8 (A) B   13 (A) A   20 (A) B      0.0060
     5 (A) A   8 (A) B   11 (A) A   20 (A) B      0.0060
     3 (A) A   5 (A) B    9 (A) A   25 (A) B     -0.0058
     3 (A) A             40 (A) A                -0.0057
     7 (A) A   8 (A) B   22 (A) A   20 (A) B     -0.0057
     6 (A) A   8 (A) A    9 (A) A   18 (A) A      0.0056
     8 (A) A   8 (A) B   19 (A) A   30 (A) B     -0.0055
    -----------------------------------------------------

  Density matrix analysis:
  ------------------------
  NOs
    Occupation of frontier NOs:
       0.9496   1.0217
    Number of electrons: 16.000000
    Number of unpaired electrons: n_u =  2.31315, n_u,nl =  2.03244
    NO participation ratio (PR_NO):  2.863219
  
  
  Mulliken Population Analysis
  Atom      Charge (e)              h+              e-           Del q
  --------------------------------------------------------------------
   1 H        0.060052        0.020607       -0.012548        0.008060
   2 C       -0.119630        0.491289       -0.507410       -0.016121
   3 H        0.057755        0.020510       -0.012546        0.007964
   4 C       -0.113949        0.491288       -0.507151       -0.015863
   5 H        0.057997        0.020559       -0.012549        0.008010
   6 H        0.057774        0.020544       -0.012595        0.007949
  --------------------------------------------------------------------
  Sum:        0.000000        1.064798       -1.064798       -0.000000
  
  Multipole moment analysis of the density matrix
    Molecular charge:                      0.000000
    Number of electrons:                   16.000000
      Center of electronic charge [Ang]: [ -1.564281,  -0.065593,   0.001973]
    Total nuclear charge:                  16.000000
      Center of nuclear charge [Ang]:    [ -1.564326,  -0.065602,   0.001978]
    Dipole moment [D]:                     0.003566
      Cartesian components [D]:          [ -0.003476,  -0.000679,   0.000420]
    RMS size of the density [Ang]:         1.212891
      Cartesian components [Ang]:        [  0.802404,   0.787111,   0.455752]
  
  Exciton analysis of the difference density matrix
    <r_h> [Ang]:                  [ -1.564799,  -0.065710,   0.001852]
    <r_e> [Ang]:                  [ -1.564878,  -0.065787,   0.001817]
    |<r_e - r_h>| [Ang]:            0.000115
    Hole size [Ang]:                1.284522
      Cartesian components [Ang]: [  0.726845,   0.713440,   0.782749]
    Electron size [Ang]:            1.463498
      Cartesian components [Ang]: [  0.851601,   0.832651,   0.850467]

  Transition density matrix analysis:
  -----------------------------------
  
  CT numbers (Mulliken)
    omega =     0.9535
    <Phe> =    -0.1588
  
  Exciton analysis of the transition density matrix
    Trans. dipole moment [D]:             1.833568
      Cartesian components [D]:         [ -1.326587,   1.265706,   0.011265]
    <r_h> [Ang]:                        [ -1.565089,  -0.065679,   0.001855]
    <r_e> [Ang]:                        [ -1.564809,  -0.065770,   0.001805]
    |<r_e - r_h>| [Ang]:                  0.000298
    Hole size [Ang]:                      1.211395
      Cartesian components [Ang]:       [  0.646425,   0.635639,   0.803477]
    Electron size [Ang]:                  1.487284
      Cartesian components [Ang]:       [  0.862403,   0.842107,   0.871280]
    RMS electron-hole separation [Ang]:   1.934698
      Cartesian components [Ang]:       [  1.101542,   1.076487,   1.170827]
    Covariance(r_h, r_e) [Ang^2]:        -0.031782
    Correlation coefficient:             -0.017640
    Center-of-mass size [Ang]:            0.950779
      Cartesian components [Ang]:       [  0.526739,   0.516608,   0.599703]

  Decomposition into state-averaged NTOs
    H- 0 -> L+ 0: -0.6700 ( 89.8%)
    H- 2 -> L+ 5:  0.0822 (  1.4%)
                   omega =  95.3%
  ----------------------------------------------------------------------------


  Excited state 2 (singlet, A)                                     [converged]
  ----------------------------------------------------------------------------
  Term symbol:  3 (1) A                                     R^2 =  2.09480e-13

  Total energy:                                            -77.9868367575 a.u.
  Excitation energy:                                               9.050897 eV

  Osc. strength:                                                      0.000046
  Trans. dip. moment [a.u.]:           [  -0.004418,    0.002989,    0.013441]
  <i|r^2|0> [a.u.]:                    [   0.042334,    0.082409,   -0.150174]
  Two-photon absorption cross-section (SoS) [a.u.]:                   4.758345
  Two-photon absorption matrix (SoS) [a.u.]:
                                       |    0.054692    0.058152   -0.544580 |
                                       |    0.058152    0.062017   -0.533599 |
                                       |   -0.544580   -0.533599   -0.115736 |
  Two-photon absorption cross-section [a.u.]:                         0.092042
  Two-photon absorption matrix [a.u.]:
                                       |   -0.001378   -0.007611    0.092036 |
                                       |   -0.007611   -0.013506    0.052648 |
                                       |    0.092036    0.052648    0.015018 |

  Dip. moment [a.u.]:                  [  -0.003341,   -0.021671,   -0.001015]
  Total dipole [Debye]:                                               0.055793
  <r^2> [a.u.]:                        [ 174.895460,   34.066703,   13.165612]
  Total <r^2> [a.u.]:                                               222.127775

  V1^2 = 0.9545, V2^2 = 0.0455

  Important amplitudes:
      occ i     occ j     vir a      vir b          v   
    -----------------------------------------------------
     7 (A) A              9 (A) A                -0.6689
     8 (A) A             11 (A) A                 0.1481
     7 (A) A             20 (A) A                -0.0760
     5 (A) A   8 (A) B    9 (A) A    9 (A) B      0.0313
     8 (A) A             16 (A) A                -0.0274
     8 (A) A             10 (A) A                -0.0249
     8 (A) A             21 (A) A                -0.0175
     5 (A) A             28 (A) A                -0.0151
     4 (A) A   7 (A) B    9 (A) A   19 (A) B      0.0135
     5 (A) A   7 (A) B    9 (A) A   16 (A) B      0.0134
     7 (A) A   8 (A) B   20 (A) A   17 (A) B      0.0105
     7 (A) A   8 (A) A    9 (A) A   28 (A) A      0.0098
     5 (A) A   8 (A) B    9 (A) A   20 (A) B      0.0095
     4 (A) A   6 (A) B    9 (A) A   16 (A) B      0.0091
     5 (A) A   6 (A) A    9 (A) A   23 (A) A      0.0090
     5 (A) A   6 (A) A    9 (A) A   14 (A) A      0.0087
     8 (A) A   7 (A) B    9 (A) A   28 (A) B     -0.0085
     5 (A) A   6 (A) B    9 (A) A   19 (A) B      0.0085
     4 (A) A   5 (A) A    9 (A) A   10 (A) A      0.0084
     6 (A) A   7 (A) B    9 (A) A   18 (A) B     -0.0084
     5 (A) A   6 (A) B    9 (A) A   23 (A) B      0.0080
     3 (A) A   7 (A) B    9 (A) A   18 (A) B     -0.0079
     5 (A) A   7 (A) A    9 (A) A   16 (A) A      0.0079
     4 (A) A   8 (A) B    9 (A) A   25 (A) B      0.0076
     4 (A) A   7 (A) B   19 (A) A    9 (A) B      0.0074
     7 (A) A   8 (A) B   17 (A) A   20 (A) B      0.0074
     5 (A) A   5 (A) B    9 (A) A   13 (A) B      0.0072
     7 (A) A   8 (A) B   19 (A) A   18 (A) B      0.0071
     5 (A) A   8 (A) A    9 (A) A   20 (A) A      0.0069
     4 (A) A   5 (A) B    9 (A) A   18 (A) B     -0.0068
     7 (A) A   7 (A) B   20 (A) A   22 (A) B      0.0065
     7 (A) A   8 (A) B   17 (A) A    9 (A) B      0.0063
     4 (A) A   7 (A) A    9 (A) A   19 (A) A      0.0061
     5 (A) A   6 (A) B    9 (A) A   14 (A) B      0.0061
     4 (A) A   5 (A) B   10 (A) A    9 (A) B     -0.0061
     5 (A) A   7 (A) B   11 (A) A   20 (A) B     -0.0061
     4 (A) A   7 (A) B    9 (A) A   14 (A) B     -0.0060
     5 (A) A             38 (A) A                 0.0059
     4 (A) A   8 (A) A    9 (A) A   25 (A) A      0.0057
     6 (A) A   7 (A) A   19 (A) A   28 (A) A     -0.0056
    -----------------------------------------------------

  Density matrix analysis:
  ------------------------
  NOs
    Occupation of frontier NOs:
       0.9566   1.0546
    Number of electrons: 16.000000
    Number of unpaired electrons: n_u =  2.35449, n_u,nl =  2.06328
    NO participation ratio (PR_NO):  3.031935
  
  
  Mulliken Population Analysis
  Atom      Charge (e)              h+              e-           Del q
  --------------------------------------------------------------------
   1 H        0.153524        0.131028       -0.029496        0.101531
   2 C       -0.304072        0.273506       -0.474069       -0.200563
   3 H        0.151686        0.121833       -0.019938        0.101895
   4 C       -0.299727        0.269584       -0.471224       -0.201641
   5 H        0.144389        0.122517       -0.028115        0.094402
   6 H        0.154200        0.125333       -0.020958        0.104375
  --------------------------------------------------------------------
  Sum:        0.000000        1.043801       -1.043801        0.000000
  
  Multipole moment analysis of the density matrix
    Molecular charge:                      0.000000
    Number of electrons:                   16.000000
      Center of electronic charge [Ang]: [ -1.564216,  -0.064886,   0.002012]
    Total nuclear charge:                  16.000000
      Center of nuclear charge [Ang]:    [ -1.564326,  -0.065602,   0.001978]
    Dipole moment [D]:                     0.055793
      Cartesian components [D]:          [ -0.008491,  -0.055083,  -0.002580]
    RMS size of the density [Ang]:         1.198602
      Cartesian components [Ang]:        [  0.783716,   0.769427,   0.480018]
  
  Exciton analysis of the difference density matrix
    <r_h> [Ang]:                  [ -1.552949,  -0.066381,   0.002485]
    <r_e> [Ang]:                  [ -1.552029,  -0.055607,   0.003047]
    |<r_e - r_h>| [Ang]:            0.010827
    Hole size [Ang]:                1.486892
      Cartesian components [Ang]: [  1.016041,   0.985551,   0.455188]
    Electron size [Ang]:            1.477922
      Cartesian components [Ang]: [  0.882526,   0.858662,   0.817374]

  Transition density matrix analysis:
  -----------------------------------
  
  CT numbers (Mulliken)
    omega =     0.9223
    <Phe> =    -0.0119
  
  Exciton analysis of the transition density matrix
    Trans. dipole moment [D]:             0.018378
      Cartesian components [D]:         [ -0.005614,   0.003798,   0.017082]
    <r_h> [Ang]:                        [ -1.551870,  -0.067136,   0.002519]
    <r_e> [Ang]:                        [ -1.552284,  -0.054404,   0.003079]
    |<r_e - r_h>| [Ang]:                  0.012752
    Hole size [Ang]:                      1.515555
      Cartesian components [Ang]:       [  1.040552,   1.008017,   0.445039]
    Electron size [Ang]:                  1.474996
      Cartesian components [Ang]:       [  0.872692,   0.848492,   0.833115]
    RMS electron-hole separation [Ang]:   2.095110
      Cartesian components [Ang]:       [  1.342268,   1.302719,   0.943782]
    Covariance(r_h, r_e) [Ang^2]:         0.041598
    Correlation coefficient:              0.018608
    Center-of-mass size [Ang]:            1.067206
      Cartesian components [Ang]:       [  0.686840,   0.666176,   0.472641]

  Decomposition into state-averaged NTOs
    H- 1 -> L+ 0: -0.6614 ( 87.5%)
    H- 0 -> L+ 2:  0.1487 (  4.4%)
                   omega =  92.2%
  ----------------------------------------------------------------------------


  Excited state 3 (singlet, A)                                     [converged]
  ----------------------------------------------------------------------------
  Term symbol:  4 (1) A                                     R^2 =  1.87987e-13

  Total energy:                                            -77.9813072712 a.u.
  Excitation energy:                                               9.201362 eV

  Osc. strength:                                                      0.024910
  Trans. dip. moment [a.u.]:           [   0.014242,    0.021098,   -0.331440]
  <i|r^2|0> [a.u.]:                    [   0.087754,    0.006285,   -0.002330]
  Two-photon absorption cross-section (SoS) [a.u.]:                   0.009494
  Two-photon absorption matrix (SoS) [a.u.]:
                                       |    0.008841   -0.001799    0.027309 |
                                       |   -0.001799   -0.013054    0.017067 |
                                       |    0.027309    0.017067    0.006460 |
  Two-photon absorption cross-section [a.u.]:                         0.012054
  Two-photon absorption matrix [a.u.]:
                                       |    0.006056   -0.002681    0.030290 |
                                       |   -0.002681   -0.010087    0.022115 |
                                       |    0.030290    0.022115    0.006648 |

  Dip. moment [a.u.]:                  [  -0.068803,   -0.024201,   -0.004952]
  Total dipole [Debye]:                                               0.185809
  <r^2> [a.u.]:                        [ 180.971002,   40.546468,   11.024353]
  Total <r^2> [a.u.]:                                               232.541822

  V1^2 = 0.9586, V2^2 = 0.0414

  Important amplitudes:
      occ i     occ j     vir a      vir b          v   
    -----------------------------------------------------
     8 (A) A             10 (A) A                 0.6885
     8 (A) A             24 (A) A                 0.0507
     8 (A) A             18 (A) A                -0.0314
     7 (A) A              9 (A) A                -0.0261
     4 (A) A              9 (A) A                 0.0239
     8 (A) A   8 (A) B    9 (A) A   12 (A) B     -0.0218
     8 (A) A   8 (A) B   10 (A) A   17 (A) B      0.0174
     5 (A) A   8 (A) B   11 (A) A   10 (A) B     -0.0167
     8 (A) A             15 (A) A                 0.0164
     7 (A) A   8 (A) B   13 (A) A   10 (A) B     -0.0142
     4 (A) A   8 (A) B   12 (A) A   10 (A) B     -0.0111
     6 (A) A   8 (A) A   10 (A) A   15 (A) A      0.0111
     7 (A) A   8 (A) B   22 (A) A   10 (A) B      0.0109
     6 (A) A   8 (A) B   15 (A) A   10 (A) B     -0.0108
     4 (A) A   8 (A) A   10 (A) A   12 (A) A      0.0107
     7 (A) A   8 (A) A   10 (A) A   22 (A) A     -0.0099
     7 (A) A   8 (A) A   10 (A) A   13 (A) A      0.0098
     5 (A) A   8 (A) A   10 (A) A   11 (A) A      0.0095
     5 (A) A   8 (A) B   21 (A) A   10 (A) B      0.0094
     6 (A) A   8 (A) B   10 (A) A   10 (A) B      0.0088
     6 (A) A   8 (A) A   10 (A) A   18 (A) A      0.0086
     7 (A) A   8 (A) A   12 (A) A   16 (A) A      0.0082
     5 (A) A   8 (A) A   10 (A) A   21 (A) A     -0.0080
     3 (A) A   4 (A) B   10 (A) A    9 (A) B     -0.0079
     4 (A) A   8 (A) B   19 (A) A   10 (A) B      0.0075
     8 (A) A   8 (A) B    9 (A) A   23 (A) B     -0.0074
     8 (A) A   8 (A) B   10 (A) A   28 (A) B      0.0073
     3 (A) A   8 (A) B   10 (A) A   10 (A) B      0.0071
     5 (A) A   8 (A) B   10 (A) A   11 (A) B     -0.0071
     3 (A) A   8 (A) A   10 (A) A   24 (A) A     -0.0071
     7 (A) A   8 (A) B   16 (A) A   12 (A) B     -0.0071
     3 (A) A   8 (A) B   10 (A) A   18 (A) B     -0.0069
     8 (A) A   8 (A) B    9 (A) A   19 (A) B      0.0069
     6 (A) A   8 (A) B   18 (A) A   10 (A) B     -0.0066
     3 (A) A   6 (A) B   10 (A) A   28 (A) B     -0.0062
     7 (A) A   8 (A) B   12 (A) A   11 (A) B      0.0058
     6 (A) A             28 (A) A                 0.0057
     5 (A) A   8 (A) A   10 (A) A   16 (A) A     -0.0056
     3 (A) A   5 (A) B   10 (A) A   25 (A) B     -0.0056
     3 (A) A   8 (A) A   10 (A) A   18 (A) A     -0.0056
    -----------------------------------------------------

  Density matrix analysis:
  ------------------------
  NOs
    Occupation of frontier NOs:
       0.9829   0.9837
    Number of electrons: 16.000000
    Number of unpaired electrons: n_u =  2.28809, n_u,nl =  2.02500
    NO participation ratio (PR_NO):  2.697934
  
  
  Mulliken Population Analysis
  Atom      Charge (e)              h+              e-           Del q
  --------------------------------------------------------------------
   1 H       -0.171914        0.054028       -0.277934       -0.223906
   2 C        0.324088        0.538792       -0.111195        0.427597
   3 H       -0.159077        0.054421       -0.263289       -0.208868
   4 C        0.326652        0.534970       -0.110231        0.424739
   5 H       -0.166547        0.053833       -0.270367       -0.216534
   6 H       -0.153203        0.054739       -0.257768       -0.203028
  --------------------------------------------------------------------
  Sum:        0.000000        1.290784       -1.290784       -0.000000
  
  Multipole moment analysis of the density matrix
    Molecular charge:                      0.000000
    Number of electrons:                   16.000000
      Center of electronic charge [Ang]: [ -1.562051,  -0.064802,   0.002142]
    Total nuclear charge:                  16.000000
      Center of nuclear charge [Ang]:    [ -1.564326,  -0.065602,   0.001978]
    Dipole moment [D]:                     0.185809
      Cartesian components [D]:          [ -0.174880,  -0.061512,  -0.012586]
    RMS size of the density [Ang]:         1.275026
      Cartesian components [Ang]:        [  0.852826,   0.839902,   0.439251]
  
  Exciton analysis of the difference density matrix
    <r_h> [Ang]:                  [ -1.562829,  -0.066795,   0.001919]
    <r_e> [Ang]:                  [ -1.535248,  -0.057046,   0.003988]
    |<r_e - r_h>| [Ang]:            0.029326
    Hole size [Ang]:                1.408981
      Cartesian components [Ang]: [  0.832775,   0.820007,   0.786958]
    Electron size [Ang]:            2.075155
      Cartesian components [Ang]: [  1.374672,   1.374435,   0.726272]

  Transition density matrix analysis:
  -----------------------------------
  
  CT numbers (Mulliken)
    omega =     0.9260
    <Phe> =    -0.0108
  
  Exciton analysis of the transition density matrix
    Trans. dipole moment [D]:             0.422458
      Cartesian components [D]:         [  0.018100,   0.026813,  -0.421218]
    <r_h> [Ang]:                        [ -1.566277,  -0.067195,   0.001680]
    <r_e> [Ang]:                        [ -1.525638,  -0.054122,   0.004665]
    |<r_e - r_h>| [Ang]:                  0.042794
    Hole size [Ang]:                      1.210383
      Cartesian components [Ang]:       [  0.633563,   0.623524,   0.821487]
    Electron size [Ang]:                  2.294893
      Cartesian components [Ang]:       [  1.519509,   1.520771,   0.803045]
    RMS electron-hole separation [Ang]:   2.585062
      Cartesian components [Ang]:       [  1.639432,   1.636722,   1.147149]
    Covariance(r_h, r_e) [Ang^2]:         0.025422
    Correlation coefficient:              0.009152
    Center-of-mass size [Ang]:            1.302152
      Cartesian components [Ang]:       [  0.826821,   0.825283,   0.575218]

  Decomposition into state-averaged NTOs
    H- 0 -> L+ 1: -0.6789 ( 92.2%)
                   omega =  92.6%
  ----------------------------------------------------------------------------


  Excited state 4 (singlet, A)                                     [converged]
  ----------------------------------------------------------------------------
  Term symbol:  5 (1) A                                     R^2 =  1.94259e-13

  Total energy:                                            -77.9579793826 a.u.
  Excitation energy:                                               9.836146 eV

  Osc. strength:                                                      0.000036
  Trans. dip. moment [a.u.]:           [  -0.001842,    0.000499,    0.012137]
  <i|r^2|0> [a.u.]:                    [  -0.027344,   -0.019030,    0.035519]
  Two-photon absorption cross-section (SoS) [a.u.]:                 144.722617
  Two-photon absorption matrix (SoS) [a.u.]:
                                       |   -0.292485   -0.319423    2.969183 |
                                       |   -0.319423   -0.347119    2.977429 |
                                       |    2.969183    2.977429    0.638971 |
  Two-photon absorption cross-section [a.u.]:                        87.659068
  Two-photon absorption matrix [a.u.]:
                                       |   -0.235268   -0.249273    2.328700 |
                                       |   -0.249273   -0.262291    2.299323 |
                                       |    2.328700    2.299323    0.496870 |

  Dip. moment [a.u.]:                  [   0.060895,    0.078837,    0.007308]
  Total dipole [Debye]:                                               0.253881
  <r^2> [a.u.]:                        [ 182.259182,   40.379902,   10.751967]
  Total <r^2> [a.u.]:                                               233.391051

  V1^2 = 0.9635, V2^2 = 0.0365

  Important amplitudes:
      occ i     occ j     vir a      vir b          v   
    -----------------------------------------------------
     8 (A) A             11 (A) A                -0.6697
     7 (A) A              9 (A) A                -0.1499
     8 (A) A             21 (A) A                 0.0780
     8 (A) A             16 (A) A                 0.0653
     8 (A) A   8 (A) B    9 (A) A   13 (A) B     -0.0165
     5 (A) A   8 (A) B   11 (A) A   11 (A) B      0.0156
     8 (A) A   8 (A) B   11 (A) A   17 (A) B     -0.0140
     7 (A) A             20 (A) A                -0.0137
     7 (A) A   8 (A) B   13 (A) A   11 (A) B      0.0128
     5 (A) A   8 (A) A   11 (A) A   21 (A) A      0.0110
     8 (A) A             12 (A) A                 0.0110
     4 (A) A   8 (A) B   12 (A) A   11 (A) B      0.0110
     8 (A) A   8 (A) B    9 (A) A   22 (A) B      0.0107
     7 (A) A   8 (A) A   11 (A) A   22 (A) A      0.0096
     6 (A) A   8 (A) B   15 (A) A   11 (A) B      0.0091
     6 (A) A   8 (A) B   10 (A) A   11 (A) B     -0.0090
     7 (A) A   8 (A) B   22 (A) A   11 (A) B     -0.0089
     8 (A) A             10 (A) A                -0.0089
     3 (A) A   4 (A) B   11 (A) A    9 (A) B      0.0083
     3 (A) A   8 (A) B   11 (A) A   18 (A) B      0.0081
     6 (A) A   8 (A) A   11 (A) A   15 (A) A     -0.0081
     7 (A) A   8 (A) A   13 (A) A   16 (A) A      0.0078
     7 (A) A   8 (A) A   11 (A) A   13 (A) A     -0.0076
     5 (A) A   8 (A) B   21 (A) A   11 (A) B     -0.0071
     4 (A) A   8 (A) B   19 (A) A   11 (A) B     -0.0070
     5 (A) A   8 (A) B    9 (A) A    9 (A) B      0.0067
     4 (A) A   8 (A) A   11 (A) A   12 (A) A     -0.0062
     6 (A) A   8 (A) A   11 (A) A   18 (A) A     -0.0061
     3 (A) A   6 (A) B   11 (A) A   28 (A) B      0.0060
     6 (A) A   8 (A) B   18 (A) A   11 (A) B      0.0059
     7 (A) A   8 (A) B   16 (A) A   13 (A) B     -0.0057
     3 (A) A   8 (A) A   11 (A) A   18 (A) A      0.0056
     3 (A) A   8 (A) B   11 (A) A   30 (A) B      0.0056
     5 (A) A   8 (A) B   10 (A) A   10 (A) B      0.0055
     3 (A) A   5 (A) B   11 (A) A   25 (A) B      0.0055
     6 (A) A   8 (A) B   11 (A) A   10 (A) B     -0.0054
     7 (A) A   8 (A) B   12 (A) A   10 (A) B     -0.0054
     8 (A) A   8 (A) B   20 (A) A   22 (A) B      0.0053
     3 (A) A   8 (A) A   11 (A) A   24 (A) A      0.0052
     5 (A) A   8 (A) A   11 (A) A   16 (A) A      0.0049
    -----------------------------------------------------

  Density matrix analysis:
  ------------------------
  NOs
    Occupation of frontier NOs:
       0.9411   1.0276
    Number of electrons: 16.000000
    Number of unpaired electrons: n_u =  2.31863, n_u,nl =  2.04877
    NO participation ratio (PR_NO):  2.911650
  
  
  Mulliken Population Analysis
  Atom      Charge (e)              h+              e-           Del q
  --------------------------------------------------------------------
   1 H       -0.133574        0.046224       -0.231790       -0.185566
   2 C        0.269504        0.497919       -0.124906        0.373013
   3 H       -0.139011        0.046560       -0.235363       -0.188802
   4 C        0.275431        0.496658       -0.123140        0.373518
   5 H       -0.110639        0.046318       -0.206944       -0.160626
   6 H       -0.161712        0.046360       -0.257897       -0.211537
  --------------------------------------------------------------------
  Sum:        0.000000        1.180039       -1.180039       -0.000000
  
  Multipole moment analysis of the density matrix
    Molecular charge:                      0.000000
    Number of electrons:                   16.000000
      Center of electronic charge [Ang]: [ -1.566340,  -0.068210,   0.001736]
    Total nuclear charge:                  16.000000
      Center of nuclear charge [Ang]:    [ -1.564326,  -0.065602,   0.001978]
    Dipole moment [D]:                     0.253881
      Cartesian components [D]:          [  0.154779,   0.200384,   0.018575]
    RMS size of the density [Ang]:         1.275414
      Cartesian components [Ang]:        [  0.858160,   0.837895,   0.433792]
  
  Exciton analysis of the difference density matrix
    <r_h> [Ang]:                  [ -1.565983,  -0.068213,   0.001676]
    <r_e> [Ang]:                  [ -1.593975,  -0.103756,  -0.001559]
    |<r_e - r_h>| [Ang]:            0.045357
    Hole size [Ang]:                1.392381
      Cartesian components [Ang]: [  0.817888,   0.803886,   0.789653]
    Electron size [Ang]:            2.118909
      Cartesian components [Ang]: [  1.449546,   1.389286,   0.677110]

  Transition density matrix analysis:
  -----------------------------------
  
  CT numbers (Mulliken)
    omega =     0.9300
    <Phe> =    -0.0138
  
  Exciton analysis of the transition density matrix
    Trans. dipole moment [D]:             0.015614
      Cartesian components [D]:         [ -0.002341,   0.000634,   0.015425]
    <r_h> [Ang]:                        [ -1.564542,  -0.065819,   0.001851]
    <r_e> [Ang]:                        [ -1.599231,  -0.111244,  -0.002226]
    |<r_e - r_h>| [Ang]:                  0.057299
    Hole size [Ang]:                      1.225046
      Cartesian components [Ang]:       [  0.657008,   0.646879,   0.806614]
    Electron size [Ang]:                  2.256755
      Cartesian components [Ang]:       [  1.545291,   1.479112,   0.719197]
    RMS electron-hole separation [Ang]:   2.557794
      Cartesian components [Ang]:       [  1.670905,   1.607335,   1.080213]
    Covariance(r_h, r_e) [Ang^2]:         0.027327
    Correlation coefficient:              0.009884
    Center-of-mass size [Ang]:            1.289218
      Cartesian components [Ang]:       [  0.843867,   0.811016,   0.540578]

  Decomposition into state-averaged NTOs
    H- 0 -> L+ 2: -0.6641 ( 88.2%)
    H- 1 -> L+ 0: -0.1480 (  4.4%)
                   omega =  93.0%
  ----------------------------------------------------------------------------


  Excited state 5 (singlet, A)                                     [converged]
  ----------------------------------------------------------------------------
  Term symbol:  6 (1) A                                     R^2 =  2.52578e-13

  Total energy:                                            -77.9424463165 a.u.
  Excitation energy:                                              10.258822 eV

  Osc. strength:                                                      0.000003
  Trans. dip. moment [a.u.]:           [  -0.000310,   -0.000435,    0.003387]
  <i|r^2|0> [a.u.]:                    [  -0.085225,    0.102560,   -0.019859]
  Two-photon absorption cross-section (SoS) [a.u.]:                 205.981771
  Two-photon absorption matrix (SoS) [a.u.]:
                                       |   -0.345194   -0.035302    3.556644 |
                                       |   -0.035302    0.420114   -3.597893 |
                                       |    3.556644   -3.597893   -0.089878 |
  Two-photon absorption cross-section [a.u.]:                       101.135192
  Two-photon absorption matrix [a.u.]:
                                       |   -0.246762   -0.028227    2.491857 |
                                       |   -0.028227    0.288523   -2.521443 |
                                       |    2.491857   -2.521443   -0.061780 |

  Dip. moment [a.u.]:                  [   0.009837,   -0.020868,   -0.000743]
[...]
    16   -1.413439423609e-03
    17   -1.800201389646e-03
    18    5.214590067454e-04
    19   -3.188762582607e-03
    20    9.834627526268e-03
    21    9.323834575777e-01
    22   -3.686268570222e-04
    23    1.401991336990e-02
    24    8.244780629686e-04
    25    6.956420905940e-02
    26   -5.106416464520e-02
    27   -1.394557327265e+00
    28    9.621415679205e-02
    29   -9.474671482892e-02
    30   -1.390338373740e-03
    31    3.748654240187e-01
    32   -3.689027015884e-01
    33   -5.425304781219e-03
    34    1.544689173943e-02
    35   -1.437159514178e-03
    36   -1.779056397881e-03
    37   -5.034649102944e-05
    38   -3.054722133971e-03
    39    1.088482014068e-02
    40    9.423012776146e-01
    41    2.496421926646e-04
    42   -1.407769855820e-02
    43   -8.444226543245e-04
    44    8.682872169091e-03
    45    9.165492571294e-01
    46    1.381144732427e-02
    47    2.682286683880e-04
    48    6.577900774278e-04
Sym=X
Ene= 0.232364
Spin=Alpha
Occup=0
     1   -2.841671450245e-02
     2   -1.214289639233e+00
     3    1.397296223012e-02
     4    3.560202356782e-03
     5    8.620121136337e-04
     6   -2.869344764416e-03
     7    2.874257521119e-03
     8    3.862588138651e-02
     9    1.561527227423e-01
    10    1.592743460778e-01
    11    1.675196119864e-02
    12    5.416666892938e-01
    13    5.611235661752e-01
    14    5.856620061693e-02
    15   -4.759610377397e-04
    16    1.671508225291e-05
    17    5.120042698194e-05
    18   -1.773782466716e-04
    19    2.318697490027e-04
    20    2.491128560438e-02
    21    1.159144635381e+00
    22    2.547472565351e-03
    23    1.350891311636e-02
    24    9.222930396475e-04
    25    4.513234536232e-03
    26   -3.913184132626e-03
    27   -8.707143453549e-02
    28    1.565585901769e-01
    29    1.561555220553e-01
    30    1.680153922206e-02
    31    5.519995707838e-01
    32    5.494348625318e-01
    33    5.922580125092e-02
    34    1.269250331441e-03
    35   -9.503970681534e-05
    36   -1.583902522298e-04
    37    5.176865903351e-04
    38   -6.379221414675e-04
    39   -2.609209488542e-02
    40   -1.131833027451e+00
    41    2.402926479334e-03
    42    1.291601478476e-02
    43    8.929989850967e-04
    44    2.765177434208e-02
    45    1.247285332686e+00
    46    1.466382775962e-02
    47    3.737627617445e-03
    48    9.166981903900e-04
Sym=X
Ene= 0.239224
Spin=Alpha
Occup=0
     1   -1.585904025936e-02
     2   -1.023732261950e+00
     3    1.586173618539e-02
     4    9.200393416328e-03
     5    1.292503717503e-03
     6   -8.583233187978e-02
     7    7.921961428812e-02
     8    1.571362651420e+00
     9    5.328267838923e-02
    10   -6.191927159185e-02
    11   -1.193416827217e-03
    12    2.107573125756e-01
    13   -2.474468121638e-01
    14   -4.742251898481e-03
    15   -2.227374063884e-02
    16    2.557765166037e-03
    17    2.952562553556e-03
    18   -8.936506378022e-04
    19    1.266504051765e-02
    20   -1.764037696171e-02
    21   -1.137971958996e+00
    22   -8.523319374384e-03
    23   -1.794125257665e-02
    24   -1.472943671560e-03
    25    8.662382982307e-02
    26   -7.993526255064e-02
    27   -1.594916387089e+00
    28    5.242415342743e-02
    29   -6.365004529898e-02
    30   -1.504543494203e-03
    31    2.142764679155e-01
    32   -2.517887403051e-01
    33   -5.549438499502e-03
    34    2.273449857644e-02
    35   -2.603044511409e-03
    36   -3.026861393148e-03
    37    8.011339360388e-04
    38   -1.283316909446e-02
    39    1.650389295581e-02
    40    1.147792263524e+00
    41   -8.639099015257e-03
    42   -1.809631695236e-02
    43   -1.502783751884e-03
    44    1.567394453964e-02
    45    1.043515138725e+00
    46    1.642395504307e-02
    47    9.193935736217e-03
    48    1.311396580412e-03
Sym=X
Ene= 0.303675
Spin=Alpha
Occup=0
     1    1.899002664737e-02
     2   -1.673235471177e+00
     3    2.293512667762e-02
     4   -6.294998479953e-04
     5    1.053617820582e-03
     6    7.857291672571e-05
     7    9.276325916043e-05
     8   -2.107121902751e-02
     9    1.340197748720e-01
    10    1.400270605040e-01
    11    1.461028872625e-02
    12    1.141705018509e+00
    13    1.198504404678e+00
    14    1.251268726877e-01
    15    3.922859443529e-04
    16    1.565330357487e-03
    17   -1.927406858551e-03
    18    3.254746058568e-02
    19    1.076616748122e-03
    20   -2.136352837618e-02
    21    1.696267969887e+00
    22   -1.442647536844e-03
    23    2.301629355897e-02
    24    1.286283477429e-03
    25    4.279763752908e-05
    26   -1.544139742480e-04
    27   -2.101405060857e-03
    28   -1.340918290936e-01
    29   -1.404284292982e-01
    30   -1.476002309624e-02
    31   -1.149156519767e+00
    32   -1.201534267169e+00
    33   -1.260665801239e-01
    34    1.636499916374e-05
    35    1.614439639085e-03
    36   -1.933026756274e-03
    37    3.297698631235e-02
    38    1.406154344283e-03
    39   -2.138440469837e-02
    40    1.698857075429e+00
    41    1.582212260947e-03
    42   -2.301644045887e-02
    43   -1.296638177926e-03
    44    2.091469081951e-02
    45   -1.697345269877e+00
    46   -2.309343376330e-02
    47    5.944206884837e-04
    48   -1.063832129758e-03
Sym=X
Ene= 0.463730
Spin=Alpha
Occup=0
     1   -1.185079726126e-01
     2   -6.949473484548e-01
     3   -1.629423395598e-02
     4   -9.445666518978e-03
     5   -1.329593557448e-03
     6    6.095054304782e-02
     7    1.772621099884e-02
     8   -3.695075521647e+00
     9    1.029771935555e-01
    10   -9.796327605794e-02
    11   -1.133515703415e-03
    12    2.436971347503e+00
    13   -2.347782210620e+00
    14   -2.237020819092e-02
    15    5.424575621413e-02
    16   -3.352040270847e-03
    17   -4.578244924181e-03
    18   -1.411032409910e-03
    19    1.962501861771e-02
    20   -1.128273545144e-01
    21   -7.293453162445e-01
    22    9.157111016046e-03
    23    1.650698516128e-02
    24    1.404873632529e-03
    25   -6.070443538169e-02
    26   -1.831556258466e-02
    27    3.685337776625e+00
    28    1.014341827013e-01
    29   -9.702460476481e-02
    30   -1.246794610326e-03
    31    2.450116633911e+00
    32   -2.342320854401e+00
    33   -2.186663532109e-02
    34   -5.431701704714e-02
    35    3.419967047899e-03
    36    4.665530367936e-03
    37    1.033229737388e-03
    38   -1.906960595858e-02
    39    1.149822768395e-01
    40    7.161208334741e-01
    41    9.125636615429e-03
    42    1.665807496014e-02
    43    1.422387472852e-03
    44    1.178765319306e-01
    45    7.153461000936e-01
    46   -1.638993397810e-02
    47   -9.530822544381e-03
    48   -1.356911072366e-03
Sym=X
Ene= 0.576520
Spin=Alpha
Occup=0
     1    2.422688024398e-01
     2    3.950369475176e-02
     3   -1.984855895093e-02
     4    2.674189668666e-02
     5    6.497177138441e-04
     6   -6.115928024977e-03
     7   -1.645603299504e-01
     8   -4.136095233250e-01
     9    3.000491884494e-01
    10   -2.862328379088e-01
    11   -2.621267280404e-03
    12   -7.513481620666e-01
    13    7.291112464362e-01
    14    7.832483559437e-03
    15   -5.144415373334e-03
    16    3.803097088659e-03
    17    3.446896136318e-03
    18   -2.187240434442e-03
    19    5.835240935250e-02
    20    2.450960385867e-01
    21    5.701625103619e-02
    22   -2.631506754100e-02
    23    1.750348348901e-02
    24   -2.035805120145e-04
    25   -5.493455114868e-03
    26   -1.637645958915e-01
    27   -4.457027659098e-01
    28   -3.013001845202e-01
    29    2.866740271035e-01
    30    2.579078859865e-03
    31    7.417778752206e-01
    32   -7.067566802436e-01
    33   -7.071341285530e-03
    34   -4.861757901605e-03
    35    3.834184255909e-03
    36    3.358565318250e-03
    37   -1.126937424161e-03
    38    5.839595176572e-02
    39    2.407059167600e-01
    40    4.861893694160e-02
    41    2.649689423269e-02
    42   -1.802074810350e-02
    43    1.742697187470e-04
    44    2.478541710543e-01
    45    3.996907171361e-02
    46    1.832468240986e-02
    47   -2.545271618699e-02
    48   -6.562556358929e-04
Sym=X
Ene= 0.614871
Spin=Alpha
Occup=0
     1    5.247574537668e-01
     2   -2.394361707018e-01
     3    6.150831953654e-02
     4   -3.796922695820e-02
     5    6.659104139045e-04
     6   -2.909984054405e-05
     7   -3.661446514843e-03
     8   -3.842287167933e-03
     9    3.545904954769e-02
    10    3.821172315933e-02
    11    3.978980004031e-03
    12   -2.582304570447e-01
    13   -3.007560176499e-01
    14   -2.983952681549e-02
    15   -1.269544685931e-03
    16    7.657946547152e-03
    17   -8.396673315198e-03
    18    1.496814344069e-01
    19    8.271130801096e-03
    20   -5.142353284013e-01
    21    2.076650870690e-01
    22   -4.083122588658e-02
    23    5.935294687433e-02
    24    1.599042724592e-03
    25    1.496489199122e-04
    26    1.645834390380e-04
    27    1.391201893253e-02
    28    3.681883277190e-02
    29    4.093056515266e-02
    30    4.137632234372e-03
    31   -2.675914443842e-01
    32   -3.143753851571e-01
    33   -3.161860648482e-02
    34   -9.511932623253e-04
    35   -7.229340822326e-03
    36    8.723801193209e-03
    37   -1.482814072741e-01
    38   -6.306438927117e-03
    39    5.211614722035e-01
    40   -2.029883012440e-01
    41   -4.023817534474e-02
    42    5.947319632382e-02
    43    1.643959136642e-03
    44   -5.116302141103e-01
    45    2.121087864741e-01
    46    6.076402264843e-02
    47   -3.839002311604e-02
    48    5.664150336626e-04
Sym=X
Ene= 0.687569
Spin=Alpha
Occup=0
     1    3.995010855362e-04
     2    5.837442374197e-04
     3    8.913903769073e-04
     4    1.169541812920e-03
     5   -1.909123399706e-02
     6    2.460532018387e-05
     7   -2.770081256963e-05
     8    5.962976674048e-04
     9    3.156298719030e-02
    10    3.963411394915e-02
    11   -6.686339057422e-01
    12   -3.003047480731e-02
    13   -3.516397068684e-02
    14    6.129332973127e-01
    15   -1.345384430356e-03
    16    8.223659057730e-02
    17   -7.896340543025e-02
    18   -8.637260615201e-03
    19   -9.936678994370e-04
    20    4.535098517220e-04
    21    4.067626136219e-04
    22    9.333012129276e-04
    23    1.245309471632e-03
    24   -2.116084723222e-02
    25   -9.586434989283e-06
    26    3.411462955696e-04
    27   -7.829021771174e-04
    28    3.181703254474e-02
    29    3.978242387170e-02
    30   -6.682302925261e-01
    31   -3.039577613242e-02
    32   -3.545407423861e-02
    33    6.132793565560e-01
    34    1.229481478441e-03
    35   -8.245424892861e-02
    36    7.902997487079e-02
    37    8.571603474024e-03
    38    1.040401717843e-03
    39   -1.847488430978e-04
    40   -7.909885538482e-04
    41    9.707330331835e-04
    42    1.328151619838e-03
    43   -2.079257410107e-02
    44   -2.202610438968e-04
    45   -5.791938808583e-04
    46    9.119993963580e-04
    47    1.282055799884e-03
    48   -2.075098175902e-02
Sym=X
Ene= 0.708287
Spin=Alpha
Occup=0
     1   -4.863319203000e-01
     2    1.728876767017e-01
     3   -7.998532876176e-02
     4   -4.501412728840e-02
     5   -6.503179136322e-03
     6   -4.779427002381e-02
     7   -3.144107349275e-01
     8    4.902500931327e-01
     9    2.010341088395e-01
    10   -1.840861093572e-01
    11   -1.545707635578e-03
    12   -8.292281935305e-02
    13    5.296637570810e-02
    14   -1.387329703087e-03
    15    1.951993364327e-01
    16   -2.056701677456e-02
    17   -2.403596389033e-02
    18    3.641288919413e-03
    19   -7.743767653509e-02
    20   -4.851689340277e-01
    21    1.397246798173e-01
    22    4.040524797597e-02
    23    8.229048909069e-02
    24    6.735845943884e-03
    25   -4.631538493452e-02
    26   -3.212993247664e-01
    27    4.925567608262e-01
    28   -1.976334977994e-01
    29    1.902513838094e-01
    30    1.698705793259e-03
    31    5.860108154973e-02
    32   -6.281294647042e-02
    33    9.574618435720e-05
    34    1.911551038854e-01
    35   -2.035926652038e-02
    36   -2.363405832258e-02
    37    2.477901759516e-03
    38   -7.734911223721e-02
    39   -4.678231298173e-01
    40    1.380733809894e-01
    41   -4.123352299498e-02
    42   -7.980572455202e-02
    43   -6.674111912233e-03
    44   -4.782553562763e-01
    45    1.392207292003e-01
    46    7.864659213792e-02
    47    4.377570635619e-02
    48    6.381607462025e-03
Sym=X
Ene= 0.786033
Spin=Alpha
Occup=0
     1    5.365454044317e-01
     2   -5.138212245326e-01
     3    1.129586423622e-01
     4    2.723944343706e-02
     5    6.965774031597e-03
     6    9.033661016270e-02
     7   -2.241582905781e-01
     8   -6.705232687050e-01
     9    9.335635642051e-02
    10   -1.108536066024e-01
    11   -1.597235041470e-03
    12    3.661408431717e-01
    13   -2.978702252179e-01
    14   -9.155199984785e-04
    15   -2.038459076934e-01
    16    1.752218490379e-02
    17    2.137517423153e-02
    18    2.713375718148e-03
    19    1.074755469159e-02
    20    5.271346471904e-01
    21   -4.535752973870e-01
    22   -2.068003626299e-02
    23   -1.093693277239e-01
    24   -7.434842335458e-03
    25   -9.176771405855e-02
    26    2.067705730911e-01
    27    6.986382312716e-01
    28    9.893194456229e-02
    29   -9.780286799492e-02
    30   -1.273337006890e-03
    31    3.408659002403e-01
    32   -3.234989577523e-01
    33   -2.240845793999e-03
    34    2.095122863689e-01
    35   -1.807343688467e-02
    36   -2.240788016124e-02
    37   -9.989302750768e-04
    38   -1.258616709928e-02
    39   -5.419046323846e-01
    40    4.760356198299e-01
    41   -2.138653463226e-02
    42   -1.134816084285e-01
    43   -7.780064563655e-03
    44   -5.375993874348e-01
    45    4.823399896628e-01
    46    1.132125778138e-01
    47    2.807918857200e-02
    48    7.058579753091e-03
Sym=X
Ene= 0.808729
Spin=Alpha
Occup=0
     1   -2.322876534927e-04
     2    5.091755635832e-04
     3   -1.576442401059e-03
     4   -1.964906434507e-03
     5    3.251354098606e-02
     6   -5.581039218802e-05
     7    4.156312009633e-04
     8   -6.387784865241e-05
     9   -3.622785128199e-02
    10   -4.491252169308e-02
    11    7.633634702271e-01
    12    5.339008067868e-02
    13    6.665984152090e-02
    14   -1.130446448782e+00
    15   -9.355028642035e-04
    16    6.690465574445e-02
    17   -6.409375328454e-02
    18   -7.065479070629e-03
    19   -8.475277468364e-04
    20   -2.181009032397e-04
    21   -1.317032573371e-04
    22   -1.637014295197e-03
    23   -2.069746177571e-03
    24    3.435719950871e-02
    25    2.864081387253e-05
    26    2.337184302231e-04
    27   -3.041664595656e-04
    28    3.637227663647e-02
    29    4.555480216346e-02
    30   -7.632034845446e-01
    31   -5.426607556547e-02
    32   -6.721806778608e-02
    33    1.130816017102e+00
    34   -1.196204049731e-03
    35    6.687138445887e-02
    36   -6.414013046360e-02
    37   -6.901503084186e-03
    38   -8.777285954683e-04
    39    2.226045288911e-04
    40   -4.854454724695e-05
    41    1.563515712436e-03
    42    2.146768007546e-03
    43   -3.411964297821e-02
    44    2.339731472951e-04
    45   -6.674954957903e-04
    46    1.443523197970e-03
    47    2.045141877286e-03
    48   -3.433799681158e-02
Sym=X
Ene= 0.860678
Spin=Alpha
Occup=0
     1    6.028876019283e-03
     2   -1.099278339934e+00
     3    1.477030748396e-01
     4    5.600718299584e-02
     5    1.024534785407e-02
     6   -1.978184145545e-03
     7   -6.369596069024e-03
     8    2.669311794369e-03
     9   -4.194865451877e-01
    10   -4.267648837721e-01
    11   -4.490919088407e-02
    12    9.654444146538e-01
    13    9.977817133851e-01
    14    1.043139677210e-01
    15    6.091044614895e-03
    16    1.127603333874e-02
    17   -1.406251217961e-02
    18    2.346116320144e-01
    19    1.223209173147e-02
    20   -1.968375298125e-02
    21    1.104645431366e+00
    22    4.811748192873e-02
    23    1.534226246933e-01
    24    1.143266717452e-02
    25    1.235743698272e-03
    26   -9.504557217174e-03
    27    1.033932584391e-02
    28   -4.081542960569e-01
    29   -4.181630820790e-01
    30   -4.452519821169e-02
    31    9.472255970977e-01
    32    9.836213831827e-01
    33    1.040764305857e-01
    34   -2.494249853805e-03
    35   -1.151434648322e-02
    36    1.360539770237e-02
    37   -2.332245572488e-01
    38   -1.257488457639e-02
    39    1.223244763850e-02
    40   -1.094239999926e+00
    41    4.889378319429e-02
    42    1.503676562951e-01
    43    1.136017705823e-02
    44   -2.337082710180e-03
    45    1.085898915383e+00
    46    1.450560312945e-01
    47    5.594482423894e-02
    48    1.013655568305e-02
Sym=X
Ene= 0.936154
Spin=Alpha
Occup=0
     1    1.144577255760e-01
     2   -1.287342151682e+00
     3    1.827026873816e-01
     4   -2.612261409045e-03
     5    8.558899565009e-03
     6   -2.118857737712e-03
     7   -2.526399583293e-02
     8    1.766562585121e-02
     9   -4.880986806277e-01
    10   -4.799908405238e-01
    11   -5.155694018918e-02
    12    1.491445099050e+00
    13    1.486346217337e+00
    14    1.587292921681e-01
    15    6.183841120998e-03
    16    5.820749748241e-03
    17   -6.722499816703e-03
    18    1.156879795620e-01
    19    1.354599431670e-02
    20   -1.196865439266e-01
    21    1.239326688602e+00
    22   -1.705679826092e-02
    23    1.775739818641e-01
    24    9.620973048739e-03
    25    1.161539220079e-03
    26   -1.688992822409e-02
    27    4.526291078528e-02
    28    4.697512320510e-01
    29    5.100654666498e-01
    30    5.267919605956e-02
    31   -1.451234350009e+00
    32   -1.565476615421e+00
    33   -1.620989031619e-01
    34   -2.838690997285e-03
    35    6.188631418141e-03
    36   -7.045208211212e-03
    37    1.234414464888e-01
    38    8.802989744370e-04
    39   -1.153215850711e-01
    40    1.294856342567e+00
    41    1.245922967847e-02
    42   -1.822397083426e-01
    43   -1.022584165429e-02
    44    1.209006260261e-01
    45   -1.287565323420e+00
    46   -1.854419983455e-01
    47    6.140781012001e-03
    48   -8.499780595778e-03
Sym=X
Ene= 0.976177
Spin=Alpha
Occup=0
     1   -5.392223113794e-02
     2    8.664962326957e-01
     3   -8.335307222515e-02
     4   -9.890868644830e-02
     5   -9.739033416804e-03
     6    2.788310948052e-02
     7    2.704173451633e-01
     8    4.597666303464e-01
     9    4.666514436817e-01
    10   -4.722078688101e-01
    11   -5.807365802378e-03
    12   -1.418899918352e+00
    13    1.458361237589e+00
    14    1.886970974768e-02
    15   -5.800809019397e-02
    16   -1.198698254070e-02
    17   -9.686963700101e-03
    18    1.972172271777e-02
    19   -3.001305141258e-01
    20   -5.561879241704e-02
    21    9.648027159870e-01
    22    9.496706347770e-02
    23    1.003456123416e-01
    24    1.052764694565e-02
    25   -2.754819953346e-02
    26   -2.450211950689e-01
    27   -5.024704926515e-01
    28    4.844170653011e-01
    29   -4.448941004642e-01
    30   -3.575507600162e-03
    31   -1.495164616394e+00
    32    1.357538519817e+00
    33    9.917156123408e-03
    34    5.690652799667e-02
    35    1.230588260688e-02
    36    9.315430520236e-03
    37   -1.262594192221e-02
    38    2.984705377072e-01
    39    5.449787226771e-02
    40   -8.745713922155e-01
    41    9.434896742719e-02
    42    8.822219177721e-02
    43    9.850216346018e-03
    44    5.207524412591e-02
    45   -9.262249393103e-01
    46   -9.009891787402e-02
    47   -9.829984094218e-02
    48   -1.000058768311e-02
[5D]

======= END OF MOLDEN-FORMATTED INPUT FILE =======


        *************************************************************
        *                                                           *
        *  Thank you very much for using Q-Chem.  Have a nice day.  *
        *                                                           *
        *************************************************************


