                  Welcome to Q-Chem
     A Quantum Leap Into The Future Of Chemistry


 Q-Chem 5.4 (devel), Q-Chem, Inc., Pleasanton, CA (2021)

 E. Epifanovsky,  A. T. B. Gilbert,  Xintian Feng,  Joonho Lee,  Yuezhi Mao,  
 N. Mardirossian,  P. Pokhilko,  A. White,  M. Wormit,  M. P. Coons,  
 A. L. Dempwolff,  Zhengting Gan,  D. Hait,  P. R. Horn,  L. D. Jacobson,  
 I. Kaliman,  J. Kussmann,  A. W. Lange,  Ka Un Lao,  D. S. Levine,  Jie Liu,  
 S. C. McKenzie,  A. F. Morrison,  K. Nanda,  F. Plasser,  D. R. Rehn,  
 M. L. Vidal,  Zhi-Qiang You,  Ying Zhu,  B. Alam,  B. Albrecht,  
 A. Aldossary,  E. Alguire,  J. H. Andersen,  D. Barton,  K. Begam,  A. Behn,  
 Y. A. Bernard,  E. J. Berquist,  H. Burton,  A. Carreras,  K. Carter-Fenk,  
 R. Chakraborty,  A. D. Chien,  K. D. Closser,  V. Cofer-Shabica,  
 S. Dasgupta,  Jia Deng,  M. de Wergifosse,  M. Diedenhofen,  Hainam Do,  
 S. Ehlert,  Po-Tung Fang,  S. Fatehi,  Qingguo Feng,  T. Friedhoff,  
 J. Gayvert,  Qinghui Ge,  G. Gidofalvi,  M. Goldey,  J. Gomes,  
 C. Gonzalez-Espinoza,  S. Gulania,  A. Gunina,  M. W. D. Hanson-Heine,  
 P. H. P. Harbach,  A. W. Hauser,  M. F. Herbst,  M. Hernandez Vera,  
 M. Hodecker,  Z. C. Holden,  S. Houck,  Xunkun Huang,  Kerwin Hui,  
 B. C. Huynh,  M. Ivanov,  Hyunjun Ji,  Hanjie Jiang,  B. Kaduk,  S. Kaehler,  
 K. Khistyaev,  Jaehoon Kim,  P. Klunzinger,  Z. Koczor-Benda,  
 Joong Hoon Koh,  D. Kosenkov,  L. Koulias,  T. Kowalczyk,  C. M. Krauter,  
 K. Kue,  A. Kunitsa,  T. Kus,  A. Landau,  K. V. Lawler,  D. Lefrancois,  
 S. Lehtola,  Rain Li,  Yi-Pei Li,  Jiashu Liang,  M. Liebenthal,  
 Hung-Hsuan Lin,  You-Sheng Lin,  Fenglai Liu,  Kuan-Yu Liu,  
 M. Loipersberger,  A. Luenser,  A. Manjanath,  P. Manohar,  E. Mansoor,  
 S. F. Manzer,  Shan-Ping Mao,  A. V. Marenich,  T. Markovich,  S. Mason,  
 S. A. Maurer,  P. F. McLaughlin,  M. F. S. J. Menger,  J.-M. Mewes,  
 S. A. Mewes,  P. Morgante,  J. W. Mullinax,  K. J. Oosterbaan,  G. Paran,  
 Alexander C. Paul,  Suranjan K. Paul,  F. Pavosevic,  Zheng Pei,  S. Prager,  
 E. I. Proynov,  E. Ramos,  B. Rana,  A. E. Rask,  A. Rettig,  R. M. Richard,  
 F. Rob,  E. Rossomme,  T. Scheele,  M. Scheurer,  M. Schneider,  
 N. Sergueev,  S. M. Sharada,  W. Skomorowski,  D. W. Small,  C. J. Stein,  
 Yu-Chuan Su,  E. J. Sundstrom,  Zhen Tao,  J. Thirman,  T. Tsuchimochi,  
 N. M. Tubman,  S. P. Veccham,  O. Vydrov,  J. Wenzel,  J. Witte,  A. Yamada,  
 Kun Yao,  S. Yeganeh,  S. R. Yost,  A. Zech,  Igor Ying Zhang,  Xing Zhang,  
 Yu Zhang,  D. Zuev,  A. Aspuru-Guzik,  A. T. Bell,  N. A. Besley,  
 K. B. Bravaya,  B. R. Brooks,  D. Casanova,  Jeng-Da Chai,  S. Coriani,  
 C. J. Cramer,  A. E. DePrince, III,  R. A. DiStasio Jr.,  A. Dreuw,  
 B. D. Dunietz,  T. R. Furlani,  W. A. Goddard III,  S. Grimme,  
 S. Hammes-Schiffer,  T. Head-Gordon,  W. J. Hehre,  Chao-Ping Hsu,  
 T.-C. Jagau,  Yousung Jung,  A. Klamt,  Jing Kong,  D. S. Lambrecht,  
 WanZhen Liang,  N. J. Mayhall,  C. W. McCurdy,  J. B. Neaton,  
 C. Ochsenfeld,  J. A. Parkhill,  R. Peverati,  V. A. Rassolov,  Yihan Shao,  
 L. V. Slipchenko,  T. Stauch,  R. P. Steele,  J. E. Subotnik,  
 A. J. W. Thom,  A. Tkatchenko,  D. G. Truhlar,  T. Van Voorhis,  
 T. A. Wesolowski,  K. B. Whaley,  H. L. Woodcock III,  P. M. Zimmerman,  
 S. Faraji,  P. M. W. Gill,  M. Head-Gordon,  J. M. Herbert,  A. I. Krylov

 Additional authors for Version 5.4.1: 
 S. Kotaru,  Shaozhi Li,  Xiangyuan Li,  F. Matz,  A. Molle,  Haisheng Ren,  
 Yingli Su,  Hung-Yi Tsai,  C. Utku,  Fang Wang

 Contributors to earlier versions of Q-Chem not listed above: 
 R. D. Adamson,  B. Austin,  R. Baer,  J. Baker,  G. J. O. Beran,  
 K. Brandhorst,  S. T. Brown,  E. F. C. Byrd,  A. K. Chakraborty,  
 G. K. L. Chan,  Chun-Min Chang,  Yunqing Chen,  C.-L. Cheng,  
 Siu Hung Chien,  D. M. Chipman,  D. L. Crittenden,  H. Dachsel,  
 R. J. Doerksen,  A. D. Dutoi,  R. G. Edgar,  J. Fosso-Tande,  
 L. Fusti-Molnar,  D. Ghosh,  A. Ghysels,  A. Golubeva-Zadorozhnaya,  
 J. Gonthier,  M. S. Gordon,  S. R. Gwaltney,  G. Hawkins,  J. E. Herr,  
 A. Heyden,  S. Hirata,  E. G. Hohenstein,  G. Kedziora,  F. J. Keil,  
 C. Kelley,  Jihan Kim,  R. A. King,  R. Z. Khaliullin,  P. P. Korambath,  
 W. Kurlancheek,  A. Laurent,  A. M. Lee,  M. S. Lee,  S. V. Levchenko,  
 Ching Yeh Lin,  D. Liotard,  E. Livshits,  R. C. Lochan,  I. Lotan,  
 L. A. Martinez-Martinez,  P. E. Maslen,  N. Nair,  D. P. O'Neill,  
 D. Neuhauser,  E. Neuscamman,  C. M. Oana,  R. Olivares-Amaya,  R. Olson,  
 T. M. Perrine,  B. Peters,  P. A. Pieniazek,  A. Prociuk,  Y. M. Rhee,  
 J. Ritchie,  M. A. Rohrdanz,  E. Rosta,  N. J. Russ,  H. F. Schaefer III,  
 M. W. Schmidt,  N. E. Schultz,  S. Sharma,  N. Shenvi,  C. D. Sherrill,  
 A. C. Simmonett,  A. Sodt,  T. Stein,  D. Stuck,  K. S. Thanthiriwatte,  
 V. Vanovschi,  L. Vogt,  Tao Wang,  A. Warshel,  M. A. Watson,  
 C. F. Williams,  Q. Wu,  X. Xu,  Jun Yang,  W. Zhang,  Yan Zhao

 Please cite Q-Chem as follows:
 Y. Shao et al., Mol. Phys. 113, 184-215 (2015)
 DOI: 10.1080/00268976.2014.952696

 Q-Chem 5.4.1 for Intel X86 EM64T Linux

 Parts of Q-Chem use Armadillo 9.800.1 (Horizon Scraper).
 http://arma.sourceforge.net/

 Q-Chem begins on Thu Nov 17 00:23:29 2022  

 Host: cpu285.baobab
0

     Scratch files written to /scratch/fum/qchem75994//
 Processing $rem in /home/share/wesolowski/qc5.aug2021.FDE/config/preferences:
 Processing $rem in /home/fum/.qchemrc:

 Checking the input file for inconsistencies... 	...done.

--------------------------------------------------------------
User input:
--------------------------------------------------------------
$comment
generated from CCJob.Templates
$end

$rem
sym_ignore = true
method = adc(2)
ee_states = 10
basis = cc-pVDZ
mem_static = 1024
mem_total = 30000
adc_davidson_maxiter = 900
adc_davidson_conv = 6
adc_print = 3
adc_prop_es = true
adc_prop_es2es = true
adc_prop_tpa = true
molden_format = True
state_analysis = true
print_orbitals = 15
gen_scfman = false
fde_export_density = true
fde_details = 3
$end

$molecule
0 1
H -0.0348278765 -0.2442097827 0.0636489606
C -1.0765972949 -0.5242748755 -0.0023551776
H -1.313264467 -1.5767591607 -0.0757276926
C -2.043634118 0.3876884087 0.0061254933
H -1.8137616575 1.4459188338 0.0804456828
H -3.085977293 0.114931858 -0.0593381042                     
$end
--------------------------------------------------------------
 ----------------------------------------------------------------
             Standard Nuclear Orientation (Angstroms)
    I     Atom           X                Y                Z
 ----------------------------------------------------------------
    1      H      -0.0348278765    -0.2442097827     0.0636489606
    2      C      -1.0765972949    -0.5242748755    -0.0023551776
    3      H      -1.3132644670    -1.5767591607    -0.0757276926
    4      C      -2.0436341180     0.3876884087     0.0061254933
    5      H      -1.8137616575     1.4459188338     0.0804456828
    6      H      -3.0859772930     0.1149318580    -0.0593381042
 ----------------------------------------------------------------
 Nuclear Repulsion Energy =          33.45531801 hartrees
 There are        8 alpha and        8 beta electrons
 Requested basis set is cc-pVDZ
 There are 24 shells and 48 basis functions
 Total memory of 30000 MB is distributed as follows: 
   MEM_STATIC is set to 1024 MB
   QALLOC/CCMAN JOB total memory use is  28976 MB
 Warning: actual memory use might exceed 30000 MB

 Total QAlloc Memory Limit  30000 MB
 Mega-Array Size      1001 MB
 MEM_STATIC part      1024 MB

                       Distance Matrix (Angstroms)
             H (  1)   C (  2)   H (  3)   C (  4)   H (  5)
   C (  2)  1.080776
   H (  3)  1.851895  1.081258
   C (  4)  2.106634  1.329251  2.097426
   H (  5)  2.453859  2.105215  3.067812  1.085457
   H (  6)  3.074674  2.109370  2.450428  1.079426  1.846510

 A cutoff of  1.0D-11 yielded    300 shell pairs
 There are      1220 function pairs (      1329 Cartesian)
 Smallest overlap matrix eigenvalue = 4.74E-03

 Scale SEOQF with 1.000000e-01/1.000000e-01/1.000000e+00

 Standard Electronic Orientation quadrupole field applied
 Nucleus-field energy     =     0.0000000022 hartrees
 Guess from superposition of atomic densities
 Warning:  Energy on first SCF cycle will be non-variational
 SAD guess density has 16.000000 electrons
 A restricted Hartree-Fock SCF calculation will be
 performed using Pulay DIIS extrapolation
 SCF converges when DIIS error is below 1.0E-08
 using 8 threads for integral computing
 -------------------------------------------------------
 OpenMP Integral computing Module                
 Release: version 1.0, May 2013, Q-Chem Inc. Pittsburgh 
 -------------------------------------------------------
 ---------------------------------------
  Cycle       Energy         DIIS Error
 ---------------------------------------
    1     -78.4432023095      1.01E-01
    2     -78.0177315980      7.23E-03
    3     -78.0383887869      1.85E-03
    4     -78.0398757700      5.78E-04
    5     -78.0399996595      5.79E-05
    6     -78.0400015353      9.21E-06
    7     -78.0400015955      1.94E-06
    8     -78.0400015983      1.86E-07
    9     -78.0400015983      5.19E-08
   10     -78.0400015983      1.95E-08
   11     -78.0400015983      5.00E-09 Convergence criterion met
 ---------------------------------------
 SCF time:  CPU 3.43 s  wall 2.37 s
 SCF   energy in the final basis set = -78.04000160
 Total energy in the final basis set = -78.04000160
Exporting Density Matrix to file 'Densmat_SCF.txt'.
Export successful
================================================================================
|                                                                              |
|                                 A D C  M A N                                 |
|                                                                              |
 ------------------------------------------------------------------------------ 
|                                                                              |
| Components:                                                                  |
|                                                                              |
| - libvmm - 1.3-trunk                                                         |
|   Authors:                                                                   |
|   Evgeny Epifanovsky, Ilya Kaliman                                           |
|                                                                              |
| - libtensor - 2.5-trunk                                                      |
|   Authors:                                                                   |
|   Evgeny Epifanovsky, Michael Wormit, Dmitry Zuev, Sam Manzer,               |
|   Ilya Kaliman                                                               |
|                                                                              |
| - libwfa - 1.1-trunk                                                         |
|   Authors:                                                                   |
|   Felix Plasser, Stefanie Mewes (Baeppler), Benjamin Thomitzni,              |
|   Michael Wormit, Feng Chen, Anna I. Krylov, Pavel Pokhilko                  |
|                                                                              |
| - libadc - 1.1-trunk                                                         |
|   Authors:                                                                   |
|   Michael Wormit, Adrian L. Dempwolff, Philipp H. P. Harbach,                |
|   Caroline Krauter, Dirk Rehn, Matthias Schneider, Jan Wenzel                |
|                                                                              |
| - adcman - 2.6-trunk                                                         |
|   Authors:                                                                   |
|   Michael Wormit, Adrian L. Dempwolff, Philipp H. P. Harbach,                |
|   Caroline Krauter, Daniel Lefrancois, Jan-Michael Mewes, Dirk Rehn,         |
|   Matthias Schneider, Jan Wenzel, Andreas Dreuw                              |
|                                                                              |
| Authors of earlier versions of ADCMAN:                                       |
| Andreas Dreuw, Jan Hendrik Starcke, Dirk Rehn, Michael Wormit                |
|                                                                              |
================================================================================

 Created directory /scratch/fum/qchem75994/plots
  Import QC data ...  CPU 0.00 s  wall 0.00 s

 Alpha MOs, Restricted
 -- Occupied --                  
-11.235 -11.233  -1.033  -0.789  -0.641  -0.583  -0.504  -0.375
  1 A     2 A     3 A     4 A     5 A     6 A     7 A     8 A                  
 -- Virtual --                   
  0.169   0.204   0.233   0.239   0.303   0.463   0.577   0.615
  9 A    10 A    11 A    12 A    13 A    14 A    15 A    16 A                  
  0.688   0.709   0.785   0.808   0.861   0.936   0.974   1.009
 17 A    18 A    19 A    20 A    21 A    22 A    23 A    24 A                  
  1.130   1.236   1.254   1.267   1.294   1.600   1.727   1.751
 25 A    26 A    27 A    28 A    29 A    30 A    31 A    32 A                  
  1.819   1.860   1.868   1.922   1.975   1.979   2.224   2.260
 33 A    34 A    35 A    36 A    37 A    38 A    39 A    40 A                  
  2.376   2.453   2.507   2.637   2.718   2.822   3.138   3.402
 41 A    42 A    43 A    44 A    45 A    46 A    47 A    48 A                  

 Beta MOs, Restricted
 -- Occupied --                  
-11.235 -11.233  -1.033  -0.789  -0.641  -0.583  -0.504  -0.375
  1 A     2 A     3 A     4 A     5 A     6 A     7 A     8 A                  
 -- Virtual --                   
  0.169   0.204   0.233   0.239   0.303   0.463   0.577   0.615
  9 A    10 A    11 A    12 A    13 A    14 A    15 A    16 A                  
  0.688   0.709   0.785   0.808   0.861   0.936   0.974   1.009
 17 A    18 A    19 A    20 A    21 A    22 A    23 A    24 A                  
  1.130   1.236   1.254   1.267   1.294   1.600   1.727   1.751
 25 A    26 A    27 A    28 A    29 A    30 A    31 A    32 A                  
  1.819   1.860   1.868   1.922   1.975   1.979   2.224   2.260
 33 A    34 A    35 A    36 A    37 A    38 A    39 A    40 A                  
  2.376   2.453   2.507   2.637   2.718   2.822   3.138   3.402
 41 A    42 A    43 A    44 A    45 A    46 A    47 A    48 A                  
  Import AO data ...  CPU 0.00 s  wall 0.00 s
  Using point group: C1
  Irreducible representations in point group: A
  Molecular orbitals: 
  Occupied MOs:
  Block   0:   1 (  A) A   2 (  A) A   3 (  A) A   4 (  A) A   5 (  A) A
                  -11.23      -11.23      -1.033     -0.7892      -0.641
               6 (  A) A   7 (  A) A   8 (  A) A
                 -0.5827     -0.5035     -0.3749
  Block   1:   1 (  A) B   2 (  A) B   3 (  A) B   4 (  A) B   5 (  A) B
                  -11.23      -11.23      -1.033     -0.7892      -0.641
               6 (  A) B   7 (  A) B   8 (  A) B
                 -0.5827     -0.5035     -0.3749
  Virtual MOs:
  Block   0:   9 (  A) A  10 (  A) A  11 (  A) A  12 (  A) A  13 (  A) A
                  0.1692      0.2037      0.2327      0.2393      0.3035
              14 (  A) A  15 (  A) A  16 (  A) A  17 (  A) A  18 (  A) A
                  0.4628      0.5771       0.615      0.6884      0.7086
              19 (  A) A  20 (  A) A  21 (  A) A  22 (  A) A
                  0.7853      0.8083      0.8615       0.936
  Block   1:  23 (  A) A  24 (  A) A  25 (  A) A  26 (  A) A  27 (  A) A
                  0.9742       1.009        1.13       1.236       1.254
              28 (  A) A  29 (  A) A  30 (  A) A  31 (  A) A  32 (  A) A
                   1.267       1.294         1.6       1.727       1.751
              33 (  A) A  34 (  A) A  35 (  A) A  36 (  A) A
                   1.819        1.86       1.868       1.922
  Block   2:  37 (  A) A  38 (  A) A  39 (  A) A  40 (  A) A  41 (  A) A
                   1.975       1.979       2.224        2.26       2.376
              42 (  A) A  43 (  A) A  44 (  A) A  45 (  A) A  46 (  A) A
                   2.453       2.507       2.637       2.718       2.822
              47 (  A) A  48 (  A) A
                   3.138       3.402
  Block   3:   9 (  A) B  10 (  A) B  11 (  A) B  12 (  A) B  13 (  A) B
                  0.1692      0.2037      0.2327      0.2393      0.3035
              14 (  A) B  15 (  A) B  16 (  A) B  17 (  A) B  18 (  A) B
                  0.4628      0.5771       0.615      0.6884      0.7086
              19 (  A) B  20 (  A) B  21 (  A) B  22 (  A) B
                  0.7853      0.8083      0.8615       0.936
  Block   4:  23 (  A) B  24 (  A) B  25 (  A) B  26 (  A) B  27 (  A) B
                  0.9742       1.009        1.13       1.236       1.254
              28 (  A) B  29 (  A) B  30 (  A) B  31 (  A) B  32 (  A) B
                   1.267       1.294         1.6       1.727       1.751
              33 (  A) B  34 (  A) B  35 (  A) B  36 (  A) B
                   1.819        1.86       1.868       1.922
  Block   5:  37 (  A) B  38 (  A) B  39 (  A) B  40 (  A) B  41 (  A) B
                   1.975       1.979       2.224        2.26       2.376
              42 (  A) B  43 (  A) B  44 (  A) B  45 (  A) B  46 (  A) B
                   2.453       2.507       2.637       2.718       2.822
              47 (  A) B  48 (  A) B
                   3.138       3.402
  Import MO data ...  CPU 0.08 s  wall 0.08 s
  Import HF data ...  CPU 3.78 s  wall 3.57 s
  Import 2e integrals ...  CPU 3.90 s  wall 0.80 s

--------------------------------------------------------------------------------
                                   HF Summary                                   
--------------------------------------------------------------------------------
  Energy:                                                  -78.0400015983 a.u.
  Dip. moment [a.u.]:                  [  -0.001353,    0.000101,    0.000233]
  Total dipole [Debye]:                                               0.003499
  <r^2> [a.u.]:                        [ 175.306434,   34.849409,   11.619132]
  Total <r^2> [a.u.]:                                               221.774975
--------------------------------------------------------------------------------
  HF properties ...  CPU 0.64 s  wall 0.33 s
  MP(1) calculation ...  CPU 0.06 s  wall 0.03 s
  N^6 prerequesite intermediates ...  CPU 0.99 s  wall 0.29 s
  Difference density matrix of state mp2_gs printed to ASCII file 'State_mp2_gs_Difference.txt'
Exporting MP density matrix to file 'Densmat_MP.txt'.
Export successful
  Total density matrix of state mp2_gs printed to ASCII file 'State_mp2_gs_Total.txt'
Exporting MP density matrix to file 'Densmat_MP.txt'.
Export successful

--------------------------------------------------------------------------------
                                 MP(2) Summary                                  
--------------------------------------------------------------------------------
  MP energy contribution:                                   -0.2795567945 a.u.
  Total energy:                                            -78.3195583927 a.u.
  Dip. moment [a.u.]:                  [  -0.001184,    0.000120,    0.000238]
  Total dipole [Debye]:                                               0.003085
  <r^2> [a.u.]:                        [ 175.355517,   34.889093,   11.453053]
  Total <r^2> [a.u.]:                                               221.697663

  Density matrix analysis:
  ------------------------
  NOs
    Occupation of frontier NOs:
       0.0450   1.9385
    Number of electrons: 16.000000
    Number of unpaired electrons: n_u =  0.40278, n_u,nl =  0.04484
    NO participation ratio (PR_NO): 13.889260
  
  
  Mulliken Population Analysis
  Atom      Charge (e)              h+              e-           Del q
  --------------------------------------------------------------------
   1 H        0.050898        0.014016       -0.011201        0.002815
   2 C       -0.099162        0.092883       -0.098503       -0.005620
   3 H        0.050184        0.014089       -0.011183        0.002907
   4 C       -0.102759        0.092810       -0.098719       -0.005909
   5 H        0.050673        0.014099       -0.011189        0.002910
   6 H        0.050166        0.014094       -0.011197        0.002897
  --------------------------------------------------------------------
  Sum:        0.000000        0.241991       -0.241991        0.000000
  
  Multipole moment analysis of the density matrix
    Molecular charge:                      -0.000000
    Number of electrons:                   16.000000
      Center of electronic charge [Ang]: [ -1.560537,  -0.067481,   0.001970]
    Total nuclear charge:                  16.000000
      Center of nuclear charge [Ang]:    [ -1.560576,  -0.067477,   0.001978]
    Dipole moment [D]:                     0.003085
      Cartesian components [D]:          [ -0.003010,   0.000304,   0.000605]
    RMS size of the density [Ang]:         1.200113
      Cartesian components [Ang]:        [  0.796089,   0.778503,   0.447711]
  
  Exciton analysis of the difference density matrix
    <r_h> [Ang]:                  [ -1.560349,  -0.067085,   0.001957]
    <r_e> [Ang]:                  [ -1.560718,  -0.067126,   0.001945]
    |<r_e - r_h>| [Ang]:            0.000372
    Hole size [Ang]:                1.392671
      Cartesian components [Ang]: [  0.846212,   0.834172,   0.726370]
    Electron size [Ang]:            1.359746
      Cartesian components [Ang]: [  0.878476,   0.861254,   0.579163]
--------------------------------------------------------------------------------
  MP(2) calculation ...  CPU 0.64 s  wall 0.31 s
  Start ADC(2)-s ...  CPU 0.01 s  wall 0.00 s
  ADC(2) intermediates ...  CPU 0.34 s  wall 0.06 s
  Starting Davidson for singlet states of irrep A ... 
--------------------------------------------------------------------------------
   It NVec Conv  Avg. Norm  Max. Norm  Conv. states           Remark
--------------------------------------------------------------------------------
        10    0  1.330e-01  4.692e-01  0.4126 n n n n n n n n Guess.
    1   20    0  2.314e-02  1.106e-01  0.3273 n n n n n n n n 
    2   30    0  5.985e-03  2.884e-02  0.3226 n n n n n n n n 
    3   40    0  2.167e-03  1.607e-02  0.3222 n n n n n n n n 
    4   50    0  6.450e-04  4.985e-03  0.3222 n n n n n n n n 
    5   20    0  2.840e-04  2.163e-03  0.3222 n n n n n n n n Subspace collapsed.
    6   30    0  2.375e-04  2.235e-03  0.3222 n n n n n n n n 
    7   40    0  1.393e-04  1.263e-03  0.3222 n n n n n n n n 
    8   50    0  2.283e-04  2.260e-03  0.3222 n n n n n n n n 
    9   20    2  1.007e-04  9.873e-04  0.3222 n y n y n n n n Subspace collapsed.
   10   30    5  1.337e-04  1.329e-03  0.3222 n y y y y y n n 
   11   40    5  1.116e-04  1.114e-03  0.3222 n y y y y y n n 
   12   50    6  1.392e-04  1.392e-03  0.3222 y y y y y y n n 
   13   20    8  6.903e-05  6.902e-04  0.3222 y y y y y y n y Subspace collapsed.
   14   30    8  7.243e-05  7.242e-04  0.3222 y y y y y y n y 
   15   40    8  5.670e-05  5.669e-04  0.3222 y y y y y y n y 
   16   50    8  6.771e-05  6.771e-04  0.3222 y y y y y y n y 
   17   20    8  3.442e-05  3.441e-04  0.3222 y y y y y y n y Subspace collapsed.
   18   30    8  4.291e-05  4.291e-04  0.3222 y y y y y y n y 
   19   40    9  3.454e-05  3.454e-04  0.3222 y y y y y y y y 
   20   50    9  5.225e-05  5.225e-04  0.3222 y y y y y y y y 
   21   20    9  2.044e-05  2.044e-04  0.3222 y y y y y y y y Subspace collapsed.
   22   30    9  2.115e-05  2.115e-04  0.3222 y y y y y y y y 
   23   31    9  2.115e-05  2.115e-04  0.3222 y y y y y y y y 
   24   40    9  1.740e-05  1.740e-04  0.3222 y y y y y y y y 
   25   41    9  1.719e-05  1.719e-04  0.3222 y y y y y y y y 
   26   42    9  1.722e-05  1.722e-04  0.3222 y y y y y y y y 
   27   42    9  1.722e-05  1.722e-04  0.3222 y y y y y y y y 
   28   50    9  1.918e-05  1.918e-04  0.3222 y y y y y y y y 
   29   16    9  1.227e-05  1.227e-04  0.3222 y y y y y y y y Subspace collapsed.
   30   21    9  1.277e-05  1.277e-04  0.3222 y y y y y y y y 
   31   26    9  1.091e-05  1.091e-04  0.3222 y y y y y y y y 
   32   30    9  1.346e-05  1.346e-04  0.3222 y y y y y y y y 
   33   34    9  1.234e-05  1.234e-04  0.3222 y y y y y y y y 
   34   38    9  5.922e-06  5.922e-05  0.3222 y y y y y y y y 
   35   42    9  2.719e-06  2.719e-05  0.3222 y y y y y y y y 
   36   46    9  1.944e-06  1.944e-05  0.3222 y y y y y y y y 
   37   50    9  8.943e-07  8.943e-06  0.3222 y y y y y y y y 
   38   14    9  3.929e-07  3.929e-06  0.3222 y y y y y y y y Subspace collapsed.
   39   18    9  2.887e-07  2.887e-06  0.3222 y y y y y y y y 
   40   22    9  1.696e-07  1.696e-06  0.3222 y y y y y y y y 
   41   26   10  8.188e-08  8.188e-07  0.3222 y y y y y y y y Converged.
--------------------------------------------------------------------------------
  Davidson Summary: 
 ------------------------------------------------------------
  State  0: excitation energy =   0.3222 a.u.   (converged)
  State  1: excitation energy =   0.3326 a.u.   (converged)
  State  2: excitation energy =   0.3376 a.u.   (converged)
  State  3: excitation energy =   0.3614 a.u.   (converged)
  State  4: excitation energy =   0.3761 a.u.   (converged)
  State  5: excitation energy =   0.3882 a.u.   (converged)
  State  6: excitation energy =   0.4239 a.u.   (converged)
  State  7: excitation energy =   0.4477 a.u.   (converged)
  State  8: excitation energy =   0.4570 a.u.   (converged)
  State  9: excitation energy =   0.4636 a.u.   (converged)
 ------------------------------------------------------------

  Singlet states of irrep A ...  CPU 296.64 s  wall 139.25 s
  TDMs ...  CPU 8.34 s  wall 4.12 s
  SDMs ...  CPU 7.40 s  wall 3.17 s
  Starting TPA DIIS iterations ... 
------------------------------------ 
   It     Res. Norm  Remark
------------------------------------
                       Guess.
    1     4.376e+00  
    2     5.787e+00  
    3     1.071e+00  
    4     2.534e-01  
    5     6.466e-02  
    6     2.638e-02  
    7     8.159e-03  
    8     1.434e-03  
    9     5.342e-04  
   10     8.965e-05  
   11     2.815e-05  
   12     4.367e-06  
   13     1.424e-06  
   14     4.367e-07  Converged.
   ... Converged in 14 steps (norm: 4.36736e-07)
------------------------------------
  Starting TPA DIIS iterations ... 
------------------------------------ 
   It     Res. Norm  Remark
------------------------------------
                       Guess.
    1     4.129e+00  
    2     5.456e+00  
    3     1.024e+00  
    4     2.544e-01  
    5     6.432e-02  
    6     2.662e-02  
    7     8.064e-03  
    8     1.474e-03  
    9     5.444e-04  
   10     9.067e-05  
   11     2.889e-05  
   12     4.382e-06  
   13     1.463e-06  
   14     4.352e-07  Converged.
   ... Converged in 14 steps (norm: 4.35198e-07)
------------------------------------
  Starting TPA DIIS iterations ... 
------------------------------------ 
   It     Res. Norm  Remark
------------------------------------
                       Guess.
    1     6.878e-01  
    2     4.827e-01  
    3     1.703e-01  
    4     6.036e-02  
    5     1.831e-02  
    6     6.629e-03  
    7     1.042e-03  
    8     4.507e-04  
    9     1.259e-04  
   10     2.851e-05  
   11     5.884e-06  
   12     1.719e-06  
   13     1.102e-06  
   14     4.341e-07  Converged.
   ... Converged in 14 steps (norm: 4.3406e-07)
------------------------------------
  Starting TPA DIIS iterations ... 
------------------------------------ 
   It     Res. Norm  Remark
------------------------------------
                       Guess.
    1     4.630e+00  
    2     6.240e+00  
    3     1.143e+00  
    4     2.783e-01  
    5     7.193e-02  
    6     2.957e-02  
    7     9.132e-03  
    8     1.602e-03  
    9     6.011e-04  
   10     1.014e-04  
   11     3.212e-05  
   12     5.023e-06  
   13     1.649e-06  
   14     5.064e-07  Converged.
   ... Converged in 14 steps (norm: 5.06401e-07)
------------------------------------
  Starting TPA DIIS iterations ... 
------------------------------------ 
   It     Res. Norm  Remark
------------------------------------
                       Guess.
    1     4.366e+00  
    2     5.882e+00  
    3     1.092e+00  
    4     2.793e-01  
    5     7.155e-02  
    6     2.987e-02  
    7     9.030e-03  
    8     1.649e-03  
    9     6.127e-04  
   10     1.026e-04  
   11     3.295e-05  
   12     5.036e-06  
   13     1.693e-06  
   14     5.046e-07  Converged.
   ... Converged in 14 steps (norm: 5.04571e-07)
------------------------------------
  Starting TPA DIIS iterations ... 
------------------------------------ 
   It     Res. Norm  Remark
------------------------------------
                       Guess.
    1     6.985e-01  
    2     4.982e-01  
    3     1.791e-01  
    4     6.738e-02  
    5     1.956e-02  
    6     7.179e-03  
    7     1.162e-03  
    8     5.218e-04  
    9     1.488e-04  
   10     3.190e-05  
   11     6.631e-06  
   12     1.996e-06  
   13     1.350e-06  
   14     5.336e-07  Converged.
   ... Converged in 14 steps (norm: 5.33612e-07)
------------------------------------
  Starting TPA DIIS iterations ... 
------------------------------------ 
   It     Res. Norm  Remark
------------------------------------
                       Guess.
    1     4.757e+00  
    2     6.471e+00  
    3     1.179e+00  
    4     2.913e-01  
    5     7.570e-02  
    6     3.124e-02  
    7     9.637e-03  
    8     1.690e-03  
    9     6.361e-04  
   10     1.075e-04  
   11     3.422e-05  
   12     5.370e-06  
   13     1.769e-06  
   14     5.435e-07  Converged.
   ... Converged in 14 steps (norm: 5.43514e-07)
------------------------------------
  Starting TPA DIIS iterations ... 
------------------------------------ 
   It     Res. Norm  Remark
------------------------------------
                       Guess.
    1     4.486e+00  
    2     6.100e+00  
    3     1.126e+00  
    4     2.922e-01  
    5     7.531e-02  
    6     3.156e-02  
    7     9.533e-03  
    8     1.740e-03  
    9     6.484e-04  
   10     1.088e-04  
   11     3.509e-05  
   12     5.382e-06  
   13     1.815e-06  
   14     5.416e-07  Converged.
   ... Converged in 14 steps (norm: 5.41589e-07)
------------------------------------
  Starting TPA DIIS iterations ... 
------------------------------------ 
   It     Res. Norm  Remark
------------------------------------
                       Guess.
    1     7.037e-01  
    2     5.058e-01  
    3     1.834e-01  
    4     7.109e-02  
    5     2.019e-02  
    6     7.464e-03  
    7     1.225e-03  
    8     5.599e-04  
    9     1.610e-04  
   10     3.334e-05  
   11     7.020e-06  
   12     2.144e-06  
   13     1.488e-06  
   14     5.898e-07  Converged.
   ... Converged in 14 steps (norm: 5.89755e-07)
------------------------------------
  Starting TPA DIIS iterations ... 
------------------------------------ 
   It     Res. Norm  Remark
------------------------------------
                       Guess.
    1     5.468e+00  
    2     7.791e+00  
    3     1.379e+00  
    4     3.675e-01  
    5     9.789e-02  
    6     4.113e-02  
    7     1.262e-02  
    8     2.204e-03  
    9     8.437e-04  
   10     1.441e-04  
   11     4.695e-05  
   12     7.481e-06  
   13     2.513e-06  
   14     7.742e-07  Converged.
   ... Converged in 14 steps (norm: 7.74175e-07)
------------------------------------
  Starting TPA DIIS iterations ... 
------------------------------------ 
   It     Res. Norm  Remark
------------------------------------
                       Guess.
    1     5.154e+00  
    2     7.343e+00  
    3     1.316e+00  
    4     3.680e-01  
    5     9.745e-02  
    6     4.166e-02  
    7     1.250e-02  
    8     2.274e-03  
    9     8.600e-04  
   10     1.458e-04  
   11     4.803e-05  
   12     7.481e-06  
   13     2.573e-06  
   14     7.728e-07  Converged.
   ... Converged in 14 steps (norm: 7.72769e-07)
------------------------------------
  Starting TPA DIIS iterations ... 
------------------------------------ 
   It     Res. Norm  Remark
------------------------------------
                       Guess.
    1     7.300e-01  
    2     5.461e-01  
    3     2.072e-01  
    4     9.354e-02  
    5     2.364e-02  
    6     9.149e-03  
    7     1.611e-03  
    8     7.898e-04  
    9     2.335e-04  
   10     3.813e-05  
   11     9.357e-06  
   12     3.076e-06  
   13     2.412e-06  
   14     9.771e-07  Converged.
   ... Converged in 14 steps (norm: 9.77089e-07)
------------------------------------
  Starting TPA DIIS iterations ... 
------------------------------------ 
   It     Res. Norm  Remark
------------------------------------
                       Guess.
    1     5.997e+00  
    2     8.808e+00  
    3     1.527e+00  
    4     4.287e-01  
    5     1.157e-01  
    6     4.917e-02  
    7     1.501e-02  
    8     2.615e-03  
    9     1.012e-03  
   10     1.738e-04  
   11     5.752e-05  
   12     9.239e-06  
   13     3.148e-06  
   14     9.744e-07  Converged.
   ... Converged in 14 steps (norm: 9.74384e-07)
------------------------------------
  Starting TPA DIIS iterations ... 
------------------------------------ 
   It     Res. Norm  Remark
------------------------------------
                       Guess.
    1     5.652e+00  
    2     8.301e+00  
    3     1.456e+00  
    4     4.288e-01  
    5     1.152e-01  
    6     4.988e-02  
    7     1.487e-02  
    8     2.701e-03  
    9     1.032e-03  
   10     1.759e-04  
   11     5.873e-05  
   12     9.225e-06  
   13     3.217e-06  
   14     9.750e-07  Converged.
   ... Converged in 14 steps (norm: 9.75036e-07)
------------------------------------
  Starting TPA DIIS iterations ... 
------------------------------------ 
   It     Res. Norm  Remark
------------------------------------
                       Guess.
    1     7.473e-01  
    2     5.741e-01  
    3     2.243e-01  
    4     1.122e-01  
    5     2.625e-02  
    6     1.051e-02  
    7     1.938e-03  
    8     9.694e-04  
    9     2.892e-04  
   10     3.942e-05  
   11     1.133e-05  
   12     3.881e-06  
   13     3.273e-06  
   14     1.352e-06  
   15     5.180e-07  Converged.
   ... Converged in 15 steps (norm: 5.18001e-07)
------------------------------------
  Starting TPA DIIS iterations ... 
------------------------------------ 
   It     Res. Norm  Remark
------------------------------------
                       Guess.
    1     6.496e+00  
    2     9.793e+00  
    3     1.665e+00  
    4     4.895e-01  
    5     1.333e-01  
    6     5.722e-02  
    7     1.739e-02  
    8     3.022e-03  
    9     1.181e-03  
   10     2.036e-04  
   11     6.822e-05  
   12     1.102e-05  
   13     3.804e-06  
   14     1.187e-06  
   15     4.072e-07  Converged.
   ... Converged in 15 steps (norm: 4.07239e-07)
------------------------------------
  Starting TPA DIIS iterations ... 
------------------------------------ 
   It     Res. Norm  Remark
------------------------------------
                       Guess.
    1     6.121e+00  
    2     9.228e+00  
    3     1.588e+00  
    4     4.891e-01  
    5     1.328e-01  
    6     5.812e-02  
    7     1.724e-02  
    8     3.124e-03  
    9     1.203e-03  
   10     2.060e-04  
   11     6.953e-05  
   12     1.099e-05  
   13     3.877e-06  
   14     1.191e-06  
   15     3.908e-07  Converged.
   ... Converged in 15 steps (norm: 3.90832e-07)
------------------------------------
  Starting TPA DIIS iterations ... 
------------------------------------ 
   It     Res. Norm  Remark
------------------------------------
                       Guess.
    1     7.620e-01  
    2     5.992e-01  
    3     2.399e-01  
    4     1.311e-01  
    5     2.877e-02  
    6     1.187e-02  
    7     2.276e-03  
    8     1.134e-03  
    9     3.409e-04  
   10     4.030e-05  
   11     1.339e-05  
   12     4.719e-06  
   13     4.212e-06  
   14     1.773e-06  
   15     6.921e-07  Converged.
   ... Converged in 15 steps (norm: 6.92088e-07)
------------------------------------
  Starting TPA DIIS iterations ... 
------------------------------------ 
   It     Res. Norm  Remark
------------------------------------
                       Guess.
    1     8.444e+00  
    2     1.385e+01  
    3     2.197e+00  
    4     7.513e-01  
    5     2.095e-01  
    6     9.262e-02  
    7     2.763e-02  
    8     4.767e-03  
    9     1.921e-03  
   10     3.337e-04  
   11     1.151e-04  
   12     1.894e-05  
   13     6.743e-06  
   14     2.275e-06  
   15     7.897e-07  Converged.
   ... Converged in 15 steps (norm: 7.89737e-07)
------------------------------------
  Starting TPA DIIS iterations ... 
------------------------------------ 
   It     Res. Norm  Remark
------------------------------------
                       Guess.
    1     7.954e+00  
    2     1.305e+01  
    3     2.094e+00  
    4     7.482e-01  
    5     2.089e-01  
    6     9.443e-02  
    7     2.744e-02  
    8     4.940e-03  
    9     1.954e-03  
   10     3.376e-04  
   11     1.165e-04  
   12     1.884e-05  
   13     6.783e-06  
   14     2.311e-06  
   15     7.455e-07  Converged.
   ... Converged in 15 steps (norm: 7.45523e-07)
------------------------------------
  Starting TPA DIIS iterations ... 
------------------------------------ 
   It     Res. Norm  Remark
------------------------------------
                       Guess.
    1     8.095e-01  
    2     6.875e-01  
    3     2.978e-01  
    4     2.137e-01  
    5     3.937e-02  
    6     1.770e-02  
    7     3.834e-03  
    8     1.629e-03  
    9     5.275e-04  
   10     5.208e-05  
   11     2.332e-05  
   12     8.636e-06  
   13     8.831e-06  
   14     4.047e-06  
   15     1.900e-06  
   16     8.974e-07  Converged.
   ... Converged in 16 steps (norm: 8.97351e-07)
------------------------------------
  Starting TPA DIIS iterations ... 
------------------------------------ 
   It     Res. Norm  Remark
------------------------------------
                       Guess.
    1     1.032e+01  
    2     1.804e+01  
    3     2.698e+00  
    4     1.033e+00  
    5     2.919e-01  
    6     1.319e-01  
    7     3.873e-02  
    8     6.646e-03  
    9     2.737e-03  
   10     4.763e-04  
   11     1.648e-04  
   12     2.781e-05  
   13     9.913e-06  
   14     3.763e-06  
   15     1.304e-06  
   16     7.222e-07  Converged.
   ... Converged in 16 steps (norm: 7.22193e-07)
------------------------------------
  Starting TPA DIIS iterations ... 
------------------------------------ 
   It     Res. Norm  Remark
------------------------------------
                       Guess.
    1     9.721e+00  
    2     1.700e+01  
    3     2.568e+00  
    4     1.026e+00  
    5     2.913e-01  
    6     1.348e-01  
    7     3.850e-02  
    8     6.896e-03  
    9     2.781e-03  
   10     4.813e-04  
   11     1.657e-04  
   12     2.772e-05  
   13     9.864e-06  
   14     3.850e-06  
   15     1.236e-06  
   16     8.272e-07  Converged.
   ... Converged in 16 steps (norm: 8.27195e-07)
------------------------------------
  Starting TPA DIIS iterations ... 
------------------------------------ 
   It     Res. Norm  Remark
------------------------------------
                       Guess.
    1     8.451e-01  
    2     7.621e-01  
    3     3.494e-01  
    4     2.986e-01  
    5     5.052e-02  
    6     2.369e-02  
    7     5.591e-03  
    8     1.865e-03  
    9     6.889e-04  
   10     7.505e-05  
   11     3.555e-05  
   12     1.333e-05  
   13     1.418e-05  
   14     7.120e-06  
   15     3.835e-06  
   16     1.732e-06  
   17     7.722e-07  Converged.
   ... Converged in 17 steps (norm: 7.72189e-07)
------------------------------------
  Starting TPA DIIS iterations ... 
------------------------------------ 
   It     Res. Norm  Remark
------------------------------------
                       Guess.
    1     1.124e+01  
    2     2.017e+01  
    3     2.937e+00  
    4     1.177e+00  
    5     3.348e-01  
    6     1.526e-01  
    7     4.451e-02  
    8     7.620e-03  
    9     3.167e-03  
   10     5.507e-04  
   11     1.898e-04  
   12     3.258e-05  
   13     1.158e-05  
   14     4.651e-06  
   15     1.636e-06  
   16     9.663e-07  Converged.
   ... Converged in 16 steps (norm: 9.66325e-07)
------------------------------------
  Starting TPA DIIS iterations ... 
------------------------------------ 
   It     Res. Norm  Remark
------------------------------------
                       Guess.
    1     1.058e+01  
    2     1.900e+01  
    3     2.795e+00  
    4     1.168e+00  
    5     3.342e-01  
    6     1.561e-01  
    7     4.425e-02  
    8     7.909e-03  
    9     3.215e-03  
   10     5.563e-04  
   11     1.905e-04  
   12     3.254e-05  
   13     1.148e-05  
   14     4.768e-06  
   15     1.565e-06  
   16     1.114e-06  
   17     3.450e-07  Converged.
   ... Converged in 17 steps (norm: 3.44955e-07)
------------------------------------
  Starting TPA DIIS iterations ... 
------------------------------------ 
   It     Res. Norm  Remark
------------------------------------
                       Guess.
    1     8.600e-01  
    2     7.959e-01  
    3     3.733e-01  
    4     3.390e-01  
    5     5.618e-02  
    6     2.658e-02  
    7     6.503e-03  
    8     1.926e-03  
    9     7.635e-04  
   10     8.790e-05  
   11     4.237e-05  
   12     1.602e-05  
   13     1.703e-05  
   14     8.898e-06  
   15     5.016e-06  
   16     2.249e-06  
   17     1.073e-06  
   18     3.474e-07  Converged.
   ... Converged in 18 steps (norm: 3.47354e-07)
------------------------------------
  Starting TPA DIIS iterations ... 
------------------------------------ 
   It     Res. Norm  Remark
------------------------------------
                       Guess.
    1     1.197e+01  
    2     2.192e+01  
    3     3.126e+00  
    4     1.296e+00  
    5     3.702e-01  
    6     1.698e-01  
    7     4.928e-02  
    8     8.424e-03  
    9     3.524e-03  
   10     6.123e-04  
   11     2.102e-04  
   12     3.662e-05  
   13     1.300e-05  
   14     5.438e-06  
   15     1.952e-06  
   16     1.197e-06  
   17     2.966e-07  Converged.
   ... Converged in 17 steps (norm: 2.96636e-07)
------------------------------------
  Starting TPA DIIS iterations ... 
------------------------------------ 
   It     Res. Norm  Remark
------------------------------------
                       Guess.
    1     1.127e+01  
    2     2.065e+01  
    3     2.975e+00  
    4     1.285e+00  
    5     3.696e-01  
    6     1.738e-01  
    7     4.900e-02  
    8     8.745e-03  
    9     3.576e-03  
   10     6.183e-04  
   11     2.107e-04  
   12     3.666e-05  
   13     1.287e-05  
   14     5.580e-06  
   15     1.884e-06  
   16     1.385e-06  
   17     4.334e-07  Converged.
   ... Converged in 17 steps (norm: 4.33448e-07)
------------------------------------
  Starting TPA DIIS iterations ... 
------------------------------------ 
   It     Res. Norm  Remark
------------------------------------
                       Guess.
    1     8.710e-01  
    2     8.218e-01  
    3     3.920e-01  
    4     3.701e-01  
    5     6.080e-02  
    6     2.883e-02  
    7     7.248e-03  
    8     1.962e-03  
    9     8.218e-04  
   10     9.848e-05  
   11     4.819e-05  
   12     1.843e-05  
   13     1.947e-05  
   14     1.044e-05  
   15     6.068e-06  
   16     2.712e-06  
   17     1.342e-06  
   18     4.132e-07  Converged.
   ... Converged in 18 steps (norm: 4.13249e-07)
------------------------------------
  Two-photon absorbption ...  CPU 285.33 s  wall 127.18 s
  Transition density matrix of state singlet_A_1 printed to ASCII file 'State_singlet_A_1_Transition.txt'
  Transition density matrix of state singlet_A_2 printed to ASCII file 'State_singlet_A_2_Transition.txt'
  Transition density matrix of state singlet_A_3 printed to ASCII file 'State_singlet_A_3_Transition.txt'
  Transition density matrix of state singlet_A_4 printed to ASCII file 'State_singlet_A_4_Transition.txt'
  Transition density matrix of state singlet_A_5 printed to ASCII file 'State_singlet_A_5_Transition.txt'
  Transition density matrix of state singlet_A_6 printed to ASCII file 'State_singlet_A_6_Transition.txt'
  Transition density matrix of state singlet_A_7 printed to ASCII file 'State_singlet_A_7_Transition.txt'
  Transition density matrix of state singlet_A_8 printed to ASCII file 'State_singlet_A_8_Transition.txt'
  Transition density matrix of state singlet_A_9 printed to ASCII file 'State_singlet_A_9_Transition.txt'
  Transition density matrix of state singlet_A_10 printed to ASCII file 'State_singlet_A_10_Transition.txt'
  Transition properties ...  CPU 0.22 s  wall 0.50 s
  Difference density matrix of state singlet_A_1 printed to ASCII file 'State_singlet_A_1_Difference.txt'
  Total density matrix of state singlet_A_1 printed to ASCII file 'State_singlet_A_1_Total.txt'
  Difference density matrix of state singlet_A_2 printed to ASCII file 'State_singlet_A_2_Difference.txt'
  Total density matrix of state singlet_A_2 printed to ASCII file 'State_singlet_A_2_Total.txt'
  Difference density matrix of state singlet_A_3 printed to ASCII file 'State_singlet_A_3_Difference.txt'
  Total density matrix of state singlet_A_3 printed to ASCII file 'State_singlet_A_3_Total.txt'
  Difference density matrix of state singlet_A_4 printed to ASCII file 'State_singlet_A_4_Difference.txt'
  Total density matrix of state singlet_A_4 printed to ASCII file 'State_singlet_A_4_Total.txt'
  Difference density matrix of state singlet_A_5 printed to ASCII file 'State_singlet_A_5_Difference.txt'
  Total density matrix of state singlet_A_5 printed to ASCII file 'State_singlet_A_5_Total.txt'
  Difference density matrix of state singlet_A_6 printed to ASCII file 'State_singlet_A_6_Difference.txt'
  Total density matrix of state singlet_A_6 printed to ASCII file 'State_singlet_A_6_Total.txt'
  Difference density matrix of state singlet_A_7 printed to ASCII file 'State_singlet_A_7_Difference.txt'
  Total density matrix of state singlet_A_7 printed to ASCII file 'State_singlet_A_7_Total.txt'
  Difference density matrix of state singlet_A_8 printed to ASCII file 'State_singlet_A_8_Difference.txt'
  Total density matrix of state singlet_A_8 printed to ASCII file 'State_singlet_A_8_Total.txt'
  Difference density matrix of state singlet_A_9 printed to ASCII file 'State_singlet_A_9_Difference.txt'
  Total density matrix of state singlet_A_9 printed to ASCII file 'State_singlet_A_9_Total.txt'
  Difference density matrix of state singlet_A_10 printed to ASCII file 'State_singlet_A_10_Difference.txt'
  Total density matrix of state singlet_A_10 printed to ASCII file 'State_singlet_A_10_Total.txt'
  Properties ...  CPU 0.83 s  wall 0.69 s
  ISR TDMS ...  CPU 60.37 s  wall 25.06 s
  ISR transition properties ...  CPU 0.87 s  wall 0.30 s
  Sum-over-states TPA ...  CPU 0.00 s  wall 0.00 s

--------------------------------------------------------------------------------
                   State-averaged natural transition orbitals
--------------------------------------------------------------------------------
--------------------------------------------------------------------------------
  SA-NTO decomposition ...  CPU 0.01 s  wall 0.02 s

--------------------------------------------------------------------------------
                             Excited State Summary
--------------------------------------------------------------------------------
--------------------------------------------------------------------------------

  Excited state 1 (singlet, A)                                     [converged]
  ----------------------------------------------------------------------------
  Term symbol:  2 (1) A                                     R^2 =  1.26650e-13

  Total energy:                                            -77.9973732492 a.u.
  Excitation energy:                                               8.767104 eV

  Osc. strength:                                                      0.447155
  Trans. dip. moment [a.u.]:           [   1.046463,   -0.993302,   -0.009552]
  <i|r^2|0> [a.u.]:                    [   6.168859,   -0.251798,   -0.000078]
  Two-photon absorption cross-section (SoS) [a.u.]:                   0.001201
  Two-photon absorption matrix (SoS) [a.u.]:
                                       |    0.005277    0.002520   -0.000088 |
                                       |    0.002520    0.009894    0.000596 |
                                       |   -0.000088    0.000596    0.002445 |
  Two-photon absorption cross-section [a.u.]:                         0.000422
  Two-photon absorption matrix [a.u.]:
                                       |   -0.006613   -0.001374    0.000644 |
                                       |   -0.001374   -0.002945    0.001929 |
                                       |    0.000644    0.001929    0.000522 |

  Dip. moment [a.u.]:                  [  -0.000930,   -0.000012,    0.000306]
  Total dipole [Debye]:                                               0.002487
  <r^2> [a.u.]:                        [ 176.116552,   35.576162,   11.867973]
  Total <r^2> [a.u.]:                                               223.560687

  V1^2 = 0.9715, V2^2 = 0.0285

  Important amplitudes:
      occ i     occ j     vir a      vir b          v   
    -----------------------------------------------------
     8 (A) A              9 (A) A                 0.6811
     6 (A) A             14 (A) A                 0.0616
     4 (A) A             10 (A) A                 0.0610
     7 (A) A             16 (A) A                 0.0572
     5 (A) A             13 (A) A                -0.0516
     6 (A) A             23 (A) A                 0.0485
     8 (A) A             20 (A) A                 0.0348
     6 (A) A             19 (A) A                -0.0302
     3 (A) A             12 (A) A                -0.0281
     5 (A) A             22 (A) A                -0.0216
     7 (A) A             11 (A) A                -0.0206
     4 (A) A             24 (A) A                 0.0188
     3 (A) A             26 (A) A                -0.0186
     8 (A) A   8 (A) B   17 (A) A   20 (A) B     -0.0183
     8 (A) A   8 (A) B    9 (A) A   28 (A) B     -0.0168
     6 (A) A             26 (A) A                 0.0164
     7 (A) A             21 (A) A                 0.0149
     3 (A) A             14 (A) A                -0.0139
     6 (A) A             12 (A) A                -0.0138
     3 (A) A   4 (A) B    9 (A) A    9 (A) B     -0.0129
     3 (A) A             19 (A) A                 0.0118
     8 (A) A   8 (A) B   18 (A) A   19 (A) B     -0.0112
     7 (A) A             32 (A) A                 0.0096
     7 (A) A             36 (A) A                 0.0086
     3 (A) A             23 (A) A                -0.0080
     8 (A) A   8 (A) B   25 (A) A   29 (A) B      0.0076
     6 (A) A             35 (A) A                 0.0071
     6 (A) A             40 (A) A                 0.0068
     3 (A) A   6 (A) B    9 (A) A   28 (A) B      0.0065
     6 (A) A   8 (A) A   19 (A) A   28 (A) A     -0.0060
     5 (A) A   7 (A) B    9 (A) A    9 (A) B     -0.0060
     5 (A) A   8 (A) B   11 (A) A   20 (A) B      0.0059
     5 (A) A   8 (A) B   11 (A) A    9 (A) B     -0.0059
     7 (A) A   8 (A) B   13 (A) A   20 (A) B      0.0059
     5 (A) A   8 (A) B   16 (A) A    9 (A) B     -0.0059
     3 (A) A   5 (A) B    9 (A) A   25 (A) B     -0.0058
     3 (A) A             40 (A) A                -0.0057
     7 (A) A   8 (A) B   22 (A) A   20 (A) B      0.0057
     6 (A) A   8 (A) A    9 (A) A   18 (A) A      0.0056
     8 (A) A   8 (A) B   19 (A) A   30 (A) B     -0.0056
    -----------------------------------------------------

  Density matrix analysis:
  ------------------------
  NOs
    Occupation of frontier NOs:
       0.9495   1.0217
    Number of electrons: 16.000000
    Number of unpaired electrons: n_u =  2.31328, n_u,nl =  2.03254
    NO participation ratio (PR_NO):  2.863608
  
  
  Mulliken Population Analysis
  Atom      Charge (e)              h+              e-           Del q
  --------------------------------------------------------------------
   1 H        0.058822        0.020457       -0.012533        0.007924
   2 C       -0.114523        0.491158       -0.506520       -0.015361
   3 H        0.057820        0.020274       -0.012638        0.007636
   4 C       -0.118741        0.490918       -0.506901       -0.015983
   5 H        0.058467        0.020354       -0.012561        0.007794
   6 H        0.058156        0.020482       -0.012492        0.007990
  --------------------------------------------------------------------
  Sum:        0.000000        1.063644       -1.063644        0.000000
  
  Multipole moment analysis of the density matrix
    Molecular charge:                      0.000000
    Number of electrons:                   16.000000
      Center of electronic charge [Ang]: [ -1.560545,  -0.067477,   0.001968]
    Total nuclear charge:                  16.000000
      Center of nuclear charge [Ang]:    [ -1.560576,  -0.067477,   0.001978]
    Dipole moment [D]:                     0.002487
      Cartesian components [D]:          [ -0.002363,  -0.000030,   0.000777]
    RMS size of the density [Ang]:         1.213611
      Cartesian components [Ang]:        [  0.804395,   0.786189,   0.455749]
  
  Exciton analysis of the difference density matrix
    <r_h> [Ang]:                  [ -1.560190,  -0.068073,   0.001802]
    <r_e> [Ang]:                  [ -1.560317,  -0.068007,   0.001768]
    |<r_e - r_h>| [Ang]:            0.000147
    Hole size [Ang]:                1.285000
      Cartesian components [Ang]: [  0.728836,   0.711851,   0.783130]
    Electron size [Ang]:            1.463326
      Cartesian components [Ang]: [  0.855083,   0.829233,   0.850017]

  Transition density matrix analysis:
  -----------------------------------
  
  CT numbers (Mulliken)
    omega =     0.9535
    <Phe> =    -0.1598
  
  Exciton analysis of the transition density matrix
    Trans. dipole moment [D]:             1.833683
      Cartesian components [D]:         [  1.329922,  -1.262360,  -0.012139]
    <r_h> [Ang]:                        [ -1.559964,  -0.068407,   0.001824]
    <r_e> [Ang]:                        [ -1.560334,  -0.067954,   0.001749]
    |<r_e - r_h>| [Ang]:                  0.000589
    Hole size [Ang]:                      1.212842
      Cartesian components [Ang]:       [  0.649199,   0.634923,   0.803989]
    Electron size [Ang]:                  1.486617
      Cartesian components [Ang]:       [  0.865791,   0.838291,   0.870463]
    RMS electron-hole separation [Ang]:   1.935741
      Cartesian components [Ang]:       [  1.107416,   1.072533,   1.170640]
    Covariance(r_h, r_e) [Ang^2]:        -0.033039
    Correlation coefficient:             -0.018324
    Center-of-mass size [Ang]:            0.950650
      Cartesian components [Ang]:       [  0.528142,   0.515119,   0.599544]

  Decomposition into state-averaged NTOs
    H- 0 -> L+ 0: -0.6700 ( 89.8%)
    H- 2 -> L+ 5: -0.0829 (  1.4%)
                   omega =  95.4%
  ----------------------------------------------------------------------------


  Excited state 2 (singlet, A)                                     [converged]
  ----------------------------------------------------------------------------
  Term symbol:  3 (1) A                                     R^2 =  1.51207e-13

  Total energy:                                            -77.9869276022 a.u.
  Excitation energy:                                               9.051344 eV

  Osc. strength:                                                      0.000015
  Trans. dip. moment [a.u.]:           [   0.003794,   -0.003210,   -0.006509]
  <i|r^2|0> [a.u.]:                    [  -0.039755,   -0.089490,    0.150848]
  Two-photon absorption cross-section (SoS) [a.u.]:                   4.774631
  Two-photon absorption matrix (SoS) [a.u.]:
                                       |   -0.049995   -0.057847    0.526928 |
                                       |   -0.057847   -0.066215    0.552826 |
                                       |    0.526928    0.552826    0.116366 |
  Two-photon absorption cross-section [a.u.]:                         0.090158
  Two-photon absorption matrix [a.u.]:
                                       |    0.004303    0.007219   -0.046514 |
                                       |    0.007219    0.011464   -0.094107 |
                                       |   -0.046514   -0.094107   -0.015674 |

  Dip. moment [a.u.]:                  [  -0.021055,    0.007476,    0.000109]
  Total dipole [Debye]:                                               0.056789
  <r^2> [a.u.]:                        [ 174.467876,   33.837094,   13.170772]
  Total <r^2> [a.u.]:                                               221.475741

  V1^2 = 0.9543, V2^2 = 0.0457

  Important amplitudes:
      occ i     occ j     vir a      vir b          v   
    -----------------------------------------------------
     7 (A) A              9 (A) A                 0.6693
     8 (A) A             11 (A) A                -0.1477
     7 (A) A             20 (A) A                 0.0760
     5 (A) A   8 (A) B    9 (A) A    9 (A) B     -0.0315
     8 (A) A             16 (A) A                -0.0273
     8 (A) A             21 (A) A                 0.0175
     5 (A) A             28 (A) A                -0.0151
     4 (A) A   7 (A) B    9 (A) A   19 (A) B     -0.0135
     5 (A) A   7 (A) B    9 (A) A   16 (A) B      0.0134
     8 (A) A             10 (A) A                 0.0120
     7 (A) A   8 (A) B   20 (A) A   17 (A) B     -0.0105
     7 (A) A   8 (A) A    9 (A) A   28 (A) A      0.0098
     5 (A) A   8 (A) B    9 (A) A   20 (A) B     -0.0095
     4 (A) A   6 (A) B    9 (A) A   16 (A) B      0.0091
     5 (A) A   6 (A) A    9 (A) A   23 (A) A      0.0091
     5 (A) A   6 (A) A    9 (A) A   14 (A) A      0.0088
     5 (A) A   6 (A) B    9 (A) A   19 (A) B     -0.0086
     8 (A) A   7 (A) B    9 (A) A   28 (A) B     -0.0085
     4 (A) A   5 (A) A    9 (A) A   10 (A) A     -0.0084
     6 (A) A   7 (A) B    9 (A) A   18 (A) B      0.0084
     5 (A) A   6 (A) B    9 (A) A   23 (A) B      0.0080
     3 (A) A   7 (A) B    9 (A) A   18 (A) B      0.0080
     5 (A) A   7 (A) A    9 (A) A   16 (A) A      0.0079
     4 (A) A   8 (A) B    9 (A) A   25 (A) B     -0.0077
     4 (A) A   7 (A) B   19 (A) A    9 (A) B     -0.0074
     7 (A) A   8 (A) B   17 (A) A   20 (A) B     -0.0074
     5 (A) A   5 (A) B    9 (A) A   13 (A) B     -0.0072
     7 (A) A   8 (A) B   19 (A) A   18 (A) B     -0.0072
     5 (A) A   8 (A) A    9 (A) A   20 (A) A     -0.0069
     4 (A) A   5 (A) B    9 (A) A   18 (A) B      0.0068
     7 (A) A   7 (A) B   20 (A) A   22 (A) B      0.0065
     7 (A) A   8 (A) B   17 (A) A    9 (A) B     -0.0064
     5 (A) A   6 (A) B    9 (A) A   14 (A) B      0.0062
     4 (A) A   7 (A) A    9 (A) A   19 (A) A     -0.0061
     4 (A) A   5 (A) B   10 (A) A    9 (A) B      0.0061
     5 (A) A   7 (A) B   11 (A) A   20 (A) B      0.0060
     4 (A) A   7 (A) B    9 (A) A   14 (A) B     -0.0060
     5 (A) A             38 (A) A                -0.0059
     8 (A) A             12 (A) A                -0.0059
     4 (A) A   8 (A) A    9 (A) A   25 (A) A     -0.0057
    -----------------------------------------------------

  Density matrix analysis:
  ------------------------
  NOs
    Occupation of frontier NOs:
       0.9579   1.0535
    Number of electrons: 16.000000
    Number of unpaired electrons: n_u =  2.35489, n_u,nl =  2.06259
    NO participation ratio (PR_NO):  3.026027
  
  
  Mulliken Population Analysis
  Atom      Charge (e)              h+              e-           Del q
  --------------------------------------------------------------------
   1 H        0.143774        0.118928       -0.026051        0.092876
   2 C       -0.300902        0.269274       -0.471014       -0.201740
   3 H        0.155290        0.127990       -0.022884        0.105106
   4 C       -0.303813        0.274575       -0.475629       -0.201054
   5 H        0.156684        0.132791       -0.026780        0.106011
   6 H        0.148967        0.120648       -0.021847        0.098801
  --------------------------------------------------------------------
  Sum:        0.000000        1.044206       -1.044206       -0.000000
  
  Multipole moment analysis of the density matrix
    Molecular charge:                      0.000000
    Number of electrons:                   16.000000
      Center of electronic charge [Ang]: [ -1.559880,  -0.067725,   0.001975]
    Total nuclear charge:                  16.000000
      Center of nuclear charge [Ang]:    [ -1.560576,  -0.067477,   0.001978]
    Dipole moment [D]:                     0.056789
      Cartesian components [D]:          [ -0.053516,   0.019001,   0.000278]
    RMS size of the density [Ang]:         1.199335
      Cartesian components [Ang]:        [  0.787574,   0.766566,   0.480113]
  
  Exciton analysis of the difference density matrix
    <r_h> [Ang]:                  [ -1.566791,  -0.056874,   0.002359]
    <r_e> [Ang]:                  [ -1.556721,  -0.060602,   0.002424]
    |<r_e - r_h>| [Ang]:            0.010738
    Hole size [Ang]:                1.486456
      Cartesian components [Ang]: [  0.990919,   1.010467,   0.454519]
    Electron size [Ang]:            1.476839
      Cartesian components [Ang]: [  0.880529,   0.859353,   0.816844]

  Transition density matrix analysis:
  -----------------------------------
  
  CT numbers (Mulliken)
    omega =     0.9220
    <Phe> =    -0.0121
  
  Exciton analysis of the transition density matrix
    Trans. dipole moment [D]:             0.010407
      Cartesian components [D]:         [  0.004821,  -0.004080,  -0.008272]
    <r_h> [Ang]:                        [ -1.568183,  -0.055490,   0.002411]
    <r_e> [Ang]:                        [ -1.555321,  -0.061388,   0.002398]
    |<r_e - r_h>| [Ang]:                  0.014150
    Hole size [Ang]:                      1.515181
      Cartesian components [Ang]:       [  1.012575,   1.035928,   0.444205]
    Electron size [Ang]:                  1.473893
      Cartesian components [Ang]:       [  0.871347,   0.848372,   0.832695]
    RMS electron-hole separation [Ang]:   2.094028
      Cartesian components [Ang]:       [  1.320022,   1.324087,   0.943020]
    Covariance(r_h, r_e) [Ang^2]:         0.041691
    Correlation coefficient:              0.018669
    Center-of-mass size [Ang]:            1.066714
      Cartesian components [Ang]:       [  0.675798,   0.676866,   0.472258]

  Decomposition into state-averaged NTOs
    H- 1 -> L+ 0: -0.6617 ( 87.6%)
    H- 0 -> L+ 2:  0.1479 (  4.4%)
                   omega =  92.2%
  ----------------------------------------------------------------------------


  Excited state 3 (singlet, A)                                     [converged]
  ----------------------------------------------------------------------------
  Term symbol:  4 (1) A                                     R^2 =  1.39262e-13

  Total energy:                                            -77.9820047007 a.u.
  Excitation energy:                                               9.185303 eV

  Osc. strength:                                                      0.025076
  Trans. dip. moment [a.u.]:           [   0.015630,    0.019925,   -0.332851]
  <i|r^2|0> [a.u.]:                    [   0.094750,    0.004444,    0.000217]
  Two-photon absorption cross-section (SoS) [a.u.]:                   0.002209
  Two-photon absorption matrix (SoS) [a.u.]:
                                       |    0.011631    0.000056   -0.001193 |
                                       |    0.000056   -0.012447    0.010938 |
                                       |   -0.001193    0.010938    0.003886 |
  Two-photon absorption cross-section [a.u.]:                         0.003414
  Two-photon absorption matrix [a.u.]:
                                       |    0.009512   -0.000768   -0.001301 |
                                       |   -0.000768   -0.009256    0.018048 |
                                       |   -0.001301    0.018048    0.003690 |

  Dip. moment [a.u.]:                  [  -0.013956,   -0.021590,   -0.002338]
  Total dipole [Debye]:                                               0.065613
  <r^2> [a.u.]:                        [ 180.758480,   40.543171,   11.025552]
  Total <r^2> [a.u.]:                                               232.327204

  V1^2 = 0.9587, V2^2 = 0.0413

  Important amplitudes:
      occ i     occ j     vir a      vir b          v   
    -----------------------------------------------------
     8 (A) A             10 (A) A                 0.6889
     8 (A) A             24 (A) A                 0.0508
     8 (A) A             18 (A) A                -0.0313
     4 (A) A              9 (A) A                 0.0238
     8 (A) A   8 (A) B    9 (A) A   12 (A) B     -0.0219
     8 (A) A   8 (A) B   10 (A) A   17 (A) B      0.0173
     8 (A) A             15 (A) A                 0.0166
     5 (A) A   8 (A) B   11 (A) A   10 (A) B     -0.0166
     7 (A) A   8 (A) B   13 (A) A   10 (A) B     -0.0141
     7 (A) A              9 (A) A                -0.0125
     4 (A) A   8 (A) B   12 (A) A   10 (A) B     -0.0111
     6 (A) A   8 (A) A   10 (A) A   15 (A) A      0.0111
     7 (A) A   8 (A) B   22 (A) A   10 (A) B     -0.0108
     6 (A) A   8 (A) B   15 (A) A   10 (A) B     -0.0108
     4 (A) A   8 (A) A   10 (A) A   12 (A) A      0.0106
     7 (A) A   8 (A) A   10 (A) A   22 (A) A      0.0099
     7 (A) A   8 (A) A   10 (A) A   13 (A) A      0.0098
     5 (A) A   8 (A) A   10 (A) A   11 (A) A      0.0095
     5 (A) A   8 (A) B   21 (A) A   10 (A) B      0.0094
     6 (A) A   8 (A) B   10 (A) A   10 (A) B      0.0087
     6 (A) A   8 (A) A   10 (A) A   18 (A) A      0.0087
     7 (A) A   8 (A) A   12 (A) A   16 (A) A     -0.0082
     5 (A) A   8 (A) A   10 (A) A   21 (A) A     -0.0080
     3 (A) A   4 (A) B   10 (A) A    9 (A) B     -0.0079
     4 (A) A   8 (A) B   19 (A) A   10 (A) B      0.0075
     8 (A) A   8 (A) B    9 (A) A   23 (A) B      0.0074
     8 (A) A   8 (A) B   10 (A) A   28 (A) B     -0.0073
     3 (A) A   8 (A) B   10 (A) A   10 (A) B      0.0072
     5 (A) A   8 (A) B   10 (A) A   11 (A) B     -0.0071
     3 (A) A   8 (A) A   10 (A) A   24 (A) A     -0.0071
     7 (A) A   8 (A) B   16 (A) A   12 (A) B      0.0071
     3 (A) A   8 (A) B   10 (A) A   18 (A) B     -0.0069
     8 (A) A   8 (A) B    9 (A) A   19 (A) B      0.0068
     6 (A) A   8 (A) B   18 (A) A   10 (A) B     -0.0066
     3 (A) A   6 (A) B   10 (A) A   28 (A) B      0.0062
     7 (A) A   8 (A) B   12 (A) A   11 (A) B      0.0058
     6 (A) A             28 (A) A                -0.0057
     3 (A) A   5 (A) B   10 (A) A   25 (A) B     -0.0056
     5 (A) A   8 (A) A   10 (A) A   16 (A) A      0.0056
     3 (A) A   8 (A) A   10 (A) A   18 (A) A     -0.0056
    -----------------------------------------------------

  Density matrix analysis:
  ------------------------
  NOs
    Occupation of frontier NOs:
       0.9818   0.9847
    Number of electrons: 16.000000
    Number of unpaired electrons: n_u =  2.28586, n_u,nl =  2.02452
    NO participation ratio (PR_NO):  2.693069
  
  
  Mulliken Population Analysis
  Atom      Charge (e)              h+              e-           Del q
  --------------------------------------------------------------------
   1 H       -0.164627        0.053748       -0.269273       -0.215525
   2 C        0.328002        0.538044       -0.110880        0.427164
   3 H       -0.161550        0.054170       -0.265904       -0.211734
   4 C        0.325240        0.537923       -0.109924        0.427999
   5 H       -0.166801        0.053997       -0.271471       -0.217474
   6 H       -0.160263        0.054188       -0.264617       -0.210429
  --------------------------------------------------------------------
  Sum:        0.000000        1.292070       -1.292070        0.000000
  
  Multipole moment analysis of the density matrix
    Molecular charge:                      -0.000000
    Number of electrons:                   16.000000
      Center of electronic charge [Ang]: [ -1.560115,  -0.066763,   0.002055]
    Total nuclear charge:                  16.000000
      Center of nuclear charge [Ang]:    [ -1.560576,  -0.067477,   0.001978]
    Dipole moment [D]:                     0.065613
      Cartesian components [D]:          [ -0.035473,  -0.054877,  -0.005942]
    RMS size of the density [Ang]:         1.275822
      Cartesian components [Ang]:        [  0.854188,   0.839714,   0.439275]
  
  Exciton analysis of the difference density matrix
    <r_h> [Ang]:                  [ -1.560524,  -0.067563,   0.001886]
    <r_e> [Ang]:                  [ -1.555293,  -0.058672,   0.002941]
    |<r_e - r_h>| [Ang]:            0.010370
    Hole size [Ang]:                1.409565
      Cartesian components [Ang]: [  0.833949,   0.819167,   0.787633]
    Electron size [Ang]:            2.075576
      Cartesian components [Ang]: [  1.372132,   1.377519,   0.726436]

  Transition density matrix analysis:
  -----------------------------------
  
  CT numbers (Mulliken)
    omega =     0.9260
    <Phe> =    -0.0109
  
  Exciton analysis of the transition density matrix
    Trans. dipole moment [D]:             0.424233
      Cartesian components [D]:         [  0.019864,   0.025323,  -0.423011]
    <r_h> [Ang]:                        [ -1.560531,  -0.069109,   0.001715]
    <r_e> [Ang]:                        [ -1.553410,  -0.055911,   0.003269]
    |<r_e - r_h>| [Ang]:                  0.015077
    Hole size [Ang]:                      1.211589
      Cartesian components [Ang]:       [  0.636201,   0.621962,   0.822411]
    Electron size [Ang]:                  2.296122
      Cartesian components [Ang]:       [  1.516499,   1.525530,   0.803222]
    RMS electron-hole separation [Ang]:   2.586367
      Cartesian components [Ang]:       [  1.637085,   1.640581,   1.147930]
    Covariance(r_h, r_e) [Ang^2]:         0.025530
    Correlation coefficient:              0.009177
    Center-of-mass size [Ang]:            1.302995
      Cartesian components [Ang]:       [  0.825991,   0.827168,   0.575611]

  Decomposition into state-averaged NTOs
    H- 0 -> L+ 1:  0.6795 ( 92.3%)
                   omega =  92.6%
  ----------------------------------------------------------------------------


  Excited state 4 (singlet, A)                                     [converged]
  ----------------------------------------------------------------------------
  Term symbol:  5 (1) A                                     R^2 =  3.34888e-13

  Total energy:                                            -77.9581436631 a.u.
  Excitation energy:                                               9.834595 eV

  Osc. strength:                                                      0.000008
  Trans. dip. moment [a.u.]:           [   0.001488,   -0.000900,   -0.005403]
  <i|r^2|0> [a.u.]:                    [   0.026434,    0.018086,   -0.035927]
  Two-photon absorption cross-section (SoS) [a.u.]:                 147.435948
  Two-photon absorption matrix (SoS) [a.u.]:
                                       |    0.284293    0.322199   -2.983889 |
                                       |    0.322199    0.360976   -3.018013 |
                                       |   -2.983889   -3.018013   -0.645176 |
  Two-photon absorption cross-section [a.u.]:                        89.851709
  Two-photon absorption matrix [a.u.]:
                                       |    0.220581    0.251325   -2.313190 |
                                       |    0.251325    0.283520   -2.371900 |
                                       |   -2.313190   -2.371900   -0.504026 |

  Dip. moment [a.u.]:                  [   0.029400,    0.029913,    0.002752]
  Total dipole [Debye]:                                               0.106835
  <r^2> [a.u.]:                        [ 181.375690,   40.540046,   10.758364]
  Total <r^2> [a.u.]:                                               232.674100

  V1^2 = 0.9635, V2^2 = 0.0365

  Important amplitudes:
      occ i     occ j     vir a      vir b          v   
    -----------------------------------------------------
     8 (A) A             11 (A) A                 0.6697
     7 (A) A              9 (A) A                 0.1497
     8 (A) A             21 (A) A                -0.0781
     8 (A) A             16 (A) A                 0.0650
     8 (A) A   8 (A) B    9 (A) A   13 (A) B      0.0166
     5 (A) A   8 (A) B   11 (A) A   11 (A) B     -0.0156
     8 (A) A   8 (A) B   11 (A) A   17 (A) B      0.0140
     7 (A) A             20 (A) A                 0.0137
     7 (A) A   8 (A) B   13 (A) A   11 (A) B     -0.0128
     8 (A) A             12 (A) A                 0.0114
     5 (A) A   8 (A) A   11 (A) A   21 (A) A     -0.0110
     4 (A) A   8 (A) B   12 (A) A   11 (A) B     -0.0110
     8 (A) A   8 (A) B    9 (A) A   22 (A) B      0.0107
     7 (A) A   8 (A) A   11 (A) A   22 (A) A      0.0096
     6 (A) A              9 (A) A                 0.0093
     6 (A) A   8 (A) B   15 (A) A   11 (A) B     -0.0090
     6 (A) A   8 (A) B   10 (A) A   11 (A) B      0.0090
     7 (A) A   8 (A) B   22 (A) A   11 (A) B     -0.0089
     3 (A) A   4 (A) B   11 (A) A    9 (A) B     -0.0083
     3 (A) A   8 (A) B   11 (A) A   18 (A) B     -0.0081
     6 (A) A   8 (A) A   11 (A) A   15 (A) A      0.0080
     7 (A) A   8 (A) A   13 (A) A   16 (A) A      0.0078
     7 (A) A   8 (A) A   11 (A) A   13 (A) A      0.0077
     5 (A) A   8 (A) B   21 (A) A   11 (A) B      0.0071
     4 (A) A   8 (A) B   19 (A) A   11 (A) B      0.0070
     5 (A) A   8 (A) B    9 (A) A    9 (A) B     -0.0067
     4 (A) A   8 (A) A   11 (A) A   12 (A) A      0.0062
     6 (A) A   8 (A) A   11 (A) A   18 (A) A      0.0062
     3 (A) A   6 (A) B   11 (A) A   28 (A) B      0.0060
     6 (A) A   8 (A) B   18 (A) A   11 (A) B     -0.0059
     7 (A) A   8 (A) B   16 (A) A   13 (A) B     -0.0057
     3 (A) A   8 (A) A   11 (A) A   18 (A) A     -0.0056
     5 (A) A   8 (A) B   10 (A) A   10 (A) B     -0.0056
     3 (A) A   8 (A) B   11 (A) A   30 (A) B     -0.0055
     3 (A) A   5 (A) B   11 (A) A   25 (A) B     -0.0055
     6 (A) A   8 (A) B   11 (A) A   10 (A) B      0.0054
     7 (A) A   8 (A) B   12 (A) A   10 (A) B      0.0054
     8 (A) A   8 (A) B   20 (A) A   22 (A) B      0.0053
     3 (A) A   8 (A) A   11 (A) A   24 (A) A     -0.0053
     5 (A) A   8 (A) A   11 (A) A   16 (A) A      0.0049
    -----------------------------------------------------

  Density matrix analysis:
  ------------------------
  NOs
    Occupation of frontier NOs:
       0.9411   1.0275
    Number of electrons: 16.000000
    Number of unpaired electrons: n_u =  2.31888, n_u,nl =  2.04884
    NO participation ratio (PR_NO):  2.912201
  
  
  Mulliken Population Analysis
  Atom      Charge (e)              h+              e-           Del q
  --------------------------------------------------------------------
   1 H       -0.135799        0.045408       -0.232104       -0.186696
   2 C        0.275916        0.497073       -0.121995        0.375078
   3 H       -0.138741        0.047105       -0.236030       -0.188925
   4 C        0.270951        0.497427       -0.123717        0.373710
   5 H       -0.125446        0.047209       -0.223328       -0.176119
   6 H       -0.146882        0.045652       -0.242699       -0.197047
  --------------------------------------------------------------------
  Sum:        0.000000        1.179872       -1.179872        0.000000
  
  Multipole moment analysis of the density matrix
    Molecular charge:                      0.000000
    Number of electrons:                   16.000000
      Center of electronic charge [Ang]: [ -1.561549,  -0.068467,   0.001887]
    Total nuclear charge:                  16.000000
      Center of nuclear charge [Ang]:    [ -1.560576,  -0.067477,   0.001978]
    Dipole moment [D]:                     0.106835
      Cartesian components [D]:          [  0.074726,   0.076032,   0.006995]
    RMS size of the density [Ang]:         1.276357
      Cartesian components [Ang]:        [  0.857883,   0.839545,   0.433920]
  
  Exciton analysis of the difference density matrix
    <r_h> [Ang]:                  [ -1.561564,  -0.068278,   0.001782]
    <r_e> [Ang]:                  [ -1.575281,  -0.081641,   0.000654]
    |<r_e - r_h>| [Ang]:            0.019183
    Hole size [Ang]:                1.393581
      Cartesian components [Ang]: [  0.816812,   0.806563,   0.790154]
    Electron size [Ang]:            2.121831
      Cartesian components [Ang]: [  1.432818,   1.410576,   0.677842]

  Transition density matrix analysis:
  -----------------------------------
  
  CT numbers (Mulliken)
    omega =     0.9299
    <Phe> =    -0.0136
  
  Exciton analysis of the transition density matrix
    Trans. dipole moment [D]:             0.007214
      Cartesian components [D]:         [  0.001891,  -0.001144,  -0.006867]
    <r_h> [Ang]:                        [ -1.560561,  -0.067657,   0.001812]
    <r_e> [Ang]:                        [ -1.578348,  -0.084009,   0.000412]
    |<r_e - r_h>| [Ang]:                  0.024202
    Hole size [Ang]:                      1.226440
      Cartesian components [Ang]:       [  0.656290,   0.649530,   0.807186]
    Electron size [Ang]:                  2.259925
      Cartesian components [Ang]:       [  1.526237,   1.503122,   0.720059]
    RMS electron-hole separation [Ang]:   2.560715
      Cartesian components [Ang]:       [  1.652966,   1.629712,   1.081206]
    Covariance(r_h, r_e) [Ang^2]:         0.027369
    Correlation coefficient:              0.009875
    Center-of-mass size [Ang]:            1.290945
      Cartesian components [Ang]:       [  0.834903,   0.822624,   0.541079]

  Decomposition into state-averaged NTOs
    H- 0 -> L+ 2: -0.6649 ( 88.4%)
    H- 1 -> L+ 0: -0.1477 (  4.4%)
                   omega =  93.0%
  ----------------------------------------------------------------------------


  Excited state 5 (singlet, A)                                     [converged]
  ----------------------------------------------------------------------------
  Term symbol:  6 (1) A                                     R^2 =  2.82782e-13

  Total energy:                                            -77.9434184352 a.u.
  Excitation energy:                                              10.235289 eV

  Osc. strength:                                                      0.000001
  Trans. dip. moment [a.u.]:           [   0.000019,    0.000129,    0.002111]
  <i|r^2|0> [a.u.]:                    [   0.087253,   -0.101012,    0.013901]
  Two-photon absorption cross-section (SoS) [a.u.]:                 192.618248
  Two-photon absorption matrix (SoS) [a.u.]:
                                       |    0.332652    0.047613   -3.513580 |
                                       |    0.047613   -0.405167    3.404365 |
                                       |   -3.513580    3.404365    0.072998 |
  Two-photon absorption cross-section [a.u.]:                        90.735933
  Two-photon absorption matrix [a.u.]:
                                       |    0.226929    0.030998   -2.395095 |
                                       |    0.030998   -0.279884    2.353337 |
[...]
    16   -1.474440789014e-03
    17   -1.742869594609e-03
    18   -1.076022186190e-04
    19   -3.284157521034e-03
    20    1.011267843324e-02
    21    9.235566536257e-01
    22   -3.141065920594e-04
    23    1.383348423648e-02
    24    8.023676588928e-04
    25    7.046858303685e-02
    26   -5.241931537400e-02
    27   -1.399614201828e+00
    28    9.664669891416e-02
    29   -9.488231970630e-02
    30   -1.128737675339e-03
    31    3.848494108474e-01
    32   -3.692009057939e-01
    33   -3.976312018816e-03
    34    1.559401448923e-02
    35   -1.488912760834e-03
    36   -1.755660346958e-03
    37   -3.729912783241e-04
    38   -3.100283585109e-03
    39    1.029920451278e-02
    40    9.382495270499e-01
    41    1.127246319756e-04
    42   -1.386320290030e-02
    43   -8.264390381140e-04
    44    9.578650562124e-03
    45    9.383531456289e-01
    46    1.414613085860e-02
    47    3.173072066046e-04
    48    6.878097427416e-04
Sym=X
Ene= 0.232684
Spin=Alpha
Occup=0
     1   -2.662242056769e-02
     2   -1.219652169558e+00
     3    1.394430579996e-02
     4    3.767368339696e-03
     5    8.782825084016e-04
     6   -2.028807233290e-03
     7    3.013462814859e-03
     8    2.181158843636e-02
     9    1.533335748660e-01
    10    1.599826012432e-01
    11    1.666815208665e-02
    12    5.536608905509e-01
    13    5.602846920660e-01
    14    5.909884902178e-02
    15   -8.962830462123e-05
    16    3.731762577195e-06
    17    3.543621873244e-05
    18   -2.030658650121e-04
    19    1.321930057110e-04
    20    2.577747423952e-02
    21    1.174918329403e+00
    22    2.485871687811e-03
    23    1.382077109390e-02
    24    9.337016620543e-04
    25    2.687071330704e-03
    26   -3.376078971352e-03
    27   -4.192416224216e-02
    28    1.541758066828e-01
    29    1.597784471748e-01
    30    1.690608053742e-02
    31    5.503027651537e-01
    32    5.485632647202e-01
    33    5.910490003333e-02
    34    4.670506102312e-04
    35   -7.024091437562e-05
    36   -4.369925970624e-05
    37   -2.106067105288e-04
    38   -3.597010941937e-04
    39   -2.619839069274e-02
    40   -1.151338473582e+00
    41    2.345916559116e-03
    42    1.349875766524e-02
    43    9.206534820157e-04
    44    2.610890073455e-02
    45    1.220932251445e+00
    46    1.419163309324e-02
    47    3.784366075087e-03
    48    9.018539494722e-04
Sym=X
Ene= 0.239314
Spin=Alpha
Occup=0
     1    1.582900804284e-02
     2    1.062158948045e+00
     3   -1.665677240848e-02
     4   -9.126368009219e-03
     5   -1.336980609732e-03
     6    8.664959513319e-02
     7   -8.007809487830e-02
     8   -1.593809759447e+00
     9   -5.469052788241e-02
    10    5.991485603484e-02
    11    8.592244255648e-04
    12   -2.174296723237e-01
    13    2.362191321386e-01
    14    3.267738418686e-03
    15    2.262725750369e-02
    16   -2.622629083831e-03
    17   -2.971101607133e-03
    18    4.415393931951e-04
    19   -1.290442714430e-02
    20    1.705542821764e-02
    21    1.121073409268e+00
    22    8.500000824127e-03
    23    1.774979512442e-02
    24    1.448446637172e-03
    25   -8.612228625924e-02
    26    7.905691677038e-02
    27    1.585570301150e+00
    28   -5.422131758247e-02
    29    6.100218118646e-02
    30    1.190720254640e-03
    31   -2.177633226948e-01
    32    2.390673399436e-01
    33    4.446406582749e-03
    34   -2.247899568170e-02
    35    2.581206281227e-03
    36    2.981265987541e-03
    37   -5.075216865277e-04
    38    1.270770212407e-02
    39   -1.678630141805e-02
    40   -1.114531664271e+00
    41    8.679054694445e-03
    42    1.754058594516e-02
    43    1.464689110992e-03
    44   -1.600003142533e-02
    45   -1.057735522433e+00
    46   -1.655577707005e-02
    47   -9.264872670816e-03
    48   -1.328015500192e-03
Sym=X
Ene= 0.303450
Spin=Alpha
Occup=0
     1   -2.164528794874e-02
     2    1.694761954872e+00
     3   -2.300277405528e-02
     4    2.490557749735e-04
     5   -1.075310587415e-03
     6   -1.339770073518e-04
     7    2.465165936689e-04
     8   -3.824978175963e-03
     9   -1.340252358692e-01
    10   -1.392654173908e-01
    11   -1.456741362394e-02
    12   -1.145595763893e+00
    13   -1.198328079564e+00
    14   -1.252990471174e-01
    15   -7.393134901558e-05
    16   -1.668561346415e-03
    17    1.858449016671e-03
    18   -3.286558078953e-02
    19   -1.754768621910e-03
    20    2.030268445745e-02
    21   -1.688905621664e+00
    22    1.544989501155e-03
    23   -2.291502556628e-02
    24   -1.279692533851e-03
    25    1.080600094046e-05
    26    4.050037009128e-04
    27   -1.838042285920e-02
    28    1.349143156878e-01
    29    1.403346234989e-01
    30    1.479510083204e-02
    31    1.142302197594e+00
    32    1.196213693851e+00
    33    1.254270800024e-01
    34    1.970210757429e-04
    35   -1.647077138348e-03
    36    1.843425388208e-03
    37   -3.242620099871e-02
    38   -1.945309701397e-03
    39    1.865618169261e-02
    40   -1.682869463406e+00
    41   -1.791928246867e-03
    42    2.284235310230e-02
    43    1.284675566345e-03
    44   -2.083137909102e-02
    45    1.701979416335e+00
    46    2.309289534556e-02
    47   -3.541190687395e-04
    48    1.070245765337e-03
Sym=X
Ene= 0.462827
Spin=Alpha
Occup=0
     1   -1.152235339438e-01
     2   -7.179846043696e-01
     3   -1.583381386039e-02
     4   -1.061931616494e-02
     5   -1.371321229215e-03
     6    6.069343576815e-02
     7    1.835810845600e-02
     8   -3.636017403486e+00
     9    1.013124002104e-01
    10   -9.727388749510e-02
    11   -9.305501739038e-04
    12    2.447930676935e+00
    13   -2.314313587139e+00
    14   -2.149470925263e-02
    15    5.441726481924e-02
    16   -3.408695870981e-03
    17   -4.733198902875e-03
    18   -5.679081334847e-04
    19    1.803176943285e-02
    20   -1.247464973129e-01
    21   -7.005116556394e-01
    22    8.482239614682e-03
    23    1.682252926507e-02
    24    1.397997585966e-03
    25   -6.102231628546e-02
    26   -1.641288289941e-02
    27    3.639987633326e+00
    28    1.046486408226e-01
    29   -1.005009688553e-01
    30   -1.108355174377e-03
    31    2.444730444927e+00
    32   -2.301280619310e+00
    33   -2.152135775791e-02
    34   -5.297672705970e-02
    35    3.226403675701e-03
    36    4.535608606964e-03
    37    4.043495723834e-04
    38   -1.983535319097e-02
    39    1.168304093865e-01
    40    6.987349296605e-01
    41    8.104989854389e-03
    42    1.654093141655e-02
    43    1.371497135544e-03
    44    1.064832192774e-01
    45    7.319305843630e-01
    46   -1.549482220466e-02
    47   -1.018205318961e-02
    48   -1.348748134372e-03
Sym=X
Ene= 0.577055
Spin=Alpha
Occup=0
     1    2.423061990171e-01
     2    4.041058420058e-02
     3   -1.893030876203e-02
     4    2.529488627824e-02
     5    6.017813755589e-04
     6   -4.383170268252e-03
     7   -1.599835902889e-01
     8   -4.840518176145e-01
     9    2.995555971236e-01
    10   -2.897883207596e-01
    11   -3.069338012091e-03
    12   -7.063221277307e-01
    13    6.866268044907e-01
    14    7.367085696394e-03
    15   -5.375996616806e-03
    16    3.720779180038e-03
    17    3.709628312645e-03
    18   -5.564414466826e-03
    19    5.925027493380e-02
    20    2.545294948158e-01
    21    2.131782097228e-02
    22   -2.625450454572e-02
    23    1.644399111245e-02
    24   -2.690796797569e-04
    25   -6.437528382766e-03
    26   -1.614330283755e-01
    27   -3.836157476787e-01
    28   -2.965269375292e-01
    29    2.859358364097e-01
    30    2.965699040773e-03
    31    7.794298418443e-01
    32   -7.475483465065e-01
    33   -7.679288455347e-03
    34   -5.510377512463e-03
    35    3.758576312121e-03
    36    3.688252948099e-03
    37   -4.949319516981e-03
    38    5.918427102302e-02
    39    2.490531526986e-01
    40    4.810412759360e-02
    41    2.773811372556e-02
    42   -1.760785889635e-02
    43    2.590914707931e-04
    44    2.436246686097e-01
    45    7.056567330068e-02
    46    1.897589797306e-02
    47   -2.580774342946e-02
    48   -6.458490952570e-04
Sym=X
Ene= 0.615012
Spin=Alpha
Occup=0
     1   -5.254535963230e-01
     2    1.978273524363e-01
     3   -6.182065702248e-02
     4    3.724838447843e-02
     5   -7.329976320617e-04
     6   -8.948219893550e-04
     7    3.289964233211e-04
     8   -3.748993627689e-02
     9   -4.055607067093e-02
    10   -3.727071854155e-02
    11   -4.165609773303e-03
    12    3.183803348676e-01
    13    2.617269230899e-01
    14    3.038406952402e-02
    15    3.168736810351e-03
    16   -7.661285132578e-03
    17    8.101614749563e-03
    18   -1.475808922389e-01
    19   -6.371199335698e-03
    20    5.029466595336e-01
    21   -2.088939231675e-01
    22    4.214838233751e-02
    23   -5.803405592175e-02
    24   -1.447892549838e-03
    25    7.223285791961e-04
    26    6.537675534274e-04
    27    3.523559417627e-02
    28   -4.035213569690e-02
    29   -3.760338484017e-02
    30   -4.118359359159e-03
    31    3.176574547039e-01
    32    2.659083641482e-01
    33    3.110414292521e-02
    34   -1.744897739968e-03
    35    7.510790885381e-03
    36   -8.561674450030e-03
    37    1.500401134072e-01
    38    5.469526733172e-03
    39   -5.157639628630e-01
    40    2.268465764866e-01
    41    4.113800090153e-02
    42   -5.866732848387e-02
    43   -1.556251498861e-03
    44    5.248940097422e-01
    45   -2.042450383831e-01
    46   -6.186595741120e-02
    47    3.706508228611e-02
    48   -6.967563593701e-04
Sym=X
Ene= 0.688402
Spin=Alpha
Occup=0
     1    1.520660752922e-04
     2   -1.413166154702e-05
     3    1.034919308966e-03
     4    1.241660935749e-03
     5   -2.087797705115e-02
     6    1.212367530229e-05
     7    2.287930977361e-04
     8   -1.309750429085e-04
     9    3.152308041907e-02
    10    3.976178330015e-02
    11   -6.694662952299e-01
    12   -2.888181028540e-02
    13   -3.636127023441e-02
    14    6.136065953679e-01
    15   -1.336818803967e-03
    16    8.295903963956e-02
    17   -7.815014379630e-02
    18   -8.615959390879e-03
    19   -1.201308240441e-03
    20    2.007813953844e-04
    21   -2.233127325614e-04
    22    9.506138729958e-04
    23    1.166853233344e-03
    24   -2.079497145270e-02
    25    1.074982504364e-05
    26    2.412681245690e-04
    27   -1.569863302168e-04
    28    3.182032422238e-02
    29    3.989061485409e-02
    30   -6.693022817546e-01
    31   -2.921672239856e-02
    32   -3.654441400200e-02
    33    6.129171389665e-01
    34    1.176884086323e-03
    35   -8.307472463641e-02
    36    7.821052670165e-02
    37    8.545841297690e-03
    38    1.260186326317e-03
    39    1.781342698283e-04
    40   -2.656053246454e-04
    41    9.809583285140e-04
    42    1.269059558247e-03
    43   -2.009945301793e-02
    44    1.332213876942e-04
    45   -5.092754778503e-05
    46    9.531720542822e-04
    47    1.265700384015e-03
    48   -2.120853018604e-02
Sym=X
Ene= 0.708611
Spin=Alpha
Occup=0
     1   -4.732051791744e-01
     2    1.601061981570e-01
     3   -8.014823191203e-02
     4   -4.452988186692e-02
     5   -6.439184441368e-03
     6   -4.762387054958e-02
     7   -3.201137086397e-01
     8    5.243830511158e-01
     9    2.029176782489e-01
    10   -1.890896957101e-01
    11   -1.927031308715e-03
    12   -1.041866201466e-01
    13    7.763867400104e-02
    14   -5.123491370080e-06
    15    1.928761180533e-01
    16   -2.039050410579e-02
    17   -2.386661065488e-02
    18    3.230966228206e-03
    19   -7.830601603158e-02
    20   -4.804941668387e-01
    21    1.466259510624e-01
    22    4.088097254077e-02
    23    8.080140448531e-02
    24    6.713352353112e-03
    25   -4.671387941937e-02
    26   -3.184801769207e-01
    27    4.530145248834e-01
    28   -2.001274443554e-01
    29    1.908164607842e-01
    30    1.610229526069e-03
    31    5.049691710668e-02
    32   -4.498282635638e-02
    33    6.775071966460e-05
    34    1.942075208328e-01
    35   -2.046308487967e-02
    36   -2.390518919790e-02
    37    2.137845645355e-03
    38   -7.559109015755e-02
    39   -4.774939119510e-01
    40    1.425828014688e-01
    41   -4.106742406582e-02
    42   -8.063042253254e-02
    43   -6.764992707307e-03
    44   -4.776572032777e-01
    45    1.406927046481e-01
    46    8.085668746760e-02
    47    4.371969358525e-02
    48    6.432724845575e-03
Sym=X
Ene= 0.785278
Spin=Alpha
Occup=0
     1   -5.265148228521e-01
     2    4.734768367824e-01
     3   -1.105002143284e-01
     4   -2.643299238663e-02
     5   -6.790270125535e-03
     6   -9.114767247740e-02
     7    2.129059407889e-01
     8    6.621444945688e-01
     9   -1.065823864998e-01
    10    9.997560363694e-02
    11    4.036740487606e-04
    12   -3.354242413582e-01
    13    3.072438369508e-01
    14    3.370678014408e-03
    15    2.071705570979e-01
    16   -1.759330312279e-02
    17   -2.200419771393e-02
    18    2.680756776064e-03
    19   -1.089376911668e-02
    20   -5.390719139332e-01
    21    4.770230981810e-01
    22    2.083793761829e-02
    23    1.139085550136e-01
    24    7.722784015310e-03
    25    9.107757982712e-02
    26   -2.169746059519e-01
    27   -6.698738094740e-01
    28   -1.139432125085e-01
    29    9.677840227009e-02
    30    8.546655461158e-04
    31   -3.126266079414e-01
    32    3.121873471153e-01
    33    2.812359197539e-03
    34   -2.065417832378e-01
    35    1.740820946783e-02
    36    2.224615096622e-02
    37   -3.926632791068e-03
    38    9.448730887444e-03
    39    5.470534973280e-01
    40   -4.898239313832e-01
    41    2.104876387194e-02
    42    1.143438457460e-01
    43    7.838377300225e-03
    44    5.267981180593e-01
    45   -4.565663916031e-01
    46   -1.085099412514e-01
    47   -2.689280623688e-02
    48   -6.745992027212e-03
Sym=X
Ene= 0.808327
Spin=Alpha
Occup=0
     1    3.193171672073e-04
     2   -6.683205873846e-04
     3    1.732436974660e-03
     4    2.015693947829e-03
     5   -3.372209966246e-02
     6    6.052383568270e-05
     7   -1.365106386629e-04
     8   -1.293605405296e-04
     9    3.610165086635e-02
    10    4.501865366512e-02
    11   -7.630055732183e-01
    12   -5.299141198297e-02
    13   -6.691771273668e-02
    14    1.128776486970e+00
    15    8.286434980155e-04
    16   -6.637810084322e-02
    17    6.256376583781e-02
    18    6.940307693971e-03
    19    9.540427213262e-04
    20    3.165463911089e-04
    21   -8.935674675994e-05
    22    1.682415610305e-03
    23    1.987907098377e-03
    24   -3.478228174737e-02
    25   -5.911509231076e-05
    26    1.182146611929e-04
    27    1.410252926157e-04
    28   -3.612471064078e-02
    29   -4.579079703268e-02
    30    7.634021075124e-01
    31    5.383029839640e-02
    32    6.737942402558e-02
    33   -1.128659402241e+00
    34    1.193599641811e-03
    35   -6.633976096928e-02
    36    6.254973129266e-02
    37    6.786065929004e-03
    38    1.013560286027e-03
    39   -3.193931001388e-04
    40    1.024940576138e-04
    41   -1.551602221395e-03
    42   -2.085167524329e-03
    43    3.360729875329e-02
    44   -3.128056056940e-04
    45    6.640944451360e-04
    46   -1.455203236558e-03
    47   -1.999458258645e-03
    48    3.371631591538e-02
Sym=X
Ene= 0.861500
Spin=Alpha
Occup=0
     1    1.379933149860e-02
     2   -1.091797275088e+00
     3    1.478396187270e-01
     4    5.637002035103e-02
     5    1.034215214383e-02
     6    8.866444339522e-04
     7   -6.216796099456e-03
     8    8.570315347969e-03
     9   -4.009858603387e-01
    10   -4.296866962600e-01
    11   -4.421795276023e-02
    12    9.379471961810e-01
    13    9.988157150385e-01
    14    1.030895756568e-01
    15   -2.200825651916e-03
    16    1.172497429020e-02
    17   -1.331507235517e-02
    18    2.339077753718e-01
    19    8.090530967103e-03
    20   -9.061274144368e-03
    21    1.098817796453e+00
    22    5.058150147703e-02
    23    1.495500420366e-01
    24    1.125231176803e-02
    25   -1.230309229541e-03
    26   -1.366693697568e-03
    27   -1.917218497983e-03
    28   -4.049568140498e-01
    29   -4.360351543682e-01
    30   -4.542579936786e-02
    31    9.455937933748e-01
    32    1.011881573870e+00
    33    1.056650566953e-01
    34    3.879705046034e-03
    35   -1.199238325523e-02
    36    1.326835900598e-02
    37   -2.362399423109e-01
    38   -8.713938552846e-03
    39    8.057813392791e-03
    40   -1.104480306531e+00
    41    4.881659244698e-02
    42    1.512439521832e-01
    43    1.135404186933e-02
    44   -1.453091964923e-02
    45    1.095641492476e+00
    46    1.498286396074e-01
    47    5.460644006996e-02
    48    1.033914367208e-02
Sym=X
Ene= 0.936014
Spin=Alpha
Occup=0
     1    1.127338499354e-01
     2   -1.286449308593e+00
     3    1.812814077381e-01
     4   -4.881093033136e-03
     5    8.290663560266e-03
     6   -6.038306637073e-04
     7    1.209517092175e-02
     8   -2.439496845938e-02
     9   -4.796140615252e-01
    10   -4.969844984497e-01
    11   -5.216074358320e-02
    12    1.483860814805e+00
    13    1.530976807226e+00
    14    1.610080019858e-01
    15    2.684585693232e-03
    16    5.807928728078e-03
    17   -7.182257757291e-03
    18    1.214614732819e-01
    19    4.499507227117e-03
    20   -1.200440550065e-01
    21    1.287154387237e+00
    22   -1.202100087603e-02
    23    1.846562976183e-01
    24    1.034939376749e-02
    25    1.052760294261e-03
    26    1.568999549740e-02
    27   -1.033097387228e-02
    28    4.641835963025e-01
    29    5.049637919510e-01
    30    5.211183905559e-02
    31   -1.441266791376e+00
    32   -1.545024599585e+00
    33   -1.604183039974e-01
    34   -2.064335030984e-03
    35    5.698263365364e-03
    36   -7.048871344131e-03
    37    1.189763870408e-01
    38   -1.313368958141e-03
    39   -1.173621450191e-01
    40    1.286815330599e+00
    41    1.190542519231e-02
    42   -1.829595780258e-01
    43   -1.038660701630e-02
    44    1.163432684172e-01
    45   -1.262013760265e+00
    46   -1.792469625677e-01
    47    8.385943562930e-03
    48   -7.983718272118e-03
Sym=X
Ene= 0.974220
Spin=Alpha
Occup=0
     1   -6.101398618576e-02
     2    9.100332123234e-01
     3   -8.884860063661e-02
     4   -9.855707976566e-02
     5   -1.009301654635e-02
     6    2.648503744462e-02
     7    2.580829239156e-01
     8    4.964509704688e-01
     9    4.765887689438e-01
    10   -4.582532190256e-01
    11   -4.539380469594e-03
    12   -1.467316352485e+00
    13    1.415491421571e+00
    14    1.429433200664e-02
    15   -5.583294500998e-02
    16   -1.275288493098e-02
    17   -9.424875862489e-03
    18    1.418723825557e-02
    19   -3.014851761876e-01
    20   -5.596263605002e-02
    21    9.184830111439e-01
    22    9.558639704003e-02
    23    9.379633078289e-02
    24    1.006269542456e-02
    25   -2.637091924570e-02
    26   -2.443241326757e-01
    27   -5.192922143309e-01
    28    4.864924701129e-01
    29   -4.470448987299e-01
    30   -3.751608065708e-03
    31   -1.508220979875e+00
    32    1.376696378367e+00
    33    1.102164023897e-02
    34    5.480945050771e-02
    35    1.278389275384e-02
    36    9.199305510443e-03
    37   -1.085672400995e-02
    38    2.984655207948e-01
    39    5.684112532292e-02
    40   -8.779471541264e-01
    41    9.455399812915e-02
    42    8.878565880981e-02
    43    9.802018291473e-03
    44    6.270819271717e-02
    45   -9.380946466986e-01
    46   -9.249973969327e-02
    47   -9.774917427090e-02
    48   -1.016088107171e-02
[5D]

======= END OF MOLDEN-FORMATTED INPUT FILE =======


        *************************************************************
        *                                                           *
        *  Thank you very much for using Q-Chem.  Have a nice day.  *
        *                                                           *
        *************************************************************


