                  Welcome to Q-Chem
     A Quantum Leap Into The Future Of Chemistry


 Q-Chem 5.4 (devel), Q-Chem, Inc., Pleasanton, CA (2021)

 E. Epifanovsky,  A. T. B. Gilbert,  Xintian Feng,  Joonho Lee,  Yuezhi Mao,  
 N. Mardirossian,  P. Pokhilko,  A. White,  M. Wormit,  M. P. Coons,  
 A. L. Dempwolff,  Zhengting Gan,  D. Hait,  P. R. Horn,  L. D. Jacobson,  
 I. Kaliman,  J. Kussmann,  A. W. Lange,  Ka Un Lao,  D. S. Levine,  Jie Liu,  
 S. C. McKenzie,  A. F. Morrison,  K. Nanda,  F. Plasser,  D. R. Rehn,  
 M. L. Vidal,  Zhi-Qiang You,  Ying Zhu,  B. Alam,  B. Albrecht,  
 A. Aldossary,  E. Alguire,  J. H. Andersen,  D. Barton,  K. Begam,  A. Behn,  
 Y. A. Bernard,  E. J. Berquist,  H. Burton,  A. Carreras,  K. Carter-Fenk,  
 R. Chakraborty,  A. D. Chien,  K. D. Closser,  V. Cofer-Shabica,  
 S. Dasgupta,  Jia Deng,  M. de Wergifosse,  M. Diedenhofen,  Hainam Do,  
 S. Ehlert,  Po-Tung Fang,  S. Fatehi,  Qingguo Feng,  T. Friedhoff,  
 J. Gayvert,  Qinghui Ge,  G. Gidofalvi,  M. Goldey,  J. Gomes,  
 C. Gonzalez-Espinoza,  S. Gulania,  A. Gunina,  M. W. D. Hanson-Heine,  
 P. H. P. Harbach,  A. W. Hauser,  M. F. Herbst,  M. Hernandez Vera,  
 M. Hodecker,  Z. C. Holden,  S. Houck,  Xunkun Huang,  Kerwin Hui,  
 B. C. Huynh,  M. Ivanov,  Hyunjun Ji,  Hanjie Jiang,  B. Kaduk,  S. Kaehler,  
 K. Khistyaev,  Jaehoon Kim,  P. Klunzinger,  Z. Koczor-Benda,  
 Joong Hoon Koh,  D. Kosenkov,  L. Koulias,  T. Kowalczyk,  C. M. Krauter,  
 K. Kue,  A. Kunitsa,  T. Kus,  A. Landau,  K. V. Lawler,  D. Lefrancois,  
 S. Lehtola,  Rain Li,  Yi-Pei Li,  Jiashu Liang,  M. Liebenthal,  
 Hung-Hsuan Lin,  You-Sheng Lin,  Fenglai Liu,  Kuan-Yu Liu,  
 M. Loipersberger,  A. Luenser,  A. Manjanath,  P. Manohar,  E. Mansoor,  
 S. F. Manzer,  Shan-Ping Mao,  A. V. Marenich,  T. Markovich,  S. Mason,  
 S. A. Maurer,  P. F. McLaughlin,  M. F. S. J. Menger,  J.-M. Mewes,  
 S. A. Mewes,  P. Morgante,  J. W. Mullinax,  K. J. Oosterbaan,  G. Paran,  
 Alexander C. Paul,  Suranjan K. Paul,  F. Pavosevic,  Zheng Pei,  S. Prager,  
 E. I. Proynov,  E. Ramos,  B. Rana,  A. E. Rask,  A. Rettig,  R. M. Richard,  
 F. Rob,  E. Rossomme,  T. Scheele,  M. Scheurer,  M. Schneider,  
 N. Sergueev,  S. M. Sharada,  W. Skomorowski,  D. W. Small,  C. J. Stein,  
 Yu-Chuan Su,  E. J. Sundstrom,  Zhen Tao,  J. Thirman,  T. Tsuchimochi,  
 N. M. Tubman,  S. P. Veccham,  O. Vydrov,  J. Wenzel,  J. Witte,  A. Yamada,  
 Kun Yao,  S. Yeganeh,  S. R. Yost,  A. Zech,  Igor Ying Zhang,  Xing Zhang,  
 Yu Zhang,  D. Zuev,  A. Aspuru-Guzik,  A. T. Bell,  N. A. Besley,  
 K. B. Bravaya,  B. R. Brooks,  D. Casanova,  Jeng-Da Chai,  S. Coriani,  
 C. J. Cramer,  A. E. DePrince, III,  R. A. DiStasio Jr.,  A. Dreuw,  
 B. D. Dunietz,  T. R. Furlani,  W. A. Goddard III,  S. Grimme,  
 S. Hammes-Schiffer,  T. Head-Gordon,  W. J. Hehre,  Chao-Ping Hsu,  
 T.-C. Jagau,  Yousung Jung,  A. Klamt,  Jing Kong,  D. S. Lambrecht,  
 WanZhen Liang,  N. J. Mayhall,  C. W. McCurdy,  J. B. Neaton,  
 C. Ochsenfeld,  J. A. Parkhill,  R. Peverati,  V. A. Rassolov,  Yihan Shao,  
 L. V. Slipchenko,  T. Stauch,  R. P. Steele,  J. E. Subotnik,  
 A. J. W. Thom,  A. Tkatchenko,  D. G. Truhlar,  T. Van Voorhis,  
 T. A. Wesolowski,  K. B. Whaley,  H. L. Woodcock III,  P. M. Zimmerman,  
 S. Faraji,  P. M. W. Gill,  M. Head-Gordon,  J. M. Herbert,  A. I. Krylov

 Additional authors for Version 5.4.1: 
 S. Kotaru,  Shaozhi Li,  Xiangyuan Li,  F. Matz,  A. Molle,  Haisheng Ren,  
 Yingli Su,  Hung-Yi Tsai,  C. Utku,  Fang Wang

 Contributors to earlier versions of Q-Chem not listed above: 
 R. D. Adamson,  B. Austin,  R. Baer,  J. Baker,  G. J. O. Beran,  
 K. Brandhorst,  S. T. Brown,  E. F. C. Byrd,  A. K. Chakraborty,  
 G. K. L. Chan,  Chun-Min Chang,  Yunqing Chen,  C.-L. Cheng,  
 Siu Hung Chien,  D. M. Chipman,  D. L. Crittenden,  H. Dachsel,  
 R. J. Doerksen,  A. D. Dutoi,  R. G. Edgar,  J. Fosso-Tande,  
 L. Fusti-Molnar,  D. Ghosh,  A. Ghysels,  A. Golubeva-Zadorozhnaya,  
 J. Gonthier,  M. S. Gordon,  S. R. Gwaltney,  G. Hawkins,  J. E. Herr,  
 A. Heyden,  S. Hirata,  E. G. Hohenstein,  G. Kedziora,  F. J. Keil,  
 C. Kelley,  Jihan Kim,  R. A. King,  R. Z. Khaliullin,  P. P. Korambath,  
 W. Kurlancheek,  A. Laurent,  A. M. Lee,  M. S. Lee,  S. V. Levchenko,  
 Ching Yeh Lin,  D. Liotard,  E. Livshits,  R. C. Lochan,  I. Lotan,  
 L. A. Martinez-Martinez,  P. E. Maslen,  N. Nair,  D. P. O'Neill,  
 D. Neuhauser,  E. Neuscamman,  C. M. Oana,  R. Olivares-Amaya,  R. Olson,  
 T. M. Perrine,  B. Peters,  P. A. Pieniazek,  A. Prociuk,  Y. M. Rhee,  
 J. Ritchie,  M. A. Rohrdanz,  E. Rosta,  N. J. Russ,  H. F. Schaefer III,  
 M. W. Schmidt,  N. E. Schultz,  S. Sharma,  N. Shenvi,  C. D. Sherrill,  
 A. C. Simmonett,  A. Sodt,  T. Stein,  D. Stuck,  K. S. Thanthiriwatte,  
 V. Vanovschi,  L. Vogt,  Tao Wang,  A. Warshel,  M. A. Watson,  
 C. F. Williams,  Q. Wu,  X. Xu,  Jun Yang,  W. Zhang,  Yan Zhao

 Please cite Q-Chem as follows:
 Y. Shao et al., Mol. Phys. 113, 184-215 (2015)
 DOI: 10.1080/00268976.2014.952696

 Q-Chem 5.4.1 for Intel X86 EM64T Linux

 Parts of Q-Chem use Armadillo 9.800.1 (Horizon Scraper).
 http://arma.sourceforge.net/

 Q-Chem begins on Thu Nov 17 15:41:06 2022  

 Host: cpu184.baobab
0

     Scratch files written to /scratch/fum/qchem27690//
 Processing $rem in /home/share/wesolowski/qc5.aug2021.FDE/config/preferences:
 Processing $rem in /home/fum/.qchemrc:

 Checking the input file for inconsistencies... 	...done.

--------------------------------------------------------------
User input:
--------------------------------------------------------------
$comment
generated from CCJob.Templates
$end

$rem
sym_ignore = true
method = adc(2)
ee_states = 10
basis = cc-pVDZ
mem_static = 1024
mem_total = 40000
adc_davidson_maxiter = 900
adc_davidson_conv = 6
adc_print = 3
adc_prop_es = true
adc_prop_es2es = true
adc_prop_tpa = true
molden_format = True
state_analysis = true
print_orbitals = 15
gen_scfman = false
fde_export_density = true
fde_details = 3
$end

$molecule
0 1
H -0.0348278765 -0.2442097827 0.0636489606
C -1.0765972949 -0.5242748755 -0.0023551776
H -1.313264467 -1.5767591607 -0.0757276926
C -2.043634118 0.3926884087 0.0061254933
H -1.8137616575 1.4459188338 0.0804456828
H -3.085977293 0.12493185799999999 -0.0593381042                     
$end
--------------------------------------------------------------
 ----------------------------------------------------------------
             Standard Nuclear Orientation (Angstroms)
    I     Atom           X                Y                Z
 ----------------------------------------------------------------
    1      H      -0.0348278765    -0.2442097827     0.0636489606
    2      C      -1.0765972949    -0.5242748755    -0.0023551776
    3      H      -1.3132644670    -1.5767591607    -0.0757276926
    4      C      -2.0436341180     0.3926884087     0.0061254933
    5      H      -1.8137616575     1.4459188338     0.0804456828
    6      H      -3.0859772930     0.1249318580    -0.0593381042
 ----------------------------------------------------------------
 Nuclear Repulsion Energy =          33.42880921 hartrees
 There are        8 alpha and        8 beta electrons
 Requested basis set is cc-pVDZ
 There are 24 shells and 48 basis functions
 Total memory of 40000 MB is distributed as follows: 
   MEM_STATIC is set to 1024 MB
   QALLOC/CCMAN JOB total memory use is  38976 MB
 Warning: actual memory use might exceed 40000 MB

 Total QAlloc Memory Limit  40000 MB
 Mega-Array Size      1001 MB
 MEM_STATIC part      1024 MB

                       Distance Matrix (Angstroms)
             H (  1)   C (  2)   H (  3)   C (  4)   H (  5)
   C (  2)  1.080776
   H (  3)  1.851895  1.081258
   C (  4)  2.108139  1.332687  2.102109
   H (  5)  2.453859  2.105215  3.067812  1.080583
   H (  6)  3.075858  2.112421  2.457342  1.078174  1.839315

 A cutoff of  1.0D-11 yielded    300 shell pairs
 There are      1220 function pairs (      1329 Cartesian)
 Smallest overlap matrix eigenvalue = 4.80E-03

 Scale SEOQF with 1.000000e-01/1.000000e-01/1.000000e+00

 Standard Electronic Orientation quadrupole field applied
 Nucleus-field energy     =     0.0000000022 hartrees
 Guess from superposition of atomic densities
 Warning:  Energy on first SCF cycle will be non-variational
 SAD guess density has 16.000000 electrons
 A restricted Hartree-Fock SCF calculation will be
 performed using Pulay DIIS extrapolation
 SCF converges when DIIS error is below 1.0E-08
 using 10 threads for integral computing
 -------------------------------------------------------
 OpenMP Integral computing Module                
 Release: version 1.0, May 2013, Q-Chem Inc. Pittsburgh 
 -------------------------------------------------------
 ---------------------------------------
  Cycle       Energy         DIIS Error
 ---------------------------------------
    1     -78.4403089473      1.01E-01
    2     -78.0176680615      7.21E-03
    3     -78.0383037918      1.84E-03
    4     -78.0397867176      5.73E-04
    5     -78.0399082806      5.83E-05
    6     -78.0399101640      1.01E-05
    7     -78.0399102277      3.47E-06
    8     -78.0399102325      1.11E-06
    9     -78.0399102331      9.95E-08
   10     -78.0399102331      2.20E-08
   11     -78.0399102331      6.46E-09 Convergence criterion met
 ---------------------------------------
 SCF time:  CPU 1.52 s  wall 2.95 s
 SCF   energy in the final basis set = -78.03991023
 Total energy in the final basis set = -78.03991023
Exporting Density Matrix to file 'Densmat_SCF.txt'.
Export successful
================================================================================
|                                                                              |
|                                 A D C  M A N                                 |
|                                                                              |
 ------------------------------------------------------------------------------ 
|                                                                              |
| Components:                                                                  |
|                                                                              |
| - libvmm - 1.3-trunk                                                         |
|   Authors:                                                                   |
|   Evgeny Epifanovsky, Ilya Kaliman                                           |
|                                                                              |
| - libtensor - 2.5-trunk                                                      |
|   Authors:                                                                   |
|   Evgeny Epifanovsky, Michael Wormit, Dmitry Zuev, Sam Manzer,               |
|   Ilya Kaliman                                                               |
|                                                                              |
| - libwfa - 1.1-trunk                                                         |
|   Authors:                                                                   |
|   Felix Plasser, Stefanie Mewes (Baeppler), Benjamin Thomitzni,              |
|   Michael Wormit, Feng Chen, Anna I. Krylov, Pavel Pokhilko                  |
|                                                                              |
| - libadc - 1.1-trunk                                                         |
|   Authors:                                                                   |
|   Michael Wormit, Adrian L. Dempwolff, Philipp H. P. Harbach,                |
|   Caroline Krauter, Dirk Rehn, Matthias Schneider, Jan Wenzel                |
|                                                                              |
| - adcman - 2.6-trunk                                                         |
|   Authors:                                                                   |
|   Michael Wormit, Adrian L. Dempwolff, Philipp H. P. Harbach,                |
|   Caroline Krauter, Daniel Lefrancois, Jan-Michael Mewes, Dirk Rehn,         |
|   Matthias Schneider, Jan Wenzel, Andreas Dreuw                              |
|                                                                              |
| Authors of earlier versions of ADCMAN:                                       |
| Andreas Dreuw, Jan Hendrik Starcke, Dirk Rehn, Michael Wormit                |
|                                                                              |
================================================================================

 Created directory /scratch/fum/qchem27690/plots
  Import QC data ...  CPU 0.00 s  wall 0.23 s

 Alpha MOs, Restricted
 -- Occupied --                  
-11.235 -11.233  -1.032  -0.790  -0.641  -0.583  -0.504  -0.374
  1 A     2 A     3 A     4 A     5 A     6 A     7 A     8 A                  
 -- Virtual --                   
  0.168   0.204   0.233   0.239   0.303   0.463   0.578   0.614
  9 A    10 A    11 A    12 A    13 A    14 A    15 A    16 A                  
  0.689   0.710   0.785   0.808   0.862   0.936   0.973   1.010
 17 A    18 A    19 A    20 A    21 A    22 A    23 A    24 A                  
  1.131   1.235   1.252   1.265   1.294   1.602   1.730   1.754
 25 A    26 A    27 A    28 A    29 A    30 A    31 A    32 A                  
  1.819   1.857   1.867   1.920   1.976   1.980   2.224   2.258
 33 A    34 A    35 A    36 A    37 A    38 A    39 A    40 A                  
  2.375   2.454   2.509   2.638   2.721   2.824   3.139   3.403
 41 A    42 A    43 A    44 A    45 A    46 A    47 A    48 A                  

 Beta MOs, Restricted
 -- Occupied --                  
-11.235 -11.233  -1.032  -0.790  -0.641  -0.583  -0.504  -0.374
  1 A     2 A     3 A     4 A     5 A     6 A     7 A     8 A                  
 -- Virtual --                   
  0.168   0.204   0.233   0.239   0.303   0.463   0.578   0.614
  9 A    10 A    11 A    12 A    13 A    14 A    15 A    16 A                  
  0.689   0.710   0.785   0.808   0.862   0.936   0.973   1.010
 17 A    18 A    19 A    20 A    21 A    22 A    23 A    24 A                  
  1.131   1.235   1.252   1.265   1.294   1.602   1.730   1.754
 25 A    26 A    27 A    28 A    29 A    30 A    31 A    32 A                  
  1.819   1.857   1.867   1.920   1.976   1.980   2.224   2.258
 33 A    34 A    35 A    36 A    37 A    38 A    39 A    40 A                  
  2.375   2.454   2.509   2.638   2.721   2.824   3.139   3.403
 41 A    42 A    43 A    44 A    45 A    46 A    47 A    48 A                  
  Import AO data ...  CPU 0.00 s  wall 0.00 s
  Using point group: C1
  Irreducible representations in point group: A
  Molecular orbitals: 
  Occupied MOs:
  Block   0:   1 (  A) A   2 (  A) A   3 (  A) A   4 (  A) A   5 (  A) A
                  -11.24      -11.23      -1.032     -0.7904     -0.6409
               6 (  A) A   7 (  A) A   8 (  A) A
                 -0.5827     -0.5045      -0.374
  Block   1:   1 (  A) B   2 (  A) B   3 (  A) B   4 (  A) B   5 (  A) B
                  -11.24      -11.23      -1.032     -0.7904     -0.6409
               6 (  A) B   7 (  A) B   8 (  A) B
                 -0.5827     -0.5045      -0.374
  Virtual MOs:
  Block   0:   9 (  A) A  10 (  A) A  11 (  A) A  12 (  A) A  13 (  A) A
                  0.1683      0.2038      0.2332      0.2393      0.3033
              14 (  A) A  15 (  A) A  16 (  A) A  17 (  A) A  18 (  A) A
                  0.4626       0.578      0.6141      0.6891      0.7096
              19 (  A) A  20 (  A) A  21 (  A) A  22 (  A) A
                  0.7847       0.808      0.8623      0.9361
  Block   1:  23 (  A) A  24 (  A) A  25 (  A) A  26 (  A) A  27 (  A) A
                  0.9728        1.01       1.131       1.235       1.252
              28 (  A) A  29 (  A) A  30 (  A) A  31 (  A) A  32 (  A) A
                   1.265       1.294       1.602        1.73       1.754
              33 (  A) A  34 (  A) A  35 (  A) A  36 (  A) A
                   1.819       1.857       1.867        1.92
  Block   2:  37 (  A) A  38 (  A) A  39 (  A) A  40 (  A) A  41 (  A) A
                   1.976        1.98       2.224       2.258       2.375
              42 (  A) A  43 (  A) A  44 (  A) A  45 (  A) A  46 (  A) A
                   2.454       2.509       2.638       2.721       2.824
              47 (  A) A  48 (  A) A
                   3.139       3.403
  Block   3:   9 (  A) B  10 (  A) B  11 (  A) B  12 (  A) B  13 (  A) B
                  0.1683      0.2038      0.2332      0.2393      0.3033
              14 (  A) B  15 (  A) B  16 (  A) B  17 (  A) B  18 (  A) B
                  0.4626       0.578      0.6141      0.6891      0.7096
              19 (  A) B  20 (  A) B  21 (  A) B  22 (  A) B
                  0.7847       0.808      0.8623      0.9361
  Block   4:  23 (  A) B  24 (  A) B  25 (  A) B  26 (  A) B  27 (  A) B
                  0.9728        1.01       1.131       1.235       1.252
              28 (  A) B  29 (  A) B  30 (  A) B  31 (  A) B  32 (  A) B
                   1.265       1.294       1.602        1.73       1.754
              33 (  A) B  34 (  A) B  35 (  A) B  36 (  A) B
                   1.819       1.857       1.867        1.92
  Block   5:  37 (  A) B  38 (  A) B  39 (  A) B  40 (  A) B  41 (  A) B
                   1.976        1.98       2.224       2.258       2.375
              42 (  A) B  43 (  A) B  44 (  A) B  45 (  A) B  46 (  A) B
                   2.454       2.509       2.638       2.721       2.824
              47 (  A) B  48 (  A) B
                   3.139       3.403
  Import MO data ...  CPU 0.01 s  wall 0.00 s
  Import HF data ...  CPU 0.08 s  wall 0.03 s
  Import 2e integrals ...  CPU 0.67 s  wall 0.13 s

--------------------------------------------------------------------------------
                                   HF Summary                                   
--------------------------------------------------------------------------------
  Energy:                                                  -78.0399102331 a.u.
  Dip. moment [a.u.]:                  [  -0.001770,    0.001400,    0.000290]
  Total dipole [Debye]:                                               0.005785
  <r^2> [a.u.]:                        [ 175.303165,   34.932394,   11.623264]
  Total <r^2> [a.u.]:                                               221.858823
--------------------------------------------------------------------------------
  HF properties ...  CPU 0.01 s  wall 0.01 s
  MP(1) calculation ...  CPU 0.01 s  wall 0.00 s
  N^6 prerequesite intermediates ...  CPU 0.52 s  wall 0.09 s
  Difference density matrix of state mp2_gs printed to ASCII file 'State_mp2_gs_Difference.txt'
Exporting MP density matrix to file 'Densmat_MP.txt'.
Export successful
  Total density matrix of state mp2_gs printed to ASCII file 'State_mp2_gs_Total.txt'
Exporting MP density matrix to file 'Densmat_MP.txt'.
Export successful

--------------------------------------------------------------------------------
                                 MP(2) Summary                                  
--------------------------------------------------------------------------------
  MP energy contribution:                                   -0.2796634256 a.u.
  Total energy:                                            -78.3195736587 a.u.
  Dip. moment [a.u.]:                  [  -0.001570,    0.001360,    0.000294]
  Total dipole [Debye]:                                               0.005331
  <r^2> [a.u.]:                        [ 175.351618,   34.972580,   11.455297]
  Total <r^2> [a.u.]:                                               221.779495

  Density matrix analysis:
  ------------------------
  NOs
    Occupation of frontier NOs:
       0.0453   1.9383
    Number of electrons: 16.000000
    Number of unpaired electrons: n_u =  0.40326, n_u,nl =  0.04505
    NO participation ratio (PR_NO): 13.855230
  
  
  Mulliken Population Analysis
  Atom      Charge (e)              h+              e-           Del q
  --------------------------------------------------------------------
   1 H        0.051140        0.014017       -0.011202        0.002815
   2 C       -0.100545        0.093323       -0.098819       -0.005496
   3 H        0.050648        0.014069       -0.011191        0.002878
   4 C       -0.100867        0.092704       -0.098875       -0.006170
   5 H        0.049706        0.014181       -0.011167        0.003015
   6 H        0.049918        0.014140       -0.011181        0.002959
  --------------------------------------------------------------------
  Sum:        0.000000        0.242434       -0.242434       -0.000000
  
  Multipole moment analysis of the density matrix
    Molecular charge:                      0.000000
    Number of electrons:                   16.000000
      Center of electronic charge [Ang]: [ -1.560524,  -0.065022,   0.001968]
    Total nuclear charge:                  16.000000
      Center of nuclear charge [Ang]:    [ -1.560576,  -0.064977,   0.001978]
    Dipole moment [D]:                     0.005331
      Cartesian components [D]:          [ -0.003989,   0.003457,   0.000746]
    RMS size of the density [Ang]:         1.200862
      Cartesian components [Ang]:        [  0.796071,   0.779650,   0.447755]
  
  Exciton analysis of the difference density matrix
    <r_h> [Ang]:                  [ -1.559797,  -0.065426,   0.001932]
    <r_e> [Ang]:                  [ -1.560235,  -0.065338,   0.001925]
    |<r_e - r_h>| [Ang]:            0.000447
    Hole size [Ang]:                1.393626
      Cartesian components [Ang]: [  0.846235,   0.834508,   0.727790]
    Electron size [Ang]:            1.359857
      Cartesian components [Ang]: [  0.877903,   0.861878,   0.579365]
--------------------------------------------------------------------------------
  MP(2) calculation ...  CPU 0.13 s  wall 0.11 s
  Start ADC(2)-s ...  CPU 0.01 s  wall 0.00 s
  ADC(2) intermediates ...  CPU 0.02 s  wall 0.01 s
  Starting Davidson for singlet states of irrep A ... 
--------------------------------------------------------------------------------
   It NVec Conv  Avg. Norm  Max. Norm  Conv. states           Remark
--------------------------------------------------------------------------------
        10    0  1.330e-01  4.691e-01  0.4122 n n n n n n n n Guess.
    1   20    0  2.310e-02  1.112e-01  0.3262 n n n n n n n n 
    2   30    0  5.899e-03  2.672e-02  0.3215 n n n n n n n n 
    3   40    0  2.100e-03  1.513e-02  0.3211 n n n n n n n n 
    4   50    0  6.421e-04  4.916e-03  0.3211 n n n n n n n n 
    5   20    0  2.778e-04  2.071e-03  0.3211 n n n n n n n n Subspace collapsed.
    6   30    0  2.045e-04  1.875e-03  0.3211 n n n n n n n n 
    7   40    0  1.066e-04  9.559e-04  0.3211 n n n n n n n n 
    8   50    0  1.577e-04  1.540e-03  0.3211 n n n n n n n n 
    9   20    2  1.151e-04  1.120e-03  0.3211 n y n y n n n n Subspace collapsed.
   10   30    4  1.201e-04  1.189e-03  0.3211 n y y y y n n n 
   11   40    5  1.136e-04  1.134e-03  0.3211 n y y y y y n n 
   12   50    6  1.280e-04  1.280e-03  0.3211 y y y y y y n n 
   13   20    6  6.742e-05  6.740e-04  0.3211 y y y y y y n n Subspace collapsed.
   14   30    6  5.392e-05  5.391e-04  0.3211 y y y y y y n n 
   15   40    6  3.559e-05  3.558e-04  0.3211 y y y y y y n n 
   16   50    7  5.803e-05  5.803e-04  0.3211 y y y y y y n y 
   17   20    8  2.446e-05  2.446e-04  0.3211 y y y y y y n y Subspace collapsed.
   18   30    8  3.088e-05  3.088e-04  0.3211 y y y y y y n y 
   19   40    9  3.002e-05  3.002e-04  0.3211 y y y y y y y y 
   20   50    9  3.499e-05  3.499e-04  0.3211 y y y y y y y y 
   21   20    9  1.637e-05  1.637e-04  0.3211 y y y y y y y y Subspace collapsed.
   22   30    9  1.761e-05  1.761e-04  0.3211 y y y y y y y y 
   23   31    9  1.761e-05  1.761e-04  0.3211 y y y y y y y y 
   24   32    9  1.762e-05  1.762e-04  0.3211 y y y y y y y y 
   25   33    9  1.789e-05  1.789e-04  0.3211 y y y y y y y y 
   26   34    9  1.806e-05  1.806e-04  0.3211 y y y y y y y y 
   27   35    9  1.780e-05  1.780e-04  0.3211 y y y y y y y y 
   28   35    9  1.780e-05  1.780e-04  0.3211 y y y y y y y y 
   29   45    9  1.113e-05  1.113e-04  0.3211 y y y y y y y y 
   30   50    9  1.499e-05  1.499e-04  0.3211 y y y y y y y y 
   31   16    9  9.377e-06  9.377e-05  0.3211 y y y y y y y y Subspace collapsed.
   32   21    9  1.075e-05  1.075e-04  0.3211 y y y y y y y y 
   33   26    9  9.766e-06  9.766e-05  0.3211 y y y y y y y y 
   34   31    9  8.946e-06  8.946e-05  0.3211 y y y y y y y y 
   35   35    9  1.040e-05  1.040e-04  0.3211 y y y y y y y y 
   36   39    9  6.529e-06  6.529e-05  0.3211 y y y y y y y y 
   37   43    9  3.178e-06  3.178e-05  0.3211 y y y y y y y y 
   38   47    9  1.548e-06  1.548e-05  0.3211 y y y y y y y y 
   39   50    9  7.088e-07  7.088e-06  0.3211 y y y y y y y y 
   40   14    9  4.083e-07  4.083e-06  0.3211 y y y y y y y y Subspace collapsed.
   41   18    9  2.952e-07  2.952e-06  0.3211 y y y y y y y y 
   42   22    9  1.478e-07  1.478e-06  0.3211 y y y y y y y y 
   43   26   10  6.843e-08  6.843e-07  0.3211 y y y y y y y y Converged.
--------------------------------------------------------------------------------
  Davidson Summary: 
 ------------------------------------------------------------
  State  0: excitation energy =   0.3211 a.u.   (converged)
  State  1: excitation energy =   0.3325 a.u.   (converged)
  State  2: excitation energy =   0.3373 a.u.   (converged)
  State  3: excitation energy =   0.3615 a.u.   (converged)
  State  4: excitation energy =   0.3755 a.u.   (converged)
  State  5: excitation energy =   0.3874 a.u.   (converged)
  State  6: excitation energy =   0.4248 a.u.   (converged)
  State  7: excitation energy =   0.4469 a.u.   (converged)
  State  8: excitation energy =   0.4562 a.u.   (converged)
  State  9: excitation energy =   0.4648 a.u.   (converged)
 ------------------------------------------------------------

  Singlet states of irrep A ...  CPU 98.65 s  wall 34.57 s
  TDMs ...  CPU 0.67 s  wall 0.28 s
  SDMs ...  CPU 1.48 s  wall 0.53 s
  Starting TPA DIIS iterations ... 
------------------------------------ 
   It     Res. Norm  Remark
------------------------------------
                       Guess.
    1     4.410e+00  
    2     5.846e+00  
    3     1.076e+00  
    4     2.560e-01  
    5     6.572e-02  
    6     2.671e-02  
    7     8.236e-03  
    8     1.435e-03  
    9     5.336e-04  
   10     8.977e-05  
   11     2.814e-05  
   12     4.409e-06  
   13     1.429e-06  
   14     4.605e-07  Converged.
   ... Converged in 14 steps (norm: 4.6048e-07)
------------------------------------
  Starting TPA DIIS iterations ... 
------------------------------------ 
   It     Res. Norm  Remark
------------------------------------
                       Guess.
    1     4.184e+00  
    2     5.543e+00  
    3     1.031e+00  
    4     2.558e-01  
    5     6.530e-02  
    6     2.678e-02  
    7     8.133e-03  
    8     1.458e-03  
    9     5.381e-04  
   10     9.018e-05  
   11     2.849e-05  
   12     4.390e-06  
   13     1.447e-06  
   14     4.560e-07  Converged.
   ... Converged in 14 steps (norm: 4.56007e-07)
------------------------------------
  Starting TPA DIIS iterations ... 
------------------------------------ 
   It     Res. Norm  Remark
------------------------------------
                       Guess.
    1     6.867e-01  
    2     4.827e-01  
    3     1.706e-01  
    4     6.062e-02  
    5     1.826e-02  
    6     6.605e-03  
    7     1.032e-03  
    8     4.443e-04  
    9     1.237e-04  
   10     2.798e-05  
   11     5.256e-06  
   12     1.582e-06  
   13     8.847e-07  Converged.
   ... Converged in 13 steps (norm: 8.8467e-07)
------------------------------------
  Starting TPA DIIS iterations ... 
------------------------------------ 
   It     Res. Norm  Remark
------------------------------------
                       Guess.
    1     4.693e+00  
    2     6.354e+00  
    3     1.156e+00  
    4     2.840e-01  
    5     7.390e-02  
    6     3.028e-02  
    7     9.321e-03  
    8     1.622e-03  
    9     6.075e-04  
   10     1.028e-04  
   11     3.254e-05  
   12     5.145e-06  
   13     1.681e-06  
   14     5.464e-07  Converged.
   ... Converged in 14 steps (norm: 5.46388e-07)
------------------------------------
  Starting TPA DIIS iterations ... 
------------------------------------ 
   It     Res. Norm  Remark
------------------------------------
                       Guess.
    1     4.452e+00  
    2     6.024e+00  
    3     1.107e+00  
    4     2.835e-01  
    5     7.344e-02  
    6     3.039e-02  
    7     9.209e-03  
    8     1.649e-03  
    9     6.127e-04  
   10     1.033e-04  
   11     3.292e-05  
   12     5.120e-06  
   13     1.700e-06  
   14     5.413e-07  Converged.
   ... Converged in 14 steps (norm: 5.41289e-07)
------------------------------------
  Starting TPA DIIS iterations ... 
------------------------------------ 
   It     Res. Norm  Remark
------------------------------------
                       Guess.
    1     6.985e-01  
    2     4.999e-01  
    3     1.803e-01  
    4     6.847e-02  
    5     1.964e-02  
    6     7.209e-03  
    7     1.163e-03  
    8     5.216e-04  
    9     1.484e-04  
   10     3.172e-05  
   11     5.930e-06  
   12     1.859e-06  
   13     1.101e-06  
   14     3.942e-07  Converged.
   ... Converged in 14 steps (norm: 3.94197e-07)
------------------------------------
  Starting TPA DIIS iterations ... 
------------------------------------ 
   It     Res. Norm  Remark
------------------------------------
                       Guess.
    1     4.820e+00  
    2     6.586e+00  
    3     1.192e+00  
    4     2.970e-01  
    5     7.770e-02  
    6     3.195e-02  
    7     9.826e-03  
    8     1.708e-03  
    9     6.420e-04  
   10     1.088e-04  
   11     3.462e-05  
   12     5.494e-06  
   13     1.801e-06  
   14     5.879e-07  Converged.
   ... Converged in 14 steps (norm: 5.87861e-07)
------------------------------------
  Starting TPA DIIS iterations ... 
------------------------------------ 
   It     Res. Norm  Remark
------------------------------------
                       Guess.
    1     4.573e+00  
    2     6.244e+00  
    3     1.141e+00  
    4     2.964e-01  
    5     7.723e-02  
    6     3.208e-02  
    7     9.710e-03  
    8     1.737e-03  
    9     6.475e-04  
   10     1.094e-04  
   11     3.501e-05  
   12     5.465e-06  
   13     1.821e-06  
   14     5.825e-07  Converged.
   ... Converged in 14 steps (norm: 5.82542e-07)
------------------------------------
  Starting TPA DIIS iterations ... 
------------------------------------ 
   It     Res. Norm  Remark
------------------------------------
                       Guess.
    1     7.036e-01  
    2     5.074e-01  
    3     1.847e-01  
    4     7.218e-02  
    5     2.025e-02  
    6     7.490e-03  
    7     1.225e-03  
    8     5.585e-04  
    9     1.602e-04  
   10     3.314e-05  
   11     6.239e-06  
   12     1.992e-06  
   13     1.209e-06  
   14     4.295e-07  Converged.
   ... Converged in 14 steps (norm: 4.29527e-07)
------------------------------------
  Starting TPA DIIS iterations ... 
------------------------------------ 
   It     Res. Norm  Remark
------------------------------------
                       Guess.
    1     5.557e+00  
    2     7.961e+00  
    3     1.398e+00  
    4     3.766e-01  
    5     1.009e-01  
    6     4.226e-02  
    7     1.291e-02  
    8     2.236e-03  
    9     8.551e-04  
   10     1.464e-04  
   11     4.772e-05  
   12     7.705e-06  
   13     2.582e-06  
   14     8.631e-07  Converged.
   ... Converged in 14 steps (norm: 8.63099e-07)
------------------------------------
  Starting TPA DIIS iterations ... 
------------------------------------ 
   It     Res. Norm  Remark
------------------------------------
                       Guess.
    1     5.270e+00  
    2     7.547e+00  
    3     1.338e+00  
    4     3.752e-01  
    5     1.004e-01  
    6     4.251e-02  
    7     1.277e-02  
    8     2.278e-03  
    9     8.620e-04  
   10     1.472e-04  
   11     4.817e-05  
   12     7.654e-06  
   13     2.602e-06  
   14     8.577e-07  Converged.
   ... Converged in 14 steps (norm: 8.57729e-07)
------------------------------------
  Starting TPA DIIS iterations ... 
------------------------------------ 
   It     Res. Norm  Remark
------------------------------------
                       Guess.
    1     7.303e-01  
    2     5.486e-01  
    3     2.090e-01  
    4     9.556e-02  
    5     2.377e-02  
    6     9.212e-03  
    7     1.620e-03  
    8     7.898e-04  
    9     2.330e-04  
   10     3.821e-05  
   11     8.112e-06  
   12     2.859e-06  
   13     1.970e-06  
   14     6.705e-07  Converged.
   ... Converged in 14 steps (norm: 6.70537e-07)
------------------------------------
  Starting TPA DIIS iterations ... 
------------------------------------ 
   It     Res. Norm  Remark
------------------------------------
                       Guess.
    1     6.074e+00  
    2     8.959e+00  
    3     1.541e+00  
    4     4.365e-01  
    5     1.185e-01  
    6     5.013e-02  
    7     1.524e-02  
    8     2.632e-03  
    9     1.017e-03  
   10     1.751e-04  
   11     5.794e-05  
   12     9.439e-06  
   13     3.211e-06  
   14     1.096e-06  
   15     3.819e-07  Converged.
   ... Converged in 15 steps (norm: 3.81932e-07)
------------------------------------
  Starting TPA DIIS iterations ... 
------------------------------------ 
   It     Res. Norm  Remark
------------------------------------
                       Guess.
    1     5.759e+00  
    2     8.492e+00  
    3     1.475e+00  
    4     4.345e-01  
    5     1.178e-01  
    6     5.048e-02  
    7     1.508e-02  
    8     2.684e-03  
    9     1.025e-03  
   10     1.760e-04  
   11     5.840e-05  
   12     9.370e-06  
   13     3.227e-06  
   14     1.092e-06  
   15     3.554e-07  Converged.
   ... Converged in 15 steps (norm: 3.55418e-07)
------------------------------------
  Starting TPA DIIS iterations ... 
------------------------------------ 
   It     Res. Norm  Remark
------------------------------------
                       Guess.
    1     7.467e-01  
    2     5.755e-01  
    3     2.255e-01  
    4     1.138e-01  
    5     2.627e-02  
    6     1.052e-02  
    7     1.934e-03  
    8     9.589e-04  
    9     2.855e-04  
   10     3.963e-05  
   11     9.541e-06  
   12     3.561e-06  
   13     2.641e-06  
   14     8.771e-07  Converged.
   ... Converged in 14 steps (norm: 8.77083e-07)
------------------------------------
  Starting TPA DIIS iterations ... 
------------------------------------ 
   It     Res. Norm  Remark
------------------------------------
                       Guess.
    1     6.576e+00  
    2     9.953e+00  
    3     1.680e+00  
    4     4.978e-01  
    5     1.363e-01  
    6     5.823e-02  
    7     1.762e-02  
    8     3.036e-03  
    9     1.185e-03  
   10     2.047e-04  
   11     6.857e-05  
   12     1.125e-05  
   13     3.881e-06  
   14     1.357e-06  
   15     4.789e-07  Converged.
   ... Converged in 15 steps (norm: 4.78921e-07)
------------------------------------
  Starting TPA DIIS iterations ... 
------------------------------------ 
   It     Res. Norm  Remark
------------------------------------
                       Guess.
    1     6.234e+00  
    2     9.434e+00  
    3     1.607e+00  
    4     4.949e-01  
    5     1.357e-01  
    6     5.869e-02  
    7     1.744e-02  
    8     3.097e-03  
    9     1.193e-03  
   10     2.057e-04  
   11     6.901e-05  
   12     1.117e-05  
   13     3.889e-06  
   14     1.357e-06  
   15     4.433e-07  Converged.
   ... Converged in 15 steps (norm: 4.43296e-07)
------------------------------------
  Starting TPA DIIS iterations ... 
------------------------------------ 
   It     Res. Norm  Remark
------------------------------------
                       Guess.
    1     7.612e-01  
    2     6.003e-01  
    3     2.411e-01  
    4     1.328e-01  
    5     2.877e-02  
    6     1.186e-02  
    7     2.267e-03  
    8     1.118e-03  
    9     3.358e-04  
   10     4.060e-05  
   11     1.104e-05  
   12     4.310e-06  
   13     3.397e-06  
   14     1.107e-06  
   15     3.924e-07  Converged.
   ... Converged in 15 steps (norm: 3.92355e-07)
------------------------------------
  Starting TPA DIIS iterations ... 
------------------------------------ 
   It     Res. Norm  Remark
------------------------------------
                       Guess.
    1     8.685e+00  
    2     1.437e+01  
    3     2.253e+00  
    4     7.822e-01  
    5     2.195e-01  
    6     9.668e-02  
    7     2.869e-02  
    8     4.903e-03  
    9     1.975e-03  
   10     3.440e-04  
   11     1.188e-04  
   12     2.005e-05  
   13     7.175e-06  
   14     2.901e-06  
   15     1.026e-06  
   16     6.199e-07  Converged.
   ... Converged in 16 steps (norm: 6.19934e-07)
------------------------------------
  Starting TPA DIIS iterations ... 
------------------------------------ 
   It     Res. Norm  Remark
------------------------------------
                       Guess.
    1     8.230e+00  
    2     1.362e+01  
    3     2.152e+00  
    4     7.751e-01  
    5     2.187e-01  
    6     9.776e-02  
    7     2.843e-02  
    8     5.009e-03  
    9     1.987e-03  
   10     3.456e-04  
   11     1.189e-04  
   12     1.992e-05  
   13     7.091e-06  
   14     2.948e-06  
   15     9.548e-07  Converged.
   ... Converged in 15 steps (norm: 9.54765e-07)
------------------------------------
  Starting TPA DIIS iterations ... 
------------------------------------ 
   It     Res. Norm  Remark
------------------------------------
                       Guess.
    1     8.112e-01  
    2     6.941e-01  
    3     3.027e-01  
    4     2.222e-01  
    5     4.009e-02  
    6     1.803e-02  
    7     3.920e-03  
    8     1.622e-03  
    9     5.300e-04  
   10     5.191e-05  
   11     1.852e-05  
   12     8.048e-06  
   13     7.594e-06  
   14     2.391e-06  
   15     9.115e-07  Converged.
   ... Converged in 15 steps (norm: 9.11466e-07)
------------------------------------
  Starting TPA DIIS iterations ... 
------------------------------------ 
   It     Res. Norm  Remark
------------------------------------
                       Guess.
    1     1.049e+01  
    2     1.842e+01  
    3     2.729e+00  
    4     1.052e+00  
    5     2.992e-01  
    6     1.344e-01  
    7     3.929e-02  
    8     6.682e-03  
    9     2.748e-03  
   10     4.790e-04  
   11     1.658e-04  
   12     2.895e-05  
   13     1.042e-05  
   14     4.887e-06  
   15     1.709e-06  
   16     1.200e-06  
   17     2.703e-07  Converged.
   ... Converged in 17 steps (norm: 2.70266e-07)
------------------------------------
  Starting TPA DIIS iterations ... 
------------------------------------ 
   It     Res. Norm  Remark
------------------------------------
                       Guess.
    1     9.936e+00  
    2     1.746e+01  
    3     2.606e+00  
    4     1.040e+00  
    5     2.982e-01  
    6     1.361e-01  
    7     3.896e-02  
    8     6.828e-03  
    9     2.760e-03  
   10     4.810e-04  
   11     1.654e-04  
   12     2.891e-05  
   13     1.020e-05  
   14     5.026e-06  
   15     1.665e-06  
   16     1.350e-06  
   17     3.910e-07  Converged.
   ... Converged in 17 steps (norm: 3.91029e-07)
------------------------------------
  Starting TPA DIIS iterations ... 
------------------------------------ 
   It     Res. Norm  Remark
------------------------------------
                       Guess.
    1     8.443e-01  
    2     7.643e-01  
    3     3.514e-01  
    4     3.031e-01  
    5     5.062e-02  
    6     2.359e-02  
    7     5.562e-03  
    8     1.832e-03  
    9     6.785e-04  
   10     7.082e-05  
   11     2.631e-05  
   12     1.186e-05  
   13     1.238e-05  
   14     3.900e-06  
   15     1.710e-06  
   16     1.053e-06  
   17     4.754e-07  Converged.
   ... Converged in 17 steps (norm: 4.75441e-07)
------------------------------------
  Starting TPA DIIS iterations ... 
------------------------------------ 
   It     Res. Norm  Remark
------------------------------------
                       Guess.
    1     1.143e+01  
    2     2.063e+01  
    3     2.974e+00  
    4     1.201e+00  
    5     3.436e-01  
    6     1.556e-01  
    7     4.518e-02  
    8     7.667e-03  
    9     3.182e-03  
   10     5.543e-04  
   11     1.913e-04  
   12     3.414e-05  
   13     1.230e-05  
   14     6.192e-06  
   15     2.177e-06  
   16     1.613e-06  
   17     3.599e-07  Converged.
   ... Converged in 17 steps (norm: 3.5992e-07)
------------------------------------
  Starting TPA DIIS iterations ... 
------------------------------------ 
   It     Res. Norm  Remark
------------------------------------
                       Guess.
    1     1.083e+01  
    2     1.955e+01  
    3     2.839e+00  
    4     1.186e+00  
    5     3.425e-01  
    6     1.578e-01  
    7     4.481e-02  
    8     7.836e-03  
    9     3.194e-03  
   10     5.565e-04  
   11     1.906e-04  
   12     3.422e-05  
   13     1.198e-05  
   14     6.402e-06  
   15     2.188e-06  
   16     1.825e-06  
   17     5.293e-07  Converged.
   ... Converged in 17 steps (norm: 5.29268e-07)
------------------------------------
  Starting TPA DIIS iterations ... 
------------------------------------ 
   It     Res. Norm  Remark
------------------------------------
                       Guess.
    1     8.592e-01  
    2     7.984e-01  
    3     3.757e-01  
    4     3.443e-01  
    5     5.634e-02  
    6     2.645e-02  
    7     6.471e-03  
    8     1.893e-03  
    9     7.520e-04  
   10     8.209e-05  
   11     3.087e-05  
   12     1.409e-05  
   13     1.535e-05  
   14     4.848e-06  
   15     2.289e-06  
   16     1.374e-06  
   17     6.551e-07  Converged.
   ... Converged in 17 steps (norm: 6.55141e-07)
------------------------------------
  Starting TPA DIIS iterations ... 
------------------------------------ 
   It     Res. Norm  Remark
------------------------------------
                       Guess.
    1     1.242e+01  
    2     2.301e+01  
    3     3.228e+00  
    4     1.362e+00  
    5     3.920e-01  
    6     1.791e-01  
    7     5.162e-02  
    8     8.743e-03  
    9     3.659e-03  
   10     6.367e-04  
   11     2.186e-04  
   12     4.004e-05  
   13     1.445e-05  
   14     7.771e-06  
   15     2.774e-06  
   16     2.136e-06  
   17     4.820e-07  Converged.
   ... Converged in 17 steps (norm: 4.82009e-07)
------------------------------------
  Starting TPA DIIS iterations ... 
------------------------------------ 
   It     Res. Norm  Remark
------------------------------------
                       Guess.
    1     1.177e+01  
    2     2.181e+01  
    3     3.082e+00  
    4     1.343e+00  
    5     3.909e-01  
    6     1.817e-01  
    7     5.121e-02  
    8     8.936e-03  
    9     3.671e-03  
   10     6.390e-04  
   11     2.177e-04  
   12     4.029e-05  
   13     1.403e-05  
   14     8.071e-06  
   15     2.878e-06  
   16     2.428e-06  
   17     7.022e-07  Converged.
   ... Converged in 17 steps (norm: 7.02208e-07)
------------------------------------
  Starting TPA DIIS iterations ... 
------------------------------------ 
   It     Res. Norm  Remark
------------------------------------
                       Guess.
    1     8.736e-01  
    2     8.328e-01  
    3     4.005e-01  
    4     3.855e-01  
    5     6.248e-02  
    6     2.936e-02  
    7     7.450e-03  
    8     1.941e-03  
    9     8.274e-04  
   10     9.432e-05  
   11     3.603e-05  
   12     1.667e-05  
   13     1.886e-05  
   14     5.971e-06  
   15     3.028e-06  
   16     1.759e-06  
   17     8.797e-07  Converged.
   ... Converged in 17 steps (norm: 8.7967e-07)
------------------------------------
  Two-photon absorbption ...  CPU 72.51 s  wall 18.34 s
  Transition density matrix of state singlet_A_1 printed to ASCII file 'State_singlet_A_1_Transition.txt'
  Transition density matrix of state singlet_A_2 printed to ASCII file 'State_singlet_A_2_Transition.txt'
  Transition density matrix of state singlet_A_3 printed to ASCII file 'State_singlet_A_3_Transition.txt'
  Transition density matrix of state singlet_A_4 printed to ASCII file 'State_singlet_A_4_Transition.txt'
  Transition density matrix of state singlet_A_5 printed to ASCII file 'State_singlet_A_5_Transition.txt'
  Transition density matrix of state singlet_A_6 printed to ASCII file 'State_singlet_A_6_Transition.txt'
  Transition density matrix of state singlet_A_7 printed to ASCII file 'State_singlet_A_7_Transition.txt'
  Transition density matrix of state singlet_A_8 printed to ASCII file 'State_singlet_A_8_Transition.txt'
  Transition density matrix of state singlet_A_9 printed to ASCII file 'State_singlet_A_9_Transition.txt'
  Transition density matrix of state singlet_A_10 printed to ASCII file 'State_singlet_A_10_Transition.txt'
  Transition properties ...  CPU 0.16 s  wall 0.33 s
  Difference density matrix of state singlet_A_1 printed to ASCII file 'State_singlet_A_1_Difference.txt'
  Total density matrix of state singlet_A_1 printed to ASCII file 'State_singlet_A_1_Total.txt'
  Difference density matrix of state singlet_A_2 printed to ASCII file 'State_singlet_A_2_Difference.txt'
  Total density matrix of state singlet_A_2 printed to ASCII file 'State_singlet_A_2_Total.txt'
  Difference density matrix of state singlet_A_3 printed to ASCII file 'State_singlet_A_3_Difference.txt'
  Total density matrix of state singlet_A_3 printed to ASCII file 'State_singlet_A_3_Total.txt'
  Difference density matrix of state singlet_A_4 printed to ASCII file 'State_singlet_A_4_Difference.txt'
  Total density matrix of state singlet_A_4 printed to ASCII file 'State_singlet_A_4_Total.txt'
  Difference density matrix of state singlet_A_5 printed to ASCII file 'State_singlet_A_5_Difference.txt'
  Total density matrix of state singlet_A_5 printed to ASCII file 'State_singlet_A_5_Total.txt'
  Difference density matrix of state singlet_A_6 printed to ASCII file 'State_singlet_A_6_Difference.txt'
  Total density matrix of state singlet_A_6 printed to ASCII file 'State_singlet_A_6_Total.txt'
  Difference density matrix of state singlet_A_7 printed to ASCII file 'State_singlet_A_7_Difference.txt'
  Total density matrix of state singlet_A_7 printed to ASCII file 'State_singlet_A_7_Total.txt'
  Difference density matrix of state singlet_A_8 printed to ASCII file 'State_singlet_A_8_Difference.txt'
  Total density matrix of state singlet_A_8 printed to ASCII file 'State_singlet_A_8_Total.txt'
  Difference density matrix of state singlet_A_9 printed to ASCII file 'State_singlet_A_9_Difference.txt'
  Total density matrix of state singlet_A_9 printed to ASCII file 'State_singlet_A_9_Total.txt'
  Difference density matrix of state singlet_A_10 printed to ASCII file 'State_singlet_A_10_Difference.txt'
  Total density matrix of state singlet_A_10 printed to ASCII file 'State_singlet_A_10_Total.txt'
  Properties ...  CPU 0.30 s  wall 0.55 s
  ISR TDMS ...  CPU 8.94 s  wall 3.19 s
  ISR transition properties ...  CPU 0.18 s  wall 0.08 s
  Sum-over-states TPA ...  CPU 0.00 s  wall 0.00 s

--------------------------------------------------------------------------------
                   State-averaged natural transition orbitals
--------------------------------------------------------------------------------
--------------------------------------------------------------------------------
  SA-NTO decomposition ...  CPU 0.01 s  wall 0.03 s

--------------------------------------------------------------------------------
                             Excited State Summary
--------------------------------------------------------------------------------
--------------------------------------------------------------------------------

  Excited state 1 (singlet, A)                                     [converged]
  ----------------------------------------------------------------------------
  Term symbol:  2 (1) A                                     R^2 =  7.14721e-14

  Total energy:                                            -77.9985190436 a.u.
  Excitation energy:                                               8.736340 eV

  Osc. strength:                                                      0.445507
  Trans. dip. moment [a.u.]:           [   1.044523,   -0.995157,   -0.009401]
  <i|r^2|0> [a.u.]:                    [   6.157055,   -0.246298,   -0.000446]
  Two-photon absorption cross-section (SoS) [a.u.]:                   0.002256
  Two-photon absorption matrix (SoS) [a.u.]:
                                       |    0.004236   -0.005907   -0.000963 |
                                       |   -0.005907    0.008314   -0.000337 |
                                       |   -0.000963   -0.000337    0.011150 |
  Two-photon absorption cross-section [a.u.]:                         0.001254
  Two-photon absorption matrix [a.u.]:
                                       |   -0.009385   -0.007444    0.000808 |
                                       |   -0.007444   -0.002683    0.002206 |
                                       |    0.000808    0.002206    0.009674 |

  Dip. moment [a.u.]:                  [  -0.001203,    0.001165,    0.000368]
  Total dipole [Debye]:                                               0.004358
  <r^2> [a.u.]:                        [ 176.107856,   35.661780,   11.865526]
  Total <r^2> [a.u.]:                                               223.635162

  V1^2 = 0.9715, V2^2 = 0.0285

  Important amplitudes:
      occ i     occ j     vir a      vir b          v   
    -----------------------------------------------------
     8 (A) A              9 (A) A                 0.6811
     6 (A) A             14 (A) A                 0.0622
     4 (A) A             10 (A) A                -0.0604
     7 (A) A             16 (A) A                 0.0572
     5 (A) A             13 (A) A                 0.0513
     6 (A) A             23 (A) A                 0.0484
     8 (A) A             20 (A) A                 0.0349
     6 (A) A             19 (A) A                 0.0309
     3 (A) A             12 (A) A                 0.0281
     5 (A) A             22 (A) A                -0.0215
     7 (A) A             11 (A) A                 0.0205
     4 (A) A             24 (A) A                -0.0187
     3 (A) A             26 (A) A                 0.0186
     8 (A) A   8 (A) B   17 (A) A   20 (A) B     -0.0184
     8 (A) A   8 (A) B    9 (A) A   28 (A) B      0.0168
     6 (A) A             26 (A) A                -0.0164
     7 (A) A             21 (A) A                 0.0147
     3 (A) A             14 (A) A                -0.0139
     6 (A) A             12 (A) A                 0.0130
     3 (A) A   4 (A) B    9 (A) A    9 (A) B      0.0129
     3 (A) A             19 (A) A                -0.0119
     8 (A) A   8 (A) B   18 (A) A   19 (A) B      0.0113
     7 (A) A             32 (A) A                 0.0094
     7 (A) A             36 (A) A                 0.0086
     3 (A) A             23 (A) A                -0.0080
     8 (A) A   8 (A) B   25 (A) A   29 (A) B      0.0076
     6 (A) A             35 (A) A                 0.0071
     6 (A) A             40 (A) A                 0.0068
     3 (A) A   6 (A) B    9 (A) A   28 (A) B     -0.0065
     6 (A) A   8 (A) A   19 (A) A   28 (A) A     -0.0061
     5 (A) A   7 (A) B    9 (A) A    9 (A) B     -0.0060
     5 (A) A   8 (A) B   11 (A) A   20 (A) B     -0.0059
     7 (A) A   8 (A) B   13 (A) A   20 (A) B     -0.0059
     5 (A) A   8 (A) B   16 (A) A    9 (A) B     -0.0059
     5 (A) A   8 (A) B   11 (A) A    9 (A) B      0.0059
     3 (A) A   5 (A) B    9 (A) A   25 (A) B     -0.0058
     3 (A) A             40 (A) A                -0.0057
     7 (A) A   8 (A) B   22 (A) A   20 (A) B      0.0057
     6 (A) A   8 (A) A    9 (A) A   18 (A) A      0.0056
     8 (A) A   8 (A) B   19 (A) A   30 (A) B      0.0056
    -----------------------------------------------------

  Density matrix analysis:
  ------------------------
  NOs
    Occupation of frontier NOs:
       0.9496   1.0216
    Number of electrons: 16.000000
    Number of unpaired electrons: n_u =  2.31325, n_u,nl =  2.03260
    NO participation ratio (PR_NO):  2.863233
  
  
  Mulliken Population Analysis
  Atom      Charge (e)              h+              e-           Del q
  --------------------------------------------------------------------
   1 H        0.058937        0.020322       -0.012525        0.007798
   2 C       -0.115716        0.490965       -0.506136       -0.015172
   3 H        0.058216        0.020160       -0.012591        0.007568
   4 C       -0.116685        0.490629       -0.506447       -0.015818
   5 H        0.057409        0.020240       -0.012537        0.007703
   6 H        0.057839        0.020381       -0.012461        0.007921
  --------------------------------------------------------------------
  Sum:        0.000000        1.062697       -1.062697       -0.000000
  
  Multipole moment analysis of the density matrix
    Molecular charge:                      -0.000000
    Number of electrons:                   16.000000
      Center of electronic charge [Ang]: [ -1.560536,  -0.065016,   0.001966]
    Total nuclear charge:                  16.000000
      Center of nuclear charge [Ang]:    [ -1.560576,  -0.064977,   0.001978]
    Dipole moment [D]:                     0.004358
      Cartesian components [D]:          [ -0.003057,   0.002962,   0.000936]
    RMS size of the density [Ang]:         1.214294
      Cartesian components [Ang]:        [  0.804318,   0.787348,   0.455702]
  
  Exciton analysis of the difference density matrix
    <r_h> [Ang]:                  [ -1.560134,  -0.065599,   0.001804]
    <r_e> [Ang]:                  [ -1.560317,  -0.065502,   0.001767]
    |<r_e - r_h>| [Ang]:            0.000210
    Hole size [Ang]:                1.285453
      Cartesian components [Ang]: [  0.728425,   0.712764,   0.783426]
    Electron size [Ang]:            1.463152
      Cartesian components [Ang]: [  0.853995,   0.830454,   0.849620]

  Transition density matrix analysis:
  -----------------------------------
  
  CT numbers (Mulliken)
    omega =     0.9535
    <Phe> =    -0.1608
  
  Exciton analysis of the transition density matrix
    Trans. dipole moment [D]:             1.833520
      Cartesian components [D]:         [  1.327456,  -1.264718,  -0.011948]
    <r_h> [Ang]:                        [ -1.559906,  -0.065883,   0.001831]
    <r_e> [Ang]:                        [ -1.560333,  -0.065465,   0.001747]
    |<r_e - r_h>| [Ang]:                  0.000604
    Hole size [Ang]:                      1.214136
      Cartesian components [Ang]:       [  0.649544,   0.636480,   0.804433]
    Electron size [Ang]:                  1.486034
      Cartesian components [Ang]:       [  0.864435,   0.839387,   0.869757]
    RMS electron-hole separation [Ang]:   1.936861
      Cartesian components [Ang]:       [  1.106914,   1.075223,   1.170499]
    Covariance(r_h, r_e) [Ang^2]:        -0.034504
    Correlation coefficient:             -0.019124
    Center-of-mass size [Ang]:            0.950449
      Cartesian components [Ang]:       [  0.527506,   0.515570,   0.599398]

  Decomposition into state-averaged NTOs
    H- 0 -> L+ 0: -0.6699 ( 89.8%)
    H- 2 -> L+ 5:  0.0836 (  1.4%)
                   omega =  95.4%
  ----------------------------------------------------------------------------


  Excited state 2 (singlet, A)                                     [converged]
  ----------------------------------------------------------------------------
  Term symbol:  3 (1) A                                     R^2 =  2.16549e-13

  Total energy:                                            -77.9870431938 a.u.
  Excitation energy:                                               9.048614 eV

  Osc. strength:                                                      0.000017
  Trans. dip. moment [a.u.]:           [  -0.005777,    0.005373,    0.004011]
  <i|r^2|0> [a.u.]:                    [   0.029338,    0.088678,   -0.150767]
  Two-photon absorption cross-section (SoS) [a.u.]:                   4.763765
  Two-photon absorption matrix (SoS) [a.u.]:
                                       |    0.051171    0.058034   -0.532390 |
                                       |    0.058034    0.065053   -0.546318 |
                                       |   -0.532390   -0.546318   -0.116404 |
  Two-photon absorption cross-section [a.u.]:                         0.082317
  Two-photon absorption matrix [a.u.]:
                                       |   -0.003743   -0.007120    0.053206 |
                                       |   -0.007120   -0.011556    0.084964 |
                                       |    0.053206    0.084964    0.015193 |

  Dip. moment [a.u.]:                  [  -0.016958,    0.008042,    0.000335]
  Total dipole [Debye]:                                               0.047712
  <r^2> [a.u.]:                        [ 174.457845,   33.943390,   13.173030]
  Total <r^2> [a.u.]:                                               221.574265

  V1^2 = 0.9542, V2^2 = 0.0458

  Important amplitudes:
      occ i     occ j     vir a      vir b          v   
    -----------------------------------------------------
     7 (A) A              9 (A) A                -0.6696
     8 (A) A             11 (A) A                -0.1463
     7 (A) A             20 (A) A                -0.0759
     5 (A) A   8 (A) B    9 (A) A    9 (A) B      0.0317
     8 (A) A             16 (A) A                 0.0272
     8 (A) A             21 (A) A                -0.0174
     5 (A) A             28 (A) A                -0.0151
     4 (A) A   7 (A) B    9 (A) A   19 (A) B      0.0135
     5 (A) A   7 (A) B    9 (A) A   16 (A) B     -0.0134
     7 (A) A   8 (A) B   20 (A) A   17 (A) B      0.0105
     7 (A) A   8 (A) A    9 (A) A   28 (A) A      0.0098
     5 (A) A   8 (A) B    9 (A) A   20 (A) B      0.0096
     4 (A) A   6 (A) B    9 (A) A   16 (A) B      0.0091
     5 (A) A   6 (A) A    9 (A) A   23 (A) A     -0.0091
     5 (A) A   6 (A) A    9 (A) A   14 (A) A     -0.0089
     5 (A) A   6 (A) B    9 (A) A   19 (A) B     -0.0087
     8 (A) A   7 (A) B    9 (A) A   28 (A) B     -0.0085
     4 (A) A   5 (A) A    9 (A) A   10 (A) A     -0.0084
     6 (A) A   7 (A) B    9 (A) A   18 (A) B     -0.0083
     5 (A) A   6 (A) B    9 (A) A   23 (A) B     -0.0080
     3 (A) A   7 (A) B    9 (A) A   18 (A) B     -0.0080
     8 (A) A             10 (A) A                -0.0079
     5 (A) A   7 (A) A    9 (A) A   16 (A) A     -0.0079
     4 (A) A   8 (A) B    9 (A) A   25 (A) B     -0.0077
     7 (A) A   8 (A) B   17 (A) A   20 (A) B      0.0074
     4 (A) A   7 (A) B   19 (A) A    9 (A) B      0.0074
     5 (A) A   5 (A) B    9 (A) A   13 (A) B     -0.0072
     7 (A) A   8 (A) B   19 (A) A   18 (A) B     -0.0072
     5 (A) A   8 (A) A    9 (A) A   20 (A) A      0.0069
     4 (A) A   5 (A) B    9 (A) A   18 (A) B      0.0068
     8 (A) A             12 (A) A                -0.0066
     7 (A) A   7 (A) B   20 (A) A   22 (A) B     -0.0065
     7 (A) A   8 (A) B   17 (A) A    9 (A) B      0.0065
     5 (A) A   6 (A) B    9 (A) A   14 (A) B     -0.0064
     4 (A) A   7 (A) A    9 (A) A   19 (A) A      0.0061
     4 (A) A   5 (A) B   10 (A) A    9 (A) B      0.0061
     5 (A) A             38 (A) A                 0.0060
     5 (A) A   7 (A) B   11 (A) A   20 (A) B      0.0060
     4 (A) A   7 (A) B    9 (A) A   14 (A) B     -0.0059
     6 (A) A   7 (A) A   19 (A) A   28 (A) A      0.0057
    -----------------------------------------------------

  Density matrix analysis:
  ------------------------
  NOs
    Occupation of frontier NOs:
       0.9591   1.0527
    Number of electrons: 16.000000
    Number of unpaired electrons: n_u =  2.35515, n_u,nl =  2.06202
    NO participation ratio (PR_NO):  3.020928
  
  
  Mulliken Population Analysis
  Atom      Charge (e)              h+              e-           Del q
  --------------------------------------------------------------------
   1 H        0.145963        0.120214       -0.025391        0.094823
   2 C       -0.302376        0.270064       -0.471896       -0.201831
   3 H        0.154825        0.127381       -0.023204        0.104177
   4 C       -0.302565        0.274282       -0.475980       -0.201698
   5 H        0.154918        0.130804       -0.025592        0.105212
   6 H        0.149235        0.121762       -0.022445        0.099317
  --------------------------------------------------------------------
  Sum:        0.000000        1.044507       -1.044507       -0.000000
  
  Multipole moment analysis of the density matrix
    Molecular charge:                      0.000000
    Number of electrons:                   16.000000
      Center of electronic charge [Ang]: [ -1.560015,  -0.065243,   0.001967]
    Total nuclear charge:                  16.000000
      Center of nuclear charge [Ang]:    [ -1.560576,  -0.064977,   0.001978]
    Dipole moment [D]:                     0.047712
      Cartesian components [D]:          [ -0.043103,   0.020440,   0.000851]
    RMS size of the density [Ang]:         1.200015
      Cartesian components [Ang]:        [  0.787195,   0.767993,   0.480154]
  
  Exciton analysis of the difference density matrix
    <r_h> [Ang]:                  [ -1.565897,  -0.057112,   0.002238]
    <r_e> [Ang]:                  [ -1.558101,  -0.060497,   0.002217]
    |<r_e - r_h>| [Ang]:            0.008499
    Hole size [Ang]:                1.486364
      Cartesian components [Ang]: [  0.994554,   1.007051,   0.453862]
    Electron size [Ang]:            1.475878
      Cartesian components [Ang]: [  0.879702,   0.858971,   0.816400]

  Transition density matrix analysis:
  -----------------------------------
  
  CT numbers (Mulliken)
    omega =     0.9218
    <Phe> =    -0.0122
  
  Exciton analysis of the transition density matrix
    Trans. dipole moment [D]:             0.011248
      Cartesian components [D]:         [ -0.007341,   0.006828,   0.005098]
    <r_h> [Ang]:                        [ -1.567065,  -0.055938,   0.002286]
    <r_e> [Ang]:                        [ -1.556998,  -0.061255,   0.002179]
    |<r_e - r_h>| [Ang]:                  0.011385
    Hole size [Ang]:                      1.515268
      Cartesian components [Ang]:       [  1.016805,   1.032241,   0.443425]
    Electron size [Ang]:                  1.472932
      Cartesian components [Ang]:       [  0.870359,   0.848074,   0.832331]
    RMS electron-hole separation [Ang]:   2.093345
      Cartesian components [Ang]:       [  1.322563,   1.320956,   0.942336]
    Covariance(r_h, r_e) [Ang^2]:         0.041801
    Correlation coefficient:              0.018729
    Center-of-mass size [Ang]:            1.066439
      Cartesian components [Ang]:       [  0.677082,   0.675390,   0.471912]

  Decomposition into state-averaged NTOs
    H- 1 -> L+ 0:  0.6619 ( 87.6%)
    H- 0 -> L+ 2:  0.1464 (  4.3%)
                   omega =  92.2%
  ----------------------------------------------------------------------------


  Excited state 3 (singlet, A)                                     [converged]
  ----------------------------------------------------------------------------
  Term symbol:  4 (1) A                                     R^2 =  2.14824e-13

  Total energy:                                            -77.9822352704 a.u.
  Excitation energy:                                               9.179444 eV

  Osc. strength:                                                      0.025435
  Trans. dip. moment [a.u.]:           [  -0.015635,   -0.020246,    0.335329]
  <i|r^2|0> [a.u.]:                    [  -0.095487,   -0.002739,   -0.001122]
  Two-photon absorption cross-section (SoS) [a.u.]:                   0.006490
  Two-photon absorption matrix (SoS) [a.u.]:
                                       |   -0.018783    0.000519   -0.009338 |
                                       |    0.000519    0.021429   -0.017301 |
                                       |   -0.009338   -0.017301   -0.005689 |
  Two-photon absorption cross-section [a.u.]:                         0.006758
  Two-photon absorption matrix [a.u.]:
                                       |   -0.015023    0.001055   -0.002621 |
                                       |    0.001055    0.015939   -0.024113 |
                                       |   -0.002621   -0.024113   -0.004822 |

  Dip. moment [a.u.]:                  [  -0.029778,   -0.000167,   -0.001819]
  Total dipole [Debye]:                                               0.075831
  <r^2> [a.u.]:                        [ 180.691167,   40.630860,   11.030034]
  Total <r^2> [a.u.]:                                               232.352062

  V1^2 = 0.9587, V2^2 = 0.0413

  Important amplitudes:
      occ i     occ j     vir a      vir b          v   
    -----------------------------------------------------
     8 (A) A             10 (A) A                -0.6890
     8 (A) A             24 (A) A                -0.0507
     8 (A) A             18 (A) A                 0.0311
     4 (A) A              9 (A) A                 0.0237
     8 (A) A   8 (A) B    9 (A) A   12 (A) B     -0.0219
     8 (A) A   8 (A) B   10 (A) A   17 (A) B     -0.0173
     5 (A) A   8 (A) B   11 (A) A   10 (A) B     -0.0166
     8 (A) A             15 (A) A                -0.0165
     7 (A) A   8 (A) B   13 (A) A   10 (A) B     -0.0141
     4 (A) A   8 (A) B   12 (A) A   10 (A) B      0.0111
     6 (A) A   8 (A) A   10 (A) A   15 (A) A     -0.0111
     7 (A) A   8 (A) B   22 (A) A   10 (A) B      0.0108
     6 (A) A   8 (A) B   15 (A) A   10 (A) B      0.0108
     4 (A) A   8 (A) A   10 (A) A   12 (A) A     -0.0106
     7 (A) A   8 (A) A   10 (A) A   22 (A) A     -0.0099
     7 (A) A   8 (A) A   10 (A) A   13 (A) A      0.0098
     5 (A) A   8 (A) B   21 (A) A   10 (A) B     -0.0094
     5 (A) A   8 (A) A   10 (A) A   11 (A) A      0.0094
     6 (A) A   8 (A) A   10 (A) A   18 (A) A     -0.0087
     6 (A) A   8 (A) B   10 (A) A   10 (A) B     -0.0087
     7 (A) A              9 (A) A                 0.0082
     7 (A) A   8 (A) A   12 (A) A   16 (A) A     -0.0082
     5 (A) A   8 (A) A   10 (A) A   21 (A) A      0.0080
     3 (A) A   4 (A) B   10 (A) A    9 (A) B     -0.0079
     8 (A) A   8 (A) B    9 (A) A   23 (A) B     -0.0075
     4 (A) A   8 (A) B   19 (A) A   10 (A) B     -0.0075
     8 (A) A   8 (A) B   10 (A) A   28 (A) B     -0.0073
     3 (A) A   8 (A) B   10 (A) A   10 (A) B     -0.0072
     5 (A) A   8 (A) B   10 (A) A   11 (A) B     -0.0071
     3 (A) A   8 (A) A   10 (A) A   24 (A) A      0.0071
     7 (A) A   8 (A) B   16 (A) A   12 (A) B      0.0071
     3 (A) A   8 (A) B   10 (A) A   18 (A) B      0.0069
     8 (A) A   8 (A) B    9 (A) A   19 (A) B      0.0068
     6 (A) A   8 (A) B   18 (A) A   10 (A) B      0.0066
     3 (A) A   6 (A) B   10 (A) A   28 (A) B      0.0062
     7 (A) A   8 (A) B   12 (A) A   11 (A) B     -0.0057
     6 (A) A             28 (A) A                -0.0057
     3 (A) A   5 (A) B   10 (A) A   25 (A) B      0.0056
     5 (A) A   8 (A) A   10 (A) A   16 (A) A     -0.0056
     3 (A) A   8 (A) A   10 (A) A   18 (A) A      0.0055
    -----------------------------------------------------

  Density matrix analysis:
  ------------------------
  NOs
    Occupation of frontier NOs:
       0.9816   0.9849
    Number of electrons: 16.000000
    Number of unpaired electrons: n_u =  2.28535, n_u,nl =  2.02443
    NO participation ratio (PR_NO):  2.692081
  
  
  Mulliken Population Analysis
  Atom      Charge (e)              h+              e-           Del q
  --------------------------------------------------------------------
   1 H       -0.168067        0.053670       -0.272876       -0.219206
   2 C        0.329988        0.539955       -0.109423        0.430532
   3 H       -0.165219        0.053913       -0.269780       -0.215867
   4 C        0.328387        0.536508       -0.107255        0.429253
   5 H       -0.165612        0.053940       -0.269257       -0.215318
   6 H       -0.159476        0.054109       -0.263503       -0.209394
  --------------------------------------------------------------------
  Sum:        0.000000        1.292095       -1.292095       -0.000000
  
  Multipole moment analysis of the density matrix
    Molecular charge:                      0.000000
    Number of electrons:                   16.000000
      Center of electronic charge [Ang]: [ -1.559591,  -0.064972,   0.002038]
    Total nuclear charge:                  16.000000
      Center of nuclear charge [Ang]:    [ -1.560576,  -0.064977,   0.001978]
    Dipole moment [D]:                     0.075831
      Cartesian components [D]:          [ -0.075688,  -0.000425,  -0.004623]
    RMS size of the density [Ang]:         1.276724
      Cartesian components [Ang]:        [  0.854454,   0.840768,   0.439364]
  
  Exciton analysis of the difference density matrix
    <r_h> [Ang]:                  [ -1.559221,  -0.066152,   0.001884]
    <r_e> [Ang]:                  [ -1.547668,  -0.065527,   0.002749]
    |<r_e - r_h>| [Ang]:            0.011602
    Hole size [Ang]:                1.410509
      Cartesian components [Ang]: [  0.834068,   0.820208,   0.788115]
    Electron size [Ang]:            2.077701
      Cartesian components [Ang]: [  1.374327,   1.378082,   0.727294]

  Transition density matrix analysis:
  -----------------------------------
  
  CT numbers (Mulliken)
    omega =     0.9259
    <Phe> =    -0.0108
  
  Exciton analysis of the transition density matrix
    Trans. dipole moment [D]:             0.427399
      Cartesian components [D]:         [ -0.019871,  -0.025730,   0.426161]
    <r_h> [Ang]:                        [ -1.560112,  -0.066515,   0.001741]
    <r_e> [Ang]:                        [ -1.543207,  -0.065865,   0.003015]
    |<r_e - r_h>| [Ang]:                  0.016965
    Hole size [Ang]:                      1.212978
      Cartesian components [Ang]:       [  0.636513,   0.623616,   0.822965]
    Electron size [Ang]:                  2.298453
      Cartesian components [Ang]:       [  1.519099,   1.525937,   0.804202]
    RMS electron-hole separation [Ang]:   2.589037
      Cartesian components [Ang]:       [  1.639658,   1.641470,   1.149005]
    Covariance(r_h, r_e) [Ang^2]:         0.025689
    Correlation coefficient:              0.009214
    Center-of-mass size [Ang]:            1.304375
      Cartesian components [Ang]:       [  0.827259,   0.827698,   0.576154]

  Decomposition into state-averaged NTOs
    H- 0 -> L+ 1: -0.6797 ( 92.4%)
                   omega =  92.6%
  ----------------------------------------------------------------------------


  Excited state 4 (singlet, A)                                     [converged]
  ----------------------------------------------------------------------------
  Term symbol:  5 (1) A                                     R^2 =  6.03394e-13

  Total energy:                                            -77.9580752396 a.u.
  Excitation energy:                                               9.836872 eV

  Osc. strength:                                                      0.000004
  Trans. dip. moment [a.u.]:           [  -0.002251,    0.001873,    0.003010]
  <i|r^2|0> [a.u.]:                    [  -0.031397,   -0.017863,    0.036430]
  Two-photon absorption cross-section (SoS) [a.u.]:                 150.222273
  Two-photon absorption matrix (SoS) [a.u.]:
                                       |   -0.291915   -0.326182    3.032598 |
                                       |   -0.326182   -0.360342    3.025649 |
                                       |    3.032598    3.025649    0.652162 |
  Two-photon absorption cross-section [a.u.]:                        91.965471
  Two-photon absorption matrix [a.u.]:
                                       |   -0.228578   -0.255151    2.362920 |
                                       |   -0.255151   -0.282023    2.377181 |
                                       |    2.362920    2.377181    0.510507 |

  Dip. moment [a.u.]:                  [   0.013171,    0.029030,    0.001945]
  Total dipole [Debye]:                                               0.081177
  <r^2> [a.u.]:                        [ 181.386357,   40.548513,   10.757947]
  Total <r^2> [a.u.]:                                               232.692818

  V1^2 = 0.9635, V2^2 = 0.0365

  Important amplitudes:
      occ i     occ j     vir a      vir b          v   
    -----------------------------------------------------
     8 (A) A             11 (A) A                 0.6700
     7 (A) A              9 (A) A                -0.1483
     8 (A) A             21 (A) A                 0.0782
     8 (A) A             16 (A) A                -0.0648
     8 (A) A   8 (A) B    9 (A) A   13 (A) B      0.0167
     5 (A) A   8 (A) B   11 (A) A   11 (A) B      0.0155
     8 (A) A             12 (A) A                 0.0150
     8 (A) A   8 (A) B   11 (A) A   17 (A) B      0.0140
     7 (A) A             20 (A) A                -0.0135
     7 (A) A   8 (A) B   13 (A) A   11 (A) B      0.0127
     5 (A) A   8 (A) A   11 (A) A   21 (A) A     -0.0110
     4 (A) A   8 (A) B   12 (A) A   11 (A) B     -0.0110
     8 (A) A   8 (A) B    9 (A) A   22 (A) B     -0.0108
     6 (A) A              9 (A) A                -0.0097
     7 (A) A   8 (A) A   11 (A) A   22 (A) A      0.0096
     6 (A) A   8 (A) B   15 (A) A   11 (A) B     -0.0090
     6 (A) A   8 (A) B   10 (A) A   11 (A) B      0.0090
     7 (A) A   8 (A) B   22 (A) A   11 (A) B     -0.0089
     3 (A) A   4 (A) B   11 (A) A    9 (A) B      0.0083
     3 (A) A   8 (A) B   11 (A) A   18 (A) B     -0.0081
     6 (A) A   8 (A) A   11 (A) A   15 (A) A      0.0081
     7 (A) A   8 (A) A   13 (A) A   16 (A) A      0.0078
     7 (A) A   8 (A) A   11 (A) A   13 (A) A     -0.0077
     5 (A) A   8 (A) B   21 (A) A   11 (A) B      0.0071
     4 (A) A   8 (A) B   19 (A) A   11 (A) B      0.0070
     5 (A) A   8 (A) B    9 (A) A    9 (A) B      0.0067
     4 (A) A   8 (A) A   11 (A) A   12 (A) A      0.0062
     6 (A) A   8 (A) A   11 (A) A   18 (A) A      0.0062
     3 (A) A   6 (A) B   11 (A) A   28 (A) B     -0.0060
     6 (A) A   8 (A) B   18 (A) A   11 (A) B     -0.0059
     7 (A) A   8 (A) B   16 (A) A   13 (A) B     -0.0057
     3 (A) A   8 (A) A   11 (A) A   18 (A) A     -0.0056
     5 (A) A   8 (A) B   10 (A) A   10 (A) B      0.0056
     3 (A) A   8 (A) B   11 (A) A   30 (A) B     -0.0055
     3 (A) A   5 (A) B   11 (A) A   25 (A) B     -0.0055
     6 (A) A   8 (A) B   11 (A) A   10 (A) B      0.0054
     7 (A) A   8 (A) B   12 (A) A   10 (A) B      0.0054
     8 (A) A   8 (A) B   20 (A) A   22 (A) B     -0.0053
     3 (A) A   8 (A) A   11 (A) A   24 (A) A     -0.0053
     5 (A) A   8 (A) A   11 (A) A   16 (A) A      0.0048
    -----------------------------------------------------

  Density matrix analysis:
  ------------------------
  NOs
    Occupation of frontier NOs:
       0.9418   1.0267
    Number of electrons: 16.000000
    Number of unpaired electrons: n_u =  2.31889, n_u,nl =  2.04832
    NO participation ratio (PR_NO):  2.907714
  
  
  Mulliken Population Analysis
  Atom      Charge (e)              h+              e-           Del q
  --------------------------------------------------------------------
   1 H       -0.142096        0.045296       -0.238531       -0.193235
   2 C        0.275917        0.498058       -0.121596        0.376462
   3 H       -0.134902        0.046924       -0.232473       -0.185550
   4 C        0.273573        0.497177       -0.122738        0.374439
   5 H       -0.124462        0.047064       -0.221231       -0.174167
   6 H       -0.148031        0.045550       -0.243499       -0.197949
  --------------------------------------------------------------------
  Sum:        0.000000        1.180068       -1.180068       -0.000000
  
  Multipole moment analysis of the density matrix
    Molecular charge:                      -0.000000
    Number of electrons:                   16.000000
      Center of electronic charge [Ang]: [ -1.561012,  -0.065937,   0.001914]
    Total nuclear charge:                  16.000000
      Center of nuclear charge [Ang]:    [ -1.560576,  -0.064977,   0.001978]
    Dipole moment [D]:                     0.081177
      Cartesian components [D]:          [  0.033477,   0.073787,   0.004944]
    RMS size of the density [Ang]:         1.277274
      Cartesian components [Ang]:        [  0.858968,   0.839835,   0.433912]
  
  Exciton analysis of the difference density matrix
    <r_h> [Ang]:                  [ -1.560838,  -0.066021,   0.001802]
    <r_e> [Ang]:                  [ -1.567448,  -0.078429,   0.001061]
    |<r_e - r_h>| [Ang]:            0.014078
    Hole size [Ang]:                1.394353
      Cartesian components [Ang]: [  0.817148,   0.807037,   0.790684]
    Electron size [Ang]:            2.124022
      Cartesian components [Ang]: [  1.441904,   1.404520,   0.678014]

  Transition density matrix analysis:
  -----------------------------------
  
  CT numbers (Mulliken)
    omega =     0.9298
    <Phe> =    -0.0135
  
  Exciton analysis of the transition density matrix
    Trans. dipole moment [D]:             0.005336
      Cartesian components [D]:         [ -0.002860,   0.002380,   0.003825]
    <r_h> [Ang]:                        [ -1.560474,  -0.065222,   0.001813]
    <r_e> [Ang]:                        [ -1.568952,  -0.080788,   0.000892]
    |<r_e - r_h>| [Ang]:                  0.017749
    Hole size [Ang]:                      1.227511
      Cartesian components [Ang]:       [  0.656429,   0.650505,   0.807916]
    Electron size [Ang]:                  2.262539
      Cartesian components [Ang]:       [  1.536572,   1.496357,   0.720378]
    RMS electron-hole separation [Ang]:   2.563433
      Cartesian components [Ang]:       [  1.662391,   1.623887,   1.081960]
    Covariance(r_h, r_e) [Ang^2]:         0.027496
    Correlation coefficient:              0.009900
    Center-of-mass size [Ang]:            1.292368
      Cartesian components [Ang]:       [  0.839708,   0.819713,   0.541458]

  Decomposition into state-averaged NTOs
    H- 0 -> L+ 2: -0.6654 ( 88.6%)
    H- 1 -> L+ 0:  0.1463 (  4.3%)
                   omega =  93.0%
  ----------------------------------------------------------------------------


  Excited state 5 (singlet, A)                                     [converged]
  ----------------------------------------------------------------------------
  Term symbol:  6 (1) A                                     R^2 =  3.93973e-13

  Total energy:                                            -77.9440361116 a.u.
  Excitation energy:                                              10.218896 eV

  Osc. strength:                                                      0.000000
  Trans. dip. moment [a.u.]:           [  -0.000225,   -0.000390,    0.000019]
  <i|r^2|0> [a.u.]:                    [  -0.088860,    0.102461,   -0.015133]
  Two-photon absorption cross-section (SoS) [a.u.]:                 190.590421
  Two-photon absorption matrix (SoS) [a.u.]:
                                       |   -0.330611   -0.042170    3.459971 |
                                       |   -0.042170    0.406226   -3.422041 |
                                       |    3.459971   -3.422041   -0.078719 |
  Two-photon absorption cross-section [a.u.]:                        88.894856
  Two-photon absorption matrix [a.u.]:
[...]
    16   -1.490509519971e-03
    17   -1.763857514570e-03
    18   -1.068642928730e-04
    19   -3.410983937634e-03
    20    1.037780528703e-02
    21    9.302025211324e-01
    22   -2.786912412994e-04
    23    1.394871636401e-02
    24    8.106227063174e-04
    25    6.998558359067e-02
    26   -5.185148474885e-02
    27   -1.397977872525e+00
    28    9.616757605628e-02
    29   -9.398657667733e-02
    30   -1.122540364227e-03
    31    3.837937498155e-01
    32   -3.696818518946e-01
    33   -4.160521991304e-03
    34    1.576534822910e-02
    35   -1.498725485504e-03
    36   -1.785799400542e-03
    37   -2.664456005961e-04
    38   -2.990938225681e-03
    39    9.521582980714e-03
    40    9.377258346351e-01
    41    2.414228633989e-05
    42   -1.394790838182e-02
    43   -8.405942764627e-04
    44    8.854406238208e-03
    45    9.367481468647e-01
    46    1.413746885466e-02
    47    3.564780036705e-04
    48    6.932547930171e-04
Sym=X
Ene= 0.233164
Spin=Alpha
Occup=0
     1    2.637520596937e-02
     2    1.237452074457e+00
     3   -1.426448349820e-02
     4   -3.873047707710e-03
     5   -8.974228109282e-04
     6    3.151742009077e-03
     7   -3.899638960946e-03
     8   -4.367921689245e-02
     9   -1.545648946777e-01
    10   -1.594185611947e-01
    11   -1.665125860846e-02
    12   -5.586398585941e-01
    13   -5.607716377300e-01
    14   -5.917110516013e-02
    15    4.835391971559e-04
    16   -5.459691816165e-05
    17   -6.944036409807e-05
    18   -7.122360590558e-05
    19   -3.556410545298e-04
    20   -2.511151028914e-02
    21   -1.164887733731e+00
    22   -2.458460804655e-03
    23   -1.361506544673e-02
    24   -9.176478440540e-04
    25   -3.687496460730e-03
    26    4.251093995115e-03
    27    5.889376941988e-02
    28   -1.549125682397e-01
    29   -1.576662875154e-01
    30   -1.692691627237e-02
    31   -5.523756449529e-01
    32   -5.438764819658e-01
    33   -5.937002190571e-02
    34   -6.429588529961e-04
    35    9.729672867969e-05
    36    4.731098406419e-05
    37    3.854289013782e-04
    38    4.357817093977e-04
    39    2.537346040424e-02
    40    1.141819341022e+00
    41   -2.320087652846e-03
    42   -1.343343897388e-02
    43   -9.214866895532e-04
    44   -2.633404518141e-02
    45   -1.233448564922e+00
    46   -1.441895486670e-02
    47   -3.829212058792e-03
    48   -9.217412176552e-04
Sym=X
Ene= 0.239268
Spin=Alpha
Occup=0
     1   -1.575772691700e-02
     2   -1.037709495970e+00
     3    1.629468198742e-02
     4    9.082083907550e-03
     5    1.317754548328e-03
     6   -8.638262747077e-02
     7    7.989402652082e-02
     8    1.586302343399e+00
     9    5.164336793304e-02
    10   -6.162603652503e-02
    11   -1.114140603956e-03
    12    2.050852071564e-01
    13   -2.436857641253e-01
    14   -4.311013340788e-03
    15   -2.247934248360e-02
    16    2.598149009090e-03
    17    2.961590276388e-03
    18   -6.455468675241e-04
    19    1.276698019091e-02
    20   -1.730614143384e-02
    21   -1.134167334630e+00
    22   -8.536380826304e-03
    23   -1.788434482106e-02
    24   -1.460436445855e-03
    25    8.636430888121e-02
    26   -7.908056386263e-02
    27   -1.596937816860e+00
    28    5.257697267046e-02
    29   -6.225254163163e-02
    30   -1.355824922073e-03
    31    2.149103936407e-01
    32   -2.455564581360e-01
    33   -5.005401163170e-03
    34    2.270912507244e-02
    35   -2.614571156508e-03
    36   -3.004301569172e-03
    37    4.015636072191e-04
    38   -1.266355651825e-02
    39    1.645198375075e-02
    40    1.133870177939e+00
    41   -8.866865309379e-03
    42   -1.785814994401e-02
    43   -1.498265281341e-03
    44    1.522214035167e-02
    45    1.050334029136e+00
    46    1.655549953786e-02
    47    9.315857370993e-03
    48    1.334613945821e-03
Sym=X
Ene= 0.303321
Spin=Alpha
Occup=0
     1    2.107956154923e-02
     2   -1.692093840711e+00
     3    2.308368116951e-02
     4   -2.406963548836e-04
     5    1.081988720752e-03
     6   -1.060057810017e-04
     7   -3.553504560584e-04
     8    1.267248752468e-02
     9    1.339792244501e-01
    10    1.387362685852e-01
    11    1.451950132090e-02
    12    1.140249246002e+00
    13    1.195022668615e+00
    14    1.249626583535e-01
    15   -9.228786392152e-05
    16    1.685063076950e-03
    17   -1.850968547244e-03
    18    3.296210368898e-02
    19    1.698294839849e-03
    20   -2.008526706383e-02
    21    1.682027621118e+00
    22   -1.501041361531e-03
    23    2.283046341386e-02
    24    1.272771528549e-03
    25    2.470772658619e-04
    26   -2.526391532779e-04
    27    1.368653534203e-03
    28   -1.354378459684e-01
    29   -1.405311348865e-01
    30   -1.490978003624e-02
    31   -1.146437222906e+00
    32   -1.190779342020e+00
    33   -1.257263600167e-01
    34    1.003474279235e-04
    35    1.622151495190e-03
    36   -1.915520737338e-03
    37    3.273705757817e-02
    38    1.591804717164e-03
    39   -1.895843224098e-02
    40    1.696920388052e+00
    41    1.765635360022e-03
    42   -2.302898728094e-02
    43   -1.299833693002e-03
    44    2.037752578366e-02
    45   -1.702999727936e+00
    46   -2.305440106194e-02
    47    5.862024703752e-04
    48   -1.063575136447e-03
Sym=X
Ene= 0.462577
Spin=Alpha
Occup=0
     1   -1.164601936749e-01
     2   -7.167724511006e-01
     3   -1.553440914191e-02
     4   -1.054653250264e-02
     5   -1.352080942396e-03
     6    6.101857860591e-02
     7    1.737766800432e-02
     8   -3.600219184129e+00
     9    1.022729154131e-01
    10   -9.802314057025e-02
    11   -9.497974538212e-04
    12    2.435225068419e+00
    13   -2.311041153479e+00
    14   -2.119584069284e-02
    15    5.394320195209e-02
    16   -3.388829925884e-03
    17   -4.696278806989e-03
    18   -3.785955797150e-04
    19    1.766160456509e-02
    20   -1.236661182010e-01
    21   -7.017644015856e-01
    22    8.870198195751e-03
    23    1.650343001773e-02
    24    1.393595359559e-03
    25   -6.128228473463e-02
    26   -1.516607391130e-02
    27    3.597320789996e+00
    28    1.054614919535e-01
    29   -1.019283348358e-01
    30   -1.173456001403e-03
    31    2.427313863907e+00
    32   -2.303359276069e+00
    33   -2.176377118120e-02
    34   -5.194653397297e-02
    35    3.193085306824e-03
    36    4.432854937070e-03
    37    6.341628712728e-04
    38   -1.970820489717e-02
    39    1.132179249010e-01
    40    7.101981950366e-01
    41    8.179941392625e-03
    42    1.609034864040e-02
    43    1.354458672615e-03
    44    1.043680068720e-01
    45    7.321098216102e-01
    46   -1.526800979760e-02
    47   -1.013666006258e-02
    48   -1.344372272502e-03
Sym=X
Ene= 0.578005
Spin=Alpha
Occup=0
     1    2.479465122311e-01
     2    3.422751270970e-02
     3   -1.850646939139e-02
     4    2.506695017860e-02
     5    6.057184197820e-04
     6   -4.020384567895e-03
     7   -1.588732189765e-01
     8   -4.959444625310e-01
     9    3.008556049595e-01
    10   -2.902303327547e-01
    11   -2.947747330013e-03
    12   -7.006319551157e-01
    13    6.780917490414e-01
    14    7.032212279497e-03
    15   -4.984448003103e-03
    16    3.805520785858e-03
    17    3.628478190227e-03
    18   -4.074588029811e-03
    19    5.999627214154e-02
    20    2.504870131805e-01
    21    2.379092185424e-02
    22   -2.665017539561e-02
    23    1.716162871074e-02
    24   -2.486256654245e-04
    25   -6.441324049923e-03
    26   -1.601497711390e-01
    27   -3.826713326020e-01
    28   -2.956590527026e-01
    29    2.869928271293e-01
    30    2.981950421822e-03
    31    7.817027646699e-01
    32   -7.596531524022e-01
    33   -8.173381963222e-03
    34   -4.813473832630e-03
    35    3.737992701295e-03
    36    3.672582167892e-03
    37   -5.102073787664e-03
    38    5.986751134401e-02
    39    2.527241572018e-01
    40    5.634658292609e-02
    41    2.714056148541e-02
    42   -1.719854702140e-02
    43    2.603563330842e-04
    44    2.402217233094e-01
    45    7.644620571593e-02
    46    1.945872363336e-02
    47   -2.634246672838e-02
    48   -6.536465319456e-04
Sym=X
Ene= 0.614134
Spin=Alpha
Occup=0
     1   -5.190465765802e-01
     2    1.985581617108e-01
     3   -6.125030295522e-02
     4    3.793323547403e-02
     5   -6.811337309225e-04
     6   -6.154332108225e-04
     7    6.099403839653e-04
     8   -3.799065218895e-02
     9   -3.948677833948e-02
    10   -3.974455762194e-02
    11   -4.298370777757e-03
    12    3.056704217486e-01
    13    2.723657903300e-01
    14    3.029287903341e-02
    15    2.190086831699e-03
    16   -7.513873211506e-03
    17    8.217869086925e-03
    18   -1.469576177348e-01
    19   -5.441185586600e-03
    20    5.079010238097e-01
    21   -2.062616410674e-01
    22    4.142505530364e-02
    23   -5.787260269947e-02
    24   -1.472647099891e-03
    25    7.375510193601e-04
    26   -1.092277974021e-04
    27    2.600560949710e-02
    28   -4.380370862715e-02
    29   -3.924683521550e-02
    30   -4.370006866254e-03
    31    3.274283264975e-01
    32    2.757144510429e-01
    33    3.242885449339e-02
    34   -2.308439341680e-03
    35    7.551071522193e-03
    36   -8.448130372837e-03
    37    1.490540847834e-01
    38    5.685424107758e-03
    39   -5.106332277732e-01
    40    2.127273099036e-01
    41    4.098672728875e-02
    42   -5.826985233416e-02
    43   -1.528722986797e-03
    44    5.283149142361e-01
    45   -1.989156723522e-01
    46   -6.121588385127e-02
    47    3.647294938510e-02
    48   -7.064340032769e-04
Sym=X
Ene= 0.689146
Spin=Alpha
Occup=0
     1    1.983080923508e-04
     2    1.553739533067e-04
     3    1.032396334506e-03
     4    1.243156291112e-03
     5   -2.101077637455e-02
     6    1.604501260405e-05
     7    2.030073102552e-04
     8   -4.001537588798e-05
     9    3.162970499915e-02
    10    3.975197270777e-02
    11   -6.704723718820e-01
    12   -2.909496590110e-02
    13   -3.609769495555e-02
    14    6.137801411988e-01
    15   -1.338310282821e-03
    16    8.261865061294e-02
    17   -7.827962418489e-02
    18   -8.655301043543e-03
    19   -1.138338101222e-03
    20    2.750426918520e-04
    21   -2.075950935171e-04
    22    9.398896561164e-04
    23    1.172492076916e-03
    24   -2.093300211223e-02
    25    8.294994478783e-06
    26    2.797306695979e-04
    27   -2.613724772274e-04
    28    3.207848132319e-02
    29    4.002066530462e-02
    30   -6.698890196165e-01
    31   -2.965767483289e-02
    32   -3.650811757828e-02
    33    6.131404816690e-01
    34    1.180144384806e-03
    35   -8.287877086465e-02
    36    7.853103627775e-02
    37    8.546179682251e-03
    38    1.195483532533e-03
    39    1.479230088807e-04
    40   -4.391856226428e-04
    41    1.038509275415e-03
    42    1.345005529857e-03
    43   -2.106937500295e-02
    44    6.635539348478e-05
    45   -7.103781473825e-05
    46    9.733482835435e-04
    47    1.305163222353e-03
    48   -2.152495515874e-02
Sym=X
Ene= 0.709630
Spin=Alpha
Occup=0
     1   -4.820024347965e-01
     2    1.677513364876e-01
     3   -8.168074480141e-02
     4   -4.463152094074e-02
     5   -6.532206332557e-03
     6   -4.866632411123e-02
     7   -3.187509632089e-01
     8    5.440085740816e-01
     9    2.020200421011e-01
    10   -1.892770335186e-01
    11   -1.944059736654e-03
    12   -1.119443703186e-01
    13    9.130468624533e-02
    14    2.872537623683e-04
    15    1.950948044569e-01
    16   -2.068621509319e-02
    17   -2.404313853601e-02
    18    2.301972592710e-03
    19   -7.864905181402e-02
    20   -4.822842787822e-01
    21    1.544843315497e-01
    22    4.149159722668e-02
    23    8.175459685848e-02
    24    6.789501961040e-03
    25   -4.591761793841e-02
    26   -3.227981423221e-01
    27    4.447744920019e-01
    28   -2.013851269778e-01
    29    1.911151271691e-01
    30    1.510106782945e-03
    31    3.995923020711e-02
    32   -2.623272255705e-02
    33    8.412295223562e-04
    34    1.931169509104e-01
    35   -2.040895525813e-02
    36   -2.381101970321e-02
    37    2.468819794611e-03
    38   -7.456818654083e-02
    39   -4.727856350549e-01
    40    1.249922540869e-01
    41   -4.104278901339e-02
    42   -8.037888658224e-02
    43   -6.764756245589e-03
    44   -4.695670181530e-01
    45    1.312588589255e-01
    46    8.007704597137e-02
    47    4.374597077642e-02
    48    6.434698874896e-03
Sym=X
Ene= 0.784728
Spin=Alpha
Occup=0
     1    5.204205816804e-01
     2   -4.602605890291e-01
     3    1.090142660721e-01
     4    2.558090606749e-02
     5    6.675927135338e-03
     6    9.049241835962e-02
     7   -2.188303021685e-01
     8   -6.129686965300e-01
     9    1.131237903196e-01
    10   -1.057096409469e-01
    11   -3.958757401357e-04
    12    3.034010023605e-01
    13   -2.830782343424e-01
    14   -3.351147348193e-03
    15   -2.052923260609e-01
    16    1.725376021551e-02
    17    2.160040490472e-02
    18   -2.529260344112e-03
    19    7.537161871309e-03
    20    5.340037400763e-01
    21   -4.664540742138e-01
    22   -1.958261891622e-02
    23   -1.126855886126e-01
    24   -7.578583543208e-03
    25   -9.172322411148e-02
    26    2.089953308336e-01
    27    6.500202552344e-01
    28    1.130722126869e-01
    29   -1.054495052437e-01
    30   -1.340124342266e-03
    31    2.888198946225e-01
    32   -2.701534696020e-01
    33   -1.373059114418e-03
    34    2.096267408937e-01
    35   -1.776356150484e-02
    36   -2.242192811236e-02
    37    1.903539751498e-03
    38   -7.363029509483e-03
    39   -5.480340042558e-01
    40    4.605565697441e-01
    41   -2.121039648415e-02
    42   -1.133523648426e-01
    43   -7.809127943938e-03
    44   -5.332115145779e-01
    45    4.519617486443e-01
    46    1.102307183604e-01
    47    2.658472167998e-02
    48    6.854551383394e-03
Sym=X
Ene= 0.807951
Spin=Alpha
Occup=0
     1    3.088344228916e-04
     2   -8.414290212181e-04
     3    1.746854953783e-03
     4    2.037225171822e-03
     5   -3.379166467588e-02
     6    6.036439467010e-05
     7   -1.886080305946e-04
     8   -4.841174924838e-05
     9    3.614236038644e-02
    10    4.485677979185e-02
    11   -7.628777933906e-01
    12   -5.298750396904e-02
    13   -6.651530334691e-02
    14    1.126908989686e+00
    15    8.281482433790e-04
    16   -6.520061761606e-02
    17    6.185353608926e-02
    18    6.914144101225e-03
    19    8.932882757544e-04
    20    2.960054410242e-04
    21    1.579831752785e-04
    22    1.687056388709e-03
    23    2.007194166809e-03
    24   -3.447339396055e-02
    25   -5.494013020206e-05
    26    5.453721896852e-05
    27    1.350588880892e-04
    28   -3.644534258555e-02
    29   -4.593225355312e-02
    30    7.633121797515e-01
    31    5.423820599654e-02
    32    6.754815846365e-02
    33   -1.127102797823e+00
    34    1.174797029116e-03
    35   -6.519832703295e-02
    36    6.178387863082e-02
    37    6.643244208175e-03
    38    9.591077849776e-04
    39   -2.997374915328e-04
    40   -1.256205138477e-04
    41   -1.573585718351e-03
    42   -2.114845478854e-03
    43    3.429903092156e-02
    44   -3.087524326865e-04
    45    8.696479757054e-04
    46   -1.429963668593e-03
    47   -1.988921030059e-03
    48    3.368830347923e-02
Sym=X
Ene= 0.862316
Spin=Alpha
Occup=0
     1    1.665922648987e-02
     2   -1.097594678456e+00
     3    1.490553889994e-01
     4    5.621986061920e-02
     5    1.039386090891e-02
     6    4.145642749822e-04
     7   -3.505749480927e-03
     8    5.172565809712e-03
     9   -4.058763378213e-01
    10   -4.310389261837e-01
    11   -4.439010012931e-02
    12    9.433564252416e-01
    13    1.002178160707e+00
    14    1.032424362232e-01
    15   -1.095414776956e-03
    16    1.179316380237e-02
    17   -1.352760628423e-02
    18    2.357925001762e-01
    19    8.613556766345e-03
    20   -1.537708462019e-02
    21    1.106990573857e+00
    22    5.025454222632e-02
    23    1.514933598299e-01
    24    1.136004168162e-02
    25   -6.126486109860e-04
    26   -6.488866280664e-05
    27   -2.928683127601e-03
    28   -4.045588592119e-01
    29   -4.289617398238e-01
    30   -4.531374727995e-02
    31    9.452112471180e-01
    32    9.993457960992e-01
    33    1.056442155394e-01
    34    1.980011081463e-03
    35   -1.191059752188e-02
    36    1.361357352773e-02
    37   -2.378578374369e-01
    38   -7.974009776384e-03
    39    9.729606433460e-03
    40   -1.102370666159e+00
    41    4.842793923386e-02
    42    1.513995684811e-01
    43    1.138833524141e-02
    44   -1.185473722567e-02
    45    1.092782740587e+00
    46    1.491086336317e-01
    47    5.355225256344e-02
    48    1.027989264349e-02
Sym=X
Ene= 0.936122
Spin=Alpha
Occup=0
     1    1.138200415455e-01
     2   -1.282300992463e+00
     3    1.814645929341e-01
     4   -4.987236415915e-03
     5    8.319393480327e-03
     6   -1.578398442091e-04
     7    5.283804814962e-03
     8   -1.039776097353e-02
     9   -4.758823304753e-01
    10   -4.951074187347e-01
    11   -5.190648840027e-02
    12    1.475481907552e+00
    13    1.524625577992e+00
    14    1.603585004074e-01
    15    1.130570511709e-03
    16    5.878429659760e-03
    17   -6.914203410777e-03
    18    1.203271646269e-01
    19    4.456268896336e-03
    20   -1.165925151177e-01
    21    1.276338717534e+00
    22   -1.216976603750e-02
    23    1.824798644387e-01
    24    1.017920314171e-02
    25    3.104577489468e-04
    26    8.632317341599e-03
    27   -4.117011348827e-03
    28    4.707853509503e-01
    29    5.018071296753e-01
    30    5.242677501487e-02
    31   -1.457515062952e+00
    32   -1.540286146573e+00
    33   -1.614708999850e-01
    34    3.541512279849e-04
    35    5.819290110769e-03
    36   -7.521714678558e-03
    37    1.230164992155e-01
    38   -3.056035512367e-04
    39   -1.192704947122e-01
    40    1.295620404237e+00
    41    1.248370960092e-02
    42   -1.842509873001e-01
    43   -1.045039328731e-02
    44    1.145182778174e-01
    45   -1.277499238027e+00
    46   -1.808232418125e-01
    47    8.582866333809e-03
    48   -8.118403727443e-03
Sym=X
Ene= 0.972834
Spin=Alpha
Occup=0
     1   -6.701144028611e-02
     2    9.255797670054e-01
     3   -9.178474745418e-02
     4   -9.917864065382e-02
     5   -1.026466073480e-02
     6    2.526988665425e-02
     7    2.683454257898e-01
     8    4.908170054722e-01
     9    4.785312906569e-01
    10   -4.592259022773e-01
    11   -4.408295559903e-03
    12   -1.482377025494e+00
    13    1.428337292399e+00
    14    1.402050702509e-02
    15   -5.332751900122e-02
    16   -1.300524709554e-02
    17   -9.779149462128e-03
    18    1.336574235706e-02
    19   -3.025058737336e-01
    20   -6.168332633841e-02
    21    9.295156068082e-01
    22    9.591877550603e-02
    23    9.600091978585e-02
    24    1.024035265639e-02
    25   -2.479533434438e-02
    26   -2.270713247424e-01
    27   -5.592585103090e-01
    28    4.804590589404e-01
    29   -4.487757421451e-01
    30   -4.045647540879e-03
    31   -1.502714189824e+00
    32    1.395215999819e+00
    33    1.205335744705e-02
    34    5.080843222621e-02
    35    1.293529484119e-02
    36    9.627336713135e-03
    37   -1.105404431178e-02
    38    2.964568833631e-01
    39    6.334231537326e-02
    40   -8.863118753062e-01
    41    9.423056800530e-02
    42    9.005764111074e-02
    43    9.906531468453e-03
    44    6.669075250255e-02
    45   -9.255766918537e-01
    46   -9.138637633484e-02
    47   -9.675863225682e-02
    48   -1.006318562164e-02
[5D]

======= END OF MOLDEN-FORMATTED INPUT FILE =======


        *************************************************************
        *                                                           *
        *  Thank you very much for using Q-Chem.  Have a nice day.  *
        *                                                           *
        *************************************************************


