                  Welcome to Q-Chem
     A Quantum Leap Into The Future Of Chemistry


 Q-Chem 5.4 (devel), Q-Chem, Inc., Pleasanton, CA (2021)

 E. Epifanovsky,  A. T. B. Gilbert,  Xintian Feng,  Joonho Lee,  Yuezhi Mao,  
 N. Mardirossian,  P. Pokhilko,  A. White,  M. Wormit,  M. P. Coons,  
 A. L. Dempwolff,  Zhengting Gan,  D. Hait,  P. R. Horn,  L. D. Jacobson,  
 I. Kaliman,  J. Kussmann,  A. W. Lange,  Ka Un Lao,  D. S. Levine,  Jie Liu,  
 S. C. McKenzie,  A. F. Morrison,  K. Nanda,  F. Plasser,  D. R. Rehn,  
 M. L. Vidal,  Zhi-Qiang You,  Ying Zhu,  B. Alam,  B. Albrecht,  
 A. Aldossary,  E. Alguire,  J. H. Andersen,  D. Barton,  K. Begam,  A. Behn,  
 Y. A. Bernard,  E. J. Berquist,  H. Burton,  A. Carreras,  K. Carter-Fenk,  
 R. Chakraborty,  A. D. Chien,  K. D. Closser,  V. Cofer-Shabica,  
 S. Dasgupta,  Jia Deng,  M. de Wergifosse,  M. Diedenhofen,  Hainam Do,  
 S. Ehlert,  Po-Tung Fang,  S. Fatehi,  Qingguo Feng,  T. Friedhoff,  
 J. Gayvert,  Qinghui Ge,  G. Gidofalvi,  M. Goldey,  J. Gomes,  
 C. Gonzalez-Espinoza,  S. Gulania,  A. Gunina,  M. W. D. Hanson-Heine,  
 P. H. P. Harbach,  A. W. Hauser,  M. F. Herbst,  M. Hernandez Vera,  
 M. Hodecker,  Z. C. Holden,  S. Houck,  Xunkun Huang,  Kerwin Hui,  
 B. C. Huynh,  M. Ivanov,  Hyunjun Ji,  Hanjie Jiang,  B. Kaduk,  S. Kaehler,  
 K. Khistyaev,  Jaehoon Kim,  P. Klunzinger,  Z. Koczor-Benda,  
 Joong Hoon Koh,  D. Kosenkov,  L. Koulias,  T. Kowalczyk,  C. M. Krauter,  
 K. Kue,  A. Kunitsa,  T. Kus,  A. Landau,  K. V. Lawler,  D. Lefrancois,  
 S. Lehtola,  Rain Li,  Yi-Pei Li,  Jiashu Liang,  M. Liebenthal,  
 Hung-Hsuan Lin,  You-Sheng Lin,  Fenglai Liu,  Kuan-Yu Liu,  
 M. Loipersberger,  A. Luenser,  A. Manjanath,  P. Manohar,  E. Mansoor,  
 S. F. Manzer,  Shan-Ping Mao,  A. V. Marenich,  T. Markovich,  S. Mason,  
 S. A. Maurer,  P. F. McLaughlin,  M. F. S. J. Menger,  J.-M. Mewes,  
 S. A. Mewes,  P. Morgante,  J. W. Mullinax,  K. J. Oosterbaan,  G. Paran,  
 Alexander C. Paul,  Suranjan K. Paul,  F. Pavosevic,  Zheng Pei,  S. Prager,  
 E. I. Proynov,  E. Ramos,  B. Rana,  A. E. Rask,  A. Rettig,  R. M. Richard,  
 F. Rob,  E. Rossomme,  T. Scheele,  M. Scheurer,  M. Schneider,  
 N. Sergueev,  S. M. Sharada,  W. Skomorowski,  D. W. Small,  C. J. Stein,  
 Yu-Chuan Su,  E. J. Sundstrom,  Zhen Tao,  J. Thirman,  T. Tsuchimochi,  
 N. M. Tubman,  S. P. Veccham,  O. Vydrov,  J. Wenzel,  J. Witte,  A. Yamada,  
 Kun Yao,  S. Yeganeh,  S. R. Yost,  A. Zech,  Igor Ying Zhang,  Xing Zhang,  
 Yu Zhang,  D. Zuev,  A. Aspuru-Guzik,  A. T. Bell,  N. A. Besley,  
 K. B. Bravaya,  B. R. Brooks,  D. Casanova,  Jeng-Da Chai,  S. Coriani,  
 C. J. Cramer,  A. E. DePrince, III,  R. A. DiStasio Jr.,  A. Dreuw,  
 B. D. Dunietz,  T. R. Furlani,  W. A. Goddard III,  S. Grimme,  
 S. Hammes-Schiffer,  T. Head-Gordon,  W. J. Hehre,  Chao-Ping Hsu,  
 T.-C. Jagau,  Yousung Jung,  A. Klamt,  Jing Kong,  D. S. Lambrecht,  
 WanZhen Liang,  N. J. Mayhall,  C. W. McCurdy,  J. B. Neaton,  
 C. Ochsenfeld,  J. A. Parkhill,  R. Peverati,  V. A. Rassolov,  Yihan Shao,  
 L. V. Slipchenko,  T. Stauch,  R. P. Steele,  J. E. Subotnik,  
 A. J. W. Thom,  A. Tkatchenko,  D. G. Truhlar,  T. Van Voorhis,  
 T. A. Wesolowski,  K. B. Whaley,  H. L. Woodcock III,  P. M. Zimmerman,  
 S. Faraji,  P. M. W. Gill,  M. Head-Gordon,  J. M. Herbert,  A. I. Krylov

 Additional authors for Version 5.4.1: 
 S. Kotaru,  Shaozhi Li,  Xiangyuan Li,  F. Matz,  A. Molle,  Haisheng Ren,  
 Yingli Su,  Hung-Yi Tsai,  C. Utku,  Fang Wang

 Contributors to earlier versions of Q-Chem not listed above: 
 R. D. Adamson,  B. Austin,  R. Baer,  J. Baker,  G. J. O. Beran,  
 K. Brandhorst,  S. T. Brown,  E. F. C. Byrd,  A. K. Chakraborty,  
 G. K. L. Chan,  Chun-Min Chang,  Yunqing Chen,  C.-L. Cheng,  
 Siu Hung Chien,  D. M. Chipman,  D. L. Crittenden,  H. Dachsel,  
 R. J. Doerksen,  A. D. Dutoi,  R. G. Edgar,  J. Fosso-Tande,  
 L. Fusti-Molnar,  D. Ghosh,  A. Ghysels,  A. Golubeva-Zadorozhnaya,  
 J. Gonthier,  M. S. Gordon,  S. R. Gwaltney,  G. Hawkins,  J. E. Herr,  
 A. Heyden,  S. Hirata,  E. G. Hohenstein,  G. Kedziora,  F. J. Keil,  
 C. Kelley,  Jihan Kim,  R. A. King,  R. Z. Khaliullin,  P. P. Korambath,  
 W. Kurlancheek,  A. Laurent,  A. M. Lee,  M. S. Lee,  S. V. Levchenko,  
 Ching Yeh Lin,  D. Liotard,  E. Livshits,  R. C. Lochan,  I. Lotan,  
 L. A. Martinez-Martinez,  P. E. Maslen,  N. Nair,  D. P. O'Neill,  
 D. Neuhauser,  E. Neuscamman,  C. M. Oana,  R. Olivares-Amaya,  R. Olson,  
 T. M. Perrine,  B. Peters,  P. A. Pieniazek,  A. Prociuk,  Y. M. Rhee,  
 J. Ritchie,  M. A. Rohrdanz,  E. Rosta,  N. J. Russ,  H. F. Schaefer III,  
 M. W. Schmidt,  N. E. Schultz,  S. Sharma,  N. Shenvi,  C. D. Sherrill,  
 A. C. Simmonett,  A. Sodt,  T. Stein,  D. Stuck,  K. S. Thanthiriwatte,  
 V. Vanovschi,  L. Vogt,  Tao Wang,  A. Warshel,  M. A. Watson,  
 C. F. Williams,  Q. Wu,  X. Xu,  Jun Yang,  W. Zhang,  Yan Zhao

 Please cite Q-Chem as follows:
 Y. Shao et al., Mol. Phys. 113, 184-215 (2015)
 DOI: 10.1080/00268976.2014.952696

 Q-Chem 5.4.1 for Intel X86 EM64T Linux

 Parts of Q-Chem use Armadillo 9.800.1 (Horizon Scraper).
 http://arma.sourceforge.net/

 Q-Chem begins on Thu Nov 17 00:23:30 2022  

 Host: cpu287.baobab
0

     Scratch files written to /scratch/fum/qchem85810//
 Processing $rem in /home/share/wesolowski/qc5.aug2021.FDE/config/preferences:
 Processing $rem in /home/fum/.qchemrc:

 Checking the input file for inconsistencies... 	...done.

--------------------------------------------------------------
User input:
--------------------------------------------------------------
$comment
generated from CCJob.Templates
$end

$rem
sym_ignore = true
method = adc(2)
ee_states = 10
basis = cc-pVDZ
mem_static = 1024
mem_total = 30000
adc_davidson_maxiter = 900
adc_davidson_conv = 6
adc_print = 3
adc_prop_es = true
adc_prop_es2es = true
adc_prop_tpa = true
molden_format = True
state_analysis = true
print_orbitals = 15
gen_scfman = false
fde_export_density = true
fde_details = 3
$end

$molecule
0 1
H -0.0348278765 -0.2442097827 0.0636489606
C -1.0765972949 -0.5242748755 -0.0023551776
H -1.313264467 -1.5767591607 -0.0757276926
C -2.043634118 0.3926884087 0.0061254933
H -1.8137616575 1.4459188338 0.0804456828
H -3.085977293 0.109931858 -0.0593381042                     
$end
--------------------------------------------------------------
 ----------------------------------------------------------------
             Standard Nuclear Orientation (Angstroms)
    I     Atom           X                Y                Z
 ----------------------------------------------------------------
    1      H      -0.0348278765    -0.2442097827     0.0636489606
    2      C      -1.0765972949    -0.5242748755    -0.0023551776
    3      H      -1.3132644670    -1.5767591607    -0.0757276926
    4      C      -2.0436341180     0.3926884087     0.0061254933
    5      H      -1.8137616575     1.4459188338     0.0804456828
    6      H      -3.0859772930     0.1099318580    -0.0593381042
 ----------------------------------------------------------------
 Nuclear Repulsion Energy =          33.42098865 hartrees
 There are        8 alpha and        8 beta electrons
 Requested basis set is cc-pVDZ
 There are 24 shells and 48 basis functions
 Total memory of 30000 MB is distributed as follows: 
   MEM_STATIC is set to 1024 MB
   QALLOC/CCMAN JOB total memory use is  28976 MB
 Warning: actual memory use might exceed 30000 MB

 Total QAlloc Memory Limit  30000 MB
 Mega-Array Size      1001 MB
 MEM_STATIC part      1024 MB

                       Distance Matrix (Angstroms)
             H (  1)   C (  2)   H (  3)   C (  4)   H (  5)
   C (  2)  1.080776
   H (  3)  1.851895  1.081258
   C (  4)  2.108139  1.332687  2.102109
   H (  5)  2.453859  2.105215  3.067812  1.080583
   H (  6)  3.074094  2.107860  2.446979  1.081996  1.850117

 A cutoff of  1.0D-11 yielded    300 shell pairs
 There are      1220 function pairs (      1329 Cartesian)
 Smallest overlap matrix eigenvalue = 4.80E-03

 Scale SEOQF with 1.000000e-01/1.000000e-01/1.000000e+00

 Standard Electronic Orientation quadrupole field applied
 Nucleus-field energy     =     0.0000000022 hartrees
 Guess from superposition of atomic densities
 Warning:  Energy on first SCF cycle will be non-variational
 SAD guess density has 16.000000 electrons
 A restricted Hartree-Fock SCF calculation will be
 performed using Pulay DIIS extrapolation
 SCF converges when DIIS error is below 1.0E-08
 using 8 threads for integral computing
 -------------------------------------------------------
 OpenMP Integral computing Module                
 Release: version 1.0, May 2013, Q-Chem Inc. Pittsburgh 
 -------------------------------------------------------
 ---------------------------------------
  Cycle       Energy         DIIS Error
 ---------------------------------------
    1     -78.4380719530      1.01E-01
    2     -78.0176876755      7.21E-03
    3     -78.0383182058      1.84E-03
    4     -78.0398011892      5.73E-04
    5     -78.0399228939      5.79E-05
    6     -78.0399247674      9.20E-06
    7     -78.0399248276      1.95E-06
    8     -78.0399248303      2.20E-07
    9     -78.0399248304      9.81E-08
   10     -78.0399248304      1.02E-08
   11     -78.0399248304      1.55E-09 Convergence criterion met
 ---------------------------------------
 SCF time:  CPU 3.05 s  wall 2.06 s
 SCF   energy in the final basis set = -78.03992483
 Total energy in the final basis set = -78.03992483
Exporting Density Matrix to file 'Densmat_SCF.txt'.
Export successful
================================================================================
|                                                                              |
|                                 A D C  M A N                                 |
|                                                                              |
 ------------------------------------------------------------------------------ 
|                                                                              |
| Components:                                                                  |
|                                                                              |
| - libvmm - 1.3-trunk                                                         |
|   Authors:                                                                   |
|   Evgeny Epifanovsky, Ilya Kaliman                                           |
|                                                                              |
| - libtensor - 2.5-trunk                                                      |
|   Authors:                                                                   |
|   Evgeny Epifanovsky, Michael Wormit, Dmitry Zuev, Sam Manzer,               |
|   Ilya Kaliman                                                               |
|                                                                              |
| - libwfa - 1.1-trunk                                                         |
|   Authors:                                                                   |
|   Felix Plasser, Stefanie Mewes (Baeppler), Benjamin Thomitzni,              |
|   Michael Wormit, Feng Chen, Anna I. Krylov, Pavel Pokhilko                  |
|                                                                              |
| - libadc - 1.1-trunk                                                         |
|   Authors:                                                                   |
|   Michael Wormit, Adrian L. Dempwolff, Philipp H. P. Harbach,                |
|   Caroline Krauter, Dirk Rehn, Matthias Schneider, Jan Wenzel                |
|                                                                              |
| - adcman - 2.6-trunk                                                         |
|   Authors:                                                                   |
|   Michael Wormit, Adrian L. Dempwolff, Philipp H. P. Harbach,                |
|   Caroline Krauter, Daniel Lefrancois, Jan-Michael Mewes, Dirk Rehn,         |
|   Matthias Schneider, Jan Wenzel, Andreas Dreuw                              |
|                                                                              |
| Authors of earlier versions of ADCMAN:                                       |
| Andreas Dreuw, Jan Hendrik Starcke, Dirk Rehn, Michael Wormit                |
|                                                                              |
================================================================================

 Created directory /scratch/fum/qchem85810/plots
  Import QC data ...  CPU 0.00 s  wall 0.00 s

 Alpha MOs, Restricted
 -- Occupied --                  
-11.235 -11.233  -1.032  -0.789  -0.641  -0.582  -0.505  -0.374
  1 A     2 A     3 A     4 A     5 A     6 A     7 A     8 A                  
 -- Virtual --                   
  0.168   0.204   0.233   0.239   0.303   0.462   0.577   0.616
  9 A    10 A    11 A    12 A    13 A    14 A    15 A    16 A                  
  0.689   0.709   0.784   0.808   0.862   0.936   0.972   1.009
 17 A    18 A    19 A    20 A    21 A    22 A    23 A    24 A                  
  1.130   1.235   1.256   1.266   1.293   1.601   1.725   1.749
 25 A    26 A    27 A    28 A    29 A    30 A    31 A    32 A                  
  1.819   1.860   1.867   1.922   1.977   1.978   2.220   2.258
 33 A    34 A    35 A    36 A    37 A    38 A    39 A    40 A                  
  2.376   2.454   2.504   2.631   2.721   2.821   3.141   3.397
 41 A    42 A    43 A    44 A    45 A    46 A    47 A    48 A                  

 Beta MOs, Restricted
 -- Occupied --                  
-11.235 -11.233  -1.032  -0.789  -0.641  -0.582  -0.505  -0.374
  1 A     2 A     3 A     4 A     5 A     6 A     7 A     8 A                  
 -- Virtual --                   
  0.168   0.204   0.233   0.239   0.303   0.462   0.577   0.616
  9 A    10 A    11 A    12 A    13 A    14 A    15 A    16 A                  
  0.689   0.709   0.784   0.808   0.862   0.936   0.972   1.009
 17 A    18 A    19 A    20 A    21 A    22 A    23 A    24 A                  
  1.130   1.235   1.256   1.266   1.293   1.601   1.725   1.749
 25 A    26 A    27 A    28 A    29 A    30 A    31 A    32 A                  
  1.819   1.860   1.867   1.922   1.977   1.978   2.220   2.258
 33 A    34 A    35 A    36 A    37 A    38 A    39 A    40 A                  
  2.376   2.454   2.504   2.631   2.721   2.821   3.141   3.397
 41 A    42 A    43 A    44 A    45 A    46 A    47 A    48 A                  
  Import AO data ...  CPU 0.00 s  wall 0.00 s
  Using point group: C1
  Irreducible representations in point group: A
  Molecular orbitals: 
  Occupied MOs:
  Block   0:   1 (  A) A   2 (  A) A   3 (  A) A   4 (  A) A   5 (  A) A
                  -11.24      -11.23      -1.032     -0.7895     -0.6413
               6 (  A) A   7 (  A) A   8 (  A) A
                 -0.5816     -0.5047      -0.374
  Block   1:   1 (  A) B   2 (  A) B   3 (  A) B   4 (  A) B   5 (  A) B
                  -11.24      -11.23      -1.032     -0.7895     -0.6413
               6 (  A) B   7 (  A) B   8 (  A) B
                 -0.5816     -0.5047      -0.374
  Virtual MOs:
  Block   0:   9 (  A) A  10 (  A) A  11 (  A) A  12 (  A) A  13 (  A) A
                  0.1684      0.2036      0.2329      0.2395      0.3032
              14 (  A) A  15 (  A) A  16 (  A) A  17 (  A) A  18 (  A) A
                  0.4618      0.5773      0.6157      0.6892      0.7085
              19 (  A) A  20 (  A) A  21 (  A) A  22 (  A) A
                  0.7845       0.808      0.8622      0.9358
  Block   1:  23 (  A) A  24 (  A) A  25 (  A) A  26 (  A) A  27 (  A) A
                  0.9723       1.009        1.13       1.235       1.256
              28 (  A) A  29 (  A) A  30 (  A) A  31 (  A) A  32 (  A) A
                   1.266       1.293       1.601       1.725       1.749
              33 (  A) A  34 (  A) A  35 (  A) A  36 (  A) A
                   1.819        1.86       1.867       1.922
  Block   2:  37 (  A) A  38 (  A) A  39 (  A) A  40 (  A) A  41 (  A) A
                   1.977       1.978        2.22       2.258       2.376
              42 (  A) A  43 (  A) A  44 (  A) A  45 (  A) A  46 (  A) A
                   2.454       2.504       2.631       2.721       2.821
              47 (  A) A  48 (  A) A
                   3.141       3.397
  Block   3:   9 (  A) B  10 (  A) B  11 (  A) B  12 (  A) B  13 (  A) B
                  0.1684      0.2036      0.2329      0.2395      0.3032
              14 (  A) B  15 (  A) B  16 (  A) B  17 (  A) B  18 (  A) B
                  0.4618      0.5773      0.6157      0.6892      0.7085
              19 (  A) B  20 (  A) B  21 (  A) B  22 (  A) B
                  0.7845       0.808      0.8622      0.9358
  Block   4:  23 (  A) B  24 (  A) B  25 (  A) B  26 (  A) B  27 (  A) B
                  0.9723       1.009        1.13       1.235       1.256
              28 (  A) B  29 (  A) B  30 (  A) B  31 (  A) B  32 (  A) B
                   1.266       1.293       1.601       1.725       1.749
              33 (  A) B  34 (  A) B  35 (  A) B  36 (  A) B
                   1.819        1.86       1.867       1.922
  Block   5:  37 (  A) B  38 (  A) B  39 (  A) B  40 (  A) B  41 (  A) B
                   1.977       1.978        2.22       2.258       2.376
              42 (  A) B  43 (  A) B  44 (  A) B  45 (  A) B  46 (  A) B
                   2.454       2.504       2.631       2.721       2.821
              47 (  A) B  48 (  A) B
                   3.141       3.397
  Import MO data ...  CPU 0.17 s  wall 0.06 s
  Import HF data ...  CPU 1.46 s  wall 0.50 s
  Import 2e integrals ...  CPU 3.13 s  wall 0.47 s

--------------------------------------------------------------------------------
                                   HF Summary                                   
--------------------------------------------------------------------------------
  Energy:                                                  -78.0399248304 a.u.
  Dip. moment [a.u.]:                  [  -0.000171,    0.000318,    0.000548]
  Total dipole [Debye]:                                               0.001669
  <r^2> [a.u.]:                        [ 175.328671,   34.912200,   11.627351]
  Total <r^2> [a.u.]:                                               221.868222
--------------------------------------------------------------------------------
  HF properties ...  CPU 0.05 s  wall 0.02 s
  MP(1) calculation ...  CPU 0.06 s  wall 0.03 s
  N^6 prerequesite intermediates ...  CPU 0.94 s  wall 0.27 s
  Difference density matrix of state mp2_gs printed to ASCII file 'State_mp2_gs_Difference.txt'
Exporting MP density matrix to file 'Densmat_MP.txt'.
Export successful
  Total density matrix of state mp2_gs printed to ASCII file 'State_mp2_gs_Total.txt'
Exporting MP density matrix to file 'Densmat_MP.txt'.
Export successful

--------------------------------------------------------------------------------
                                 MP(2) Summary                                  
--------------------------------------------------------------------------------
  MP energy contribution:                                   -0.2797258655 a.u.
  Total energy:                                            -78.3196506959 a.u.
  Dip. moment [a.u.]:                  [  -0.000251,    0.000184,    0.000530]
  Total dipole [Debye]:                                               0.001561
  <r^2> [a.u.]:                        [ 175.374502,   34.952995,   11.459091]
  Total <r^2> [a.u.]:                                               221.786588

  Density matrix analysis:
  ------------------------
  NOs
    Occupation of frontier NOs:
       0.0453   1.9383
    Number of electrons: 16.000000
    Number of unpaired electrons: n_u =  0.40351, n_u,nl =  0.04509
    NO participation ratio (PR_NO): 13.858738
  
  
  Mulliken Population Analysis
  Atom      Charge (e)              h+              e-           Del q
  --------------------------------------------------------------------
   1 H        0.050856        0.014039       -0.011202        0.002837
   2 C       -0.100845        0.093172       -0.098860       -0.005688
   3 H        0.050491        0.014077       -0.011191        0.002886
   4 C       -0.101718        0.093124       -0.098913       -0.005789
   5 H        0.050338        0.014092       -0.011193        0.002898
   6 H        0.050877        0.014054       -0.011198        0.002856
  --------------------------------------------------------------------
  Sum:       -0.000000        0.242557       -0.242557        0.000000
  
  Multipole moment analysis of the density matrix
    Molecular charge:                      -0.000000
    Number of electrons:                   16.000000
      Center of electronic charge [Ang]: [ -1.560568,  -0.065921,   0.001961]
    Total nuclear charge:                  16.000000
      Center of nuclear charge [Ang]:    [ -1.560576,  -0.065915,   0.001978]
    Dipole moment [D]:                     0.001561
      Cartesian components [D]:          [ -0.000639,   0.000467,   0.001346]
    RMS size of the density [Ang]:         1.200808
      Cartesian components [Ang]:        [  0.796237,   0.779355,   0.447829]
  
  Exciton analysis of the difference density matrix
    <r_h> [Ang]:                  [ -1.560737,  -0.066108,   0.001855]
    <r_e> [Ang]:                  [ -1.560561,  -0.065815,   0.001896]
    |<r_e - r_h>| [Ang]:            0.000345
    Hole size [Ang]:                1.393738
      Cartesian components [Ang]: [  0.846871,   0.833968,   0.727882]
    Electron size [Ang]:            1.359724
      Cartesian components [Ang]: [  0.877867,   0.861765,   0.579274]
--------------------------------------------------------------------------------
  MP(2) calculation ...  CPU 0.92 s  wall 0.35 s
  Start ADC(2)-s ...  CPU 0.09 s  wall 0.05 s
  ADC(2) intermediates ...  CPU 0.08 s  wall 0.03 s
  Starting Davidson for singlet states of irrep A ... 
--------------------------------------------------------------------------------
   It NVec Conv  Avg. Norm  Max. Norm  Conv. states           Remark
--------------------------------------------------------------------------------
        10    0  1.330e-01  4.685e-01  0.4118 n n n n n n n n Guess.
    1   20    0  2.300e-02  1.108e-01  0.3263 n n n n n n n n 
    2   30    0  5.822e-03  2.492e-02  0.3215 n n n n n n n n 
    3   40    0  1.910e-03  1.230e-02  0.3211 n n n n n n n n 
    4   50    0  6.070e-04  4.443e-03  0.3211 n n n n n n n n 
    5   20    0  2.743e-04  2.023e-03  0.3211 n n n n n n n n Subspace collapsed.
    6   30    0  1.584e-04  1.366e-03  0.3211 n n n n n n n n 
    7   40    0  9.705e-05  7.097e-04  0.3211 n n n n n n n n 
    8   50    0  8.085e-05  7.422e-04  0.3211 n n n n n n n n 
    9   20    2  5.296e-05  4.983e-04  0.3211 n y n y n n n n Subspace collapsed.
   10   30    5  6.414e-05  6.163e-04  0.3211 n y y y y y n n 
   11   40    5  6.212e-05  6.163e-04  0.3211 n y y y y y n n 
   12   50    6  5.075e-05  5.065e-04  0.3211 y y y y y y n n 
   13   20    6  1.986e-05  1.979e-04  0.3211 y y y y y y n n Subspace collapsed.
   14   30    6  1.290e-05  1.284e-04  0.3211 y y y y y y n n 
   15   40    7  7.952e-06  7.858e-05  0.3211 y y y y y y n y 
   16   50    8  5.315e-06  5.292e-05  0.3211 y y y y y y n y 
   17   20    8  4.982e-06  4.976e-05  0.3211 y y y y y y n y Subspace collapsed.
   18   30    7  6.796e-06  6.791e-05  0.3211 y y y y y y n y 
   19   40    9  6.594e-06  6.593e-05  0.3211 y y y y y y y y 
   20   50    9  5.588e-06  5.588e-05  0.3211 y y y y y y y y 
   21   20    9  2.053e-06  2.053e-05  0.3211 y y y y y y y y Subspace collapsed.
   22   30    9  1.856e-06  1.856e-05  0.3211 y y y y y y y y 
   23   32    9  1.829e-06  1.828e-05  0.3211 y y y y y y y y 
   24   34    9  1.827e-06  1.827e-05  0.3211 y y y y y y y y 
   25   35    9  1.812e-06  1.812e-05  0.3211 y y y y y y y y 
   26   35    9  1.812e-06  1.812e-05  0.3211 y y y y y y y y 
   27   45    9  9.396e-07  9.395e-06  0.3211 y y y y y y y y 
   28   50    9  6.301e-07  6.301e-06  0.3211 y y y y y y y y 
   29   17    9  6.280e-07  6.280e-06  0.3211 y y y y y y y y Subspace collapsed.
   30   23    9  7.757e-07  7.757e-06  0.3211 y y y y y y y y 
   31   28    9  8.193e-07  8.193e-06  0.3211 y y y y y y y y 
   32   33    9  7.713e-07  7.713e-06  0.3211 y y y y y y y y 
   33   37    9  3.892e-07  3.892e-06  0.3211 y y y y y y y y 
   34   41    9  1.756e-07  1.756e-06  0.3211 y y y y y y y y 
   35   45   10  7.760e-08  7.760e-07  0.3211 y y y y y y y y Converged.
--------------------------------------------------------------------------------
  Davidson Summary: 
 ------------------------------------------------------------
  State  0: excitation energy =   0.3211 a.u.   (converged)
  State  1: excitation energy =   0.3328 a.u.   (converged)
  State  2: excitation energy =   0.3369 a.u.   (converged)
  State  3: excitation energy =   0.3613 a.u.   (converged)
  State  4: excitation energy =   0.3752 a.u.   (converged)
  State  5: excitation energy =   0.3871 a.u.   (converged)
  State  6: excitation energy =   0.4246 a.u.   (converged)
  State  7: excitation energy =   0.4471 a.u.   (converged)
  State  8: excitation energy =   0.4564 a.u.   (converged)
  State  9: excitation energy =   0.4647 a.u.   (converged)
 ------------------------------------------------------------

  Singlet states of irrep A ...  CPU 154.00 s  wall 48.69 s
  TDMs ...  CPU 1.11 s  wall 0.47 s
  SDMs ...  CPU 3.84 s  wall 0.92 s
  Starting TPA DIIS iterations ... 
------------------------------------ 
   It     Res. Norm  Remark
------------------------------------
                       Guess.
    1     4.404e+00  
    2     5.839e+00  
    3     1.078e+00  
    4     2.570e-01  
    5     6.577e-02  
    6     2.677e-02  
    7     8.241e-03  
    8     1.443e-03  
    9     5.346e-04  
   10     9.008e-05  
   11     2.823e-05  
   12     4.371e-06  
   13     1.410e-06  
   14     4.273e-07  Converged.
   ... Converged in 14 steps (norm: 4.27322e-07)
------------------------------------
  Starting TPA DIIS iterations ... 
------------------------------------ 
   It     Res. Norm  Remark
------------------------------------
                       Guess.
    1     4.184e+00  
    2     5.540e+00  
    3     1.029e+00  
    4     2.554e-01  
    5     6.537e-02  
    6     2.670e-02  
    7     8.108e-03  
    8     1.453e-03  
    9     5.369e-04  
   10     8.973e-05  
   11     2.833e-05  
   12     4.321e-06  
   13     1.418e-06  
   14     4.197e-07  Converged.
   ... Converged in 14 steps (norm: 4.19728e-07)
------------------------------------
  Starting TPA DIIS iterations ... 
------------------------------------ 
   It     Res. Norm  Remark
------------------------------------
                       Guess.
    1     6.885e-01  
    2     4.832e-01  
    3     1.704e-01  
    4     5.967e-02  
    5     1.839e-02  
    6     6.655e-03  
    7     1.040e-03  
    8     4.491e-04  
    9     1.238e-04  
   10     3.030e-05  
   11     5.187e-06  
   12     1.604e-06  
   13     8.918e-07  Converged.
   ... Converged in 13 steps (norm: 8.91757e-07)
------------------------------------
  Starting TPA DIIS iterations ... 
------------------------------------ 
   It     Res. Norm  Remark
------------------------------------
                       Guess.
    1     4.693e+00  
    2     6.359e+00  
    3     1.159e+00  
    4     2.858e-01  
    5     7.416e-02  
    6     3.044e-02  
    7     9.355e-03  
    8     1.635e-03  
    9     6.105e-04  
   10     1.034e-04  
   11     3.275e-05  
   12     5.112e-06  
   13     1.662e-06  
   14     5.030e-07  Converged.
   ... Converged in 14 steps (norm: 5.0299e-07)
------------------------------------
  Starting TPA DIIS iterations ... 
------------------------------------ 
   It     Res. Norm  Remark
------------------------------------
                       Guess.
    1     4.458e+00  
    2     6.032e+00  
    3     1.106e+00  
    4     2.838e-01  
    5     7.373e-02  
    6     3.038e-02  
    7     9.206e-03  
    8     1.647e-03  
    9     6.132e-04  
   10     1.030e-04  
   11     3.284e-05  
   12     5.051e-06  
   13     1.669e-06  
   14     4.939e-07  Converged.
   ... Converged in 14 steps (norm: 4.93941e-07)
------------------------------------
  Starting TPA DIIS iterations ... 
------------------------------------ 
   It     Res. Norm  Remark
------------------------------------
                       Guess.
    1     7.007e-01  
    2     5.007e-01  
    3     1.803e-01  
    4     6.756e-02  
    5     1.982e-02  
    6     7.278e-03  
    7     1.175e-03  
    8     5.302e-04  
    9     1.501e-04  
   10     3.488e-05  
   11     5.899e-06  
   12     1.895e-06  
   13     1.125e-06  
   14     4.253e-07  Converged.
   ... Converged in 14 steps (norm: 4.2528e-07)
------------------------------------
  Starting TPA DIIS iterations ... 
------------------------------------ 
   It     Res. Norm  Remark
------------------------------------
                       Guess.
    1     4.799e+00  
    2     6.552e+00  
    3     1.189e+00  
    4     2.967e-01  
    5     7.733e-02  
    6     3.184e-02  
    7     9.776e-03  
    8     1.708e-03  
    9     6.393e-04  
   10     1.085e-04  
   11     3.448e-05  
   12     5.397e-06  
   13     1.760e-06  
   14     5.322e-07  Converged.
   ... Converged in 14 steps (norm: 5.32165e-07)
------------------------------------
  Starting TPA DIIS iterations ... 
------------------------------------ 
   It     Res. Norm  Remark
------------------------------------
                       Guess.
    1     4.559e+00  
    2     6.215e+00  
    3     1.135e+00  
    4     2.945e-01  
    5     7.688e-02  
    6     3.178e-02  
    7     9.621e-03  
    8     1.721e-03  
    9     6.422e-04  
   10     1.081e-04  
   11     3.457e-05  
   12     5.331e-06  
   13     1.767e-06  
   14     5.226e-07  Converged.
   ... Converged in 14 steps (norm: 5.2259e-07)
------------------------------------
  Starting TPA DIIS iterations ... 
------------------------------------ 
   It     Res. Norm  Remark
------------------------------------
                       Guess.
    1     7.049e-01  
    2     5.070e-01  
    3     1.839e-01  
    4     7.059e-02  
    5     2.033e-02  
    6     7.513e-03  
    7     1.227e-03  
    8     5.619e-04  
    9     1.603e-04  
   10     3.630e-05  
   11     6.163e-06  
   12     2.010e-06  
   13     1.220e-06  
   14     4.563e-07  Converged.
   ... Converged in 14 steps (norm: 4.56281e-07)
------------------------------------
  Starting TPA DIIS iterations ... 
------------------------------------ 
   It     Res. Norm  Remark
------------------------------------
                       Guess.
    1     5.541e+00  
    2     7.935e+00  
    3     1.397e+00  
    4     3.771e-01  
    5     1.007e-01  
    6     4.224e-02  
    7     1.289e-02  
    8     2.242e-03  
    9     8.539e-04  
   10     1.464e-04  
   11     4.767e-05  
   12     7.567e-06  
   13     2.520e-06  
   14     7.571e-07  Converged.
   ... Converged in 14 steps (norm: 7.57127e-07)
------------------------------------
  Starting TPA DIIS iterations ... 
------------------------------------ 
   It     Res. Norm  Remark
------------------------------------
                       Guess.
    1     5.261e+00  
    2     7.526e+00  
    3     1.333e+00  
    4     3.736e-01  
    5     1.002e-01  
    6     4.223e-02  
    7     1.269e-02  
    8     2.263e-03  
    9     8.578e-04  
   10     1.459e-04  
   11     4.771e-05  
   12     7.467e-06  
   13     2.525e-06  
   14     7.444e-07  Converged.
   ... Converged in 14 steps (norm: 7.44363e-07)
------------------------------------
  Starting TPA DIIS iterations ... 
------------------------------------ 
   It     Res. Norm  Remark
------------------------------------
                       Guess.
    1     7.319e-01  
    2     5.485e-01  
    3     2.084e-01  
    4     9.367e-02  
    5     2.390e-02  
    6     9.256e-03  
    7     1.627e-03  
    8     8.023e-04  
    9     2.368e-04  
   10     4.226e-05  
   11     8.084e-06  
   12     2.908e-06  
   13     2.033e-06  
   14     7.110e-07  Converged.
   ... Converged in 14 steps (norm: 7.11032e-07)
------------------------------------
  Starting TPA DIIS iterations ... 
------------------------------------ 
   It     Res. Norm  Remark
------------------------------------
                       Guess.
    1     6.049e+00  
    2     8.914e+00  
    3     1.539e+00  
    4     4.362e-01  
    5     1.179e-01  
    6     4.999e-02  
    7     1.518e-02  
    8     2.634e-03  
    9     1.014e-03  
   10     1.746e-04  
   11     5.770e-05  
   12     9.216e-06  
   13     3.115e-06  
   14     9.329e-07  Converged.
   ... Converged in 14 steps (norm: 9.32888e-07)
------------------------------------
  Starting TPA DIIS iterations ... 
------------------------------------ 
   It     Res. Norm  Remark
------------------------------------
                       Guess.
    1     5.742e+00  
    2     8.455e+00  
    3     1.467e+00  
    4     4.316e-01  
    5     1.173e-01  
    6     5.002e-02  
    7     1.495e-02  
    8     2.660e-03  
    9     1.018e-03  
   10     1.740e-04  
   11     5.767e-05  
   12     9.090e-06  
   13     3.114e-06  
   14     9.189e-07  Converged.
   ... Converged in 14 steps (norm: 9.18879e-07)
------------------------------------
  Starting TPA DIIS iterations ... 
------------------------------------ 
   It     Res. Norm  Remark
------------------------------------
                       Guess.
    1     7.482e-01  
    2     5.749e-01  
    3     2.246e-01  
    4     1.113e-01  
    5     2.637e-02  
    6     1.055e-02  
    7     1.937e-03  
    8     9.751e-04  
    9     2.906e-04  
   10     4.347e-05  
   11     9.508e-06  
   12     3.617e-06  
   13     2.740e-06  
   14     9.255e-07  Converged.
   ... Converged in 14 steps (norm: 9.25528e-07)
------------------------------------
  Starting TPA DIIS iterations ... 
------------------------------------ 
   It     Res. Norm  Remark
------------------------------------
                       Guess.
    1     6.548e+00  
    2     9.902e+00  
    3     1.677e+00  
    4     4.974e-01  
    5     1.357e-01  
    6     5.807e-02  
    7     1.755e-02  
    8     3.038e-03  
    9     1.180e-03  
   10     2.040e-04  
   11     6.825e-05  
   12     1.095e-05  
   13     3.752e-06  
   14     1.124e-06  
   15     4.094e-07  Converged.
   ... Converged in 15 steps (norm: 4.09432e-07)
------------------------------------
  Starting TPA DIIS iterations ... 
------------------------------------ 
   It     Res. Norm  Remark
------------------------------------
                       Guess.
    1     6.215e+00  
    2     9.391e+00  
    3     1.598e+00  
    4     4.916e-01  
    5     1.351e-01  
    6     5.815e-02  
    7     1.729e-02  
    8     3.070e-03  
    9     1.185e-03  
   10     2.033e-04  
   11     6.813e-05  
   12     1.080e-05  
   13     3.743e-06  
   14     1.110e-06  
   15     3.513e-07  Converged.
   ... Converged in 15 steps (norm: 3.51333e-07)
------------------------------------
  Starting TPA DIIS iterations ... 
------------------------------------ 
   It     Res. Norm  Remark
------------------------------------
                       Guess.
    1     7.628e-01  
    2     5.997e-01  
    3     2.401e-01  
    4     1.299e-01  
    5     2.886e-02  
    6     1.189e-02  
    7     2.271e-03  
    8     1.141e-03  
    9     3.426e-04  
   10     4.387e-05  
   11     1.102e-05  
   12     4.382e-06  
   13     3.550e-06  
   14     1.170e-06  
   15     3.909e-07  Converged.
   ... Converged in 15 steps (norm: 3.909e-07)
------------------------------------
  Starting TPA DIIS iterations ... 
------------------------------------ 
   It     Res. Norm  Remark
------------------------------------
                       Guess.
    1     8.652e+00  
    2     1.431e+01  
    3     2.250e+00  
    4     7.827e-01  
    5     2.188e-01  
    6     9.658e-02  
    7     2.862e-02  
    8     4.913e-03  
    9     1.969e-03  
   10     3.431e-04  
   11     1.182e-04  
   12     1.922e-05  
   13     6.849e-06  
   14     2.153e-06  
   15     8.470e-07  Converged.
   ... Converged in 15 steps (norm: 8.4703e-07)
------------------------------------
  Starting TPA DIIS iterations ... 
------------------------------------ 
   It     Res. Norm  Remark
------------------------------------
                       Guess.
    1     8.208e+00  
    2     1.357e+01  
    3     2.143e+00  
    4     7.705e-01  
    5     2.179e-01  
    6     9.696e-02  
    7     2.821e-02  
    8     4.973e-03  
    9     1.977e-03  
   10     3.418e-04  
   11     1.175e-04  
   12     1.899e-05  
   13     6.757e-06  
   14     2.157e-06  
   15     6.500e-07  Converged.
   ... Converged in 15 steps (norm: 6.50006e-07)
------------------------------------
  Starting TPA DIIS iterations ... 
------------------------------------ 
   It     Res. Norm  Remark
------------------------------------
                       Guess.
    1     8.129e-01  
    2     6.933e-01  
    3     3.016e-01  
    4     2.182e-01  
    5     4.019e-02  
    6     1.813e-02  
    7     3.944e-03  
    8     1.670e-03  
    9     5.428e-04  
   10     5.222e-05  
   11     1.874e-05  
   12     8.179e-06  
   13     8.088e-06  
   14     2.592e-06  
   15     8.983e-07  Converged.
   ... Converged in 15 steps (norm: 8.98346e-07)
------------------------------------
  Starting TPA DIIS iterations ... 
------------------------------------ 
   It     Res. Norm  Remark
------------------------------------
                       Guess.
    1     1.049e+01  
    2     1.843e+01  
    3     2.737e+00  
    4     1.060e+00  
    5     3.002e-01  
    6     1.352e-01  
    7     3.946e-02  
    8     6.738e-03  
    9     2.757e-03  
   10     4.807e-04  
   11     1.657e-04  
   12     2.747e-05  
   13     9.904e-06  
   14     3.369e-06  
   15     1.408e-06  
   16     4.924e-07  Converged.
   ... Converged in 16 steps (norm: 4.92402e-07)
------------------------------------
  Starting TPA DIIS iterations ... 
------------------------------------ 
   It     Res. Norm  Remark
------------------------------------
                       Guess.
    1     9.947e+00  
    2     1.748e+01  
    3     2.605e+00  
    4     1.040e+00  
    5     2.991e-01  
    6     1.359e-01  
    7     3.891e-02  
    8     6.824e-03  
    9     2.766e-03  
   10     4.786e-04  
   11     1.646e-04  
   12     2.728e-05  
   13     9.667e-06  
   14     3.411e-06  
   15     9.959e-07  Converged.
   ... Converged in 15 steps (norm: 9.95935e-07)
------------------------------------
  Starting TPA DIIS iterations ... 
------------------------------------ 
   It     Res. Norm  Remark
------------------------------------
                       Guess.
    1     8.467e-01  
    2     7.647e-01  
    3     3.511e-01  
    4     3.006e-01  
    5     5.097e-02  
    6     2.390e-02  
    7     5.649e-03  
    8     1.890e-03  
    9     6.975e-04  
   10     7.063e-05  
   11     2.709e-05  
   12     1.203e-05  
   13     1.333e-05  
   14     4.379e-06  
   15     1.797e-06  
   16     1.319e-06  
   17     5.233e-07  Converged.
   ... Converged in 17 steps (norm: 5.23283e-07)
------------------------------------
  Starting TPA DIIS iterations ... 
------------------------------------ 
   It     Res. Norm  Remark
------------------------------------
                       Guess.
    1     1.142e+01  
    2     2.063e+01  
    3     2.981e+00  
    4     1.209e+00  
    5     3.445e-01  
    6     1.565e-01  
    7     4.535e-02  
    8     7.727e-03  
    9     3.190e-03  
   10     5.556e-04  
   11     1.908e-04  
   12     3.205e-05  
   13     1.161e-05  
   14     4.107e-06  
   15     1.792e-06  
   16     6.472e-07  Converged.
   ... Converged in 16 steps (norm: 6.47215e-07)
------------------------------------
  Starting TPA DIIS iterations ... 
------------------------------------ 
   It     Res. Norm  Remark
------------------------------------
                       Guess.
    1     1.084e+01  
    2     1.956e+01  
    3     2.837e+00  
    4     1.185e+00  
    5     3.433e-01  
    6     1.574e-01  
    7     4.472e-02  
    8     7.827e-03  
    9     3.199e-03  
   10     5.531e-04  
   11     1.895e-04  
   12     3.194e-05  
   13     1.127e-05  
   14     4.171e-06  
   15     1.240e-06  
   16     6.849e-07  Converged.
   ... Converged in 16 steps (norm: 6.84909e-07)
------------------------------------
  Starting TPA DIIS iterations ... 
------------------------------------ 
   It     Res. Norm  Remark
------------------------------------
                       Guess.
    1     8.616e-01  
    2     7.985e-01  
    3     3.752e-01  
    4     3.418e-01  
    5     5.670e-02  
    6     2.681e-02  
    7     6.573e-03  
    8     1.948e-03  
    9     7.722e-04  
   10     8.182e-05  
   11     3.188e-05  
   12     1.418e-05  
   13     1.646e-05  
   14     5.498e-06  
   15     2.482e-06  
   16     1.722e-06  
   17     7.045e-07  Converged.
   ... Converged in 17 steps (norm: 7.04525e-07)
------------------------------------
  Starting TPA DIIS iterations ... 
------------------------------------ 
   It     Res. Norm  Remark
------------------------------------
                       Guess.
    1     1.239e+01  
    2     2.294e+01  
    3     3.228e+00  
    4     1.365e+00  
    5     3.915e-01  
    6     1.793e-01  
    7     5.161e-02  
    8     8.776e-03  
    9     3.653e-03  
   10     6.352e-04  
   11     2.170e-04  
   12     3.702e-05  
   13     1.351e-05  
   14     4.948e-06  
   15     2.272e-06  
   16     8.413e-07  Converged.
   ... Converged in 16 steps (norm: 8.41348e-07)
------------------------------------
  Starting TPA DIIS iterations ... 
------------------------------------ 
   It     Res. Norm  Remark
------------------------------------
                       Guess.
    1     1.175e+01  
    2     2.175e+01  
    3     3.072e+00  
    4     1.337e+00  
    5     3.902e-01  
    6     1.804e-01  
    7     5.090e-02  
    8     8.891e-03  
    9     3.662e-03  
   10     6.323e-04  
   11     2.155e-04  
   12     3.703e-05  
   13     1.302e-05  
   14     5.031e-06  
   15     1.560e-06  
   16     8.952e-07  Converged.
   ... Converged in 16 steps (norm: 8.95247e-07)
------------------------------------
  Starting TPA DIIS iterations ... 
------------------------------------ 
   It     Res. Norm  Remark
------------------------------------
                       Guess.
    1     8.756e-01  
    2     8.317e-01  
    3     3.991e-01  
    4     3.821e-01  
    5     6.270e-02  
    6     2.970e-02  
    7     7.542e-03  
    8     1.990e-03  
    9     8.466e-04  
   10     9.377e-05  
   11     3.715e-05  
   12     1.654e-05  
   13     2.004e-05  
   14     6.794e-06  
   15     3.352e-06  
   16     2.186e-06  
   17     9.130e-07  Converged.
   ... Converged in 17 steps (norm: 9.13002e-07)
------------------------------------
  Two-photon absorbption ...  CPU 157.63 s  wall 38.24 s
  Transition density matrix of state singlet_A_1 printed to ASCII file 'State_singlet_A_1_Transition.txt'
  Transition density matrix of state singlet_A_2 printed to ASCII file 'State_singlet_A_2_Transition.txt'
  Transition density matrix of state singlet_A_3 printed to ASCII file 'State_singlet_A_3_Transition.txt'
  Transition density matrix of state singlet_A_4 printed to ASCII file 'State_singlet_A_4_Transition.txt'
  Transition density matrix of state singlet_A_5 printed to ASCII file 'State_singlet_A_5_Transition.txt'
  Transition density matrix of state singlet_A_6 printed to ASCII file 'State_singlet_A_6_Transition.txt'
  Transition density matrix of state singlet_A_7 printed to ASCII file 'State_singlet_A_7_Transition.txt'
  Transition density matrix of state singlet_A_8 printed to ASCII file 'State_singlet_A_8_Transition.txt'
  Transition density matrix of state singlet_A_9 printed to ASCII file 'State_singlet_A_9_Transition.txt'
  Transition density matrix of state singlet_A_10 printed to ASCII file 'State_singlet_A_10_Transition.txt'
  Transition properties ...  CPU 0.32 s  wall 0.45 s
  Difference density matrix of state singlet_A_1 printed to ASCII file 'State_singlet_A_1_Difference.txt'
  Total density matrix of state singlet_A_1 printed to ASCII file 'State_singlet_A_1_Total.txt'
  Difference density matrix of state singlet_A_2 printed to ASCII file 'State_singlet_A_2_Difference.txt'
  Total density matrix of state singlet_A_2 printed to ASCII file 'State_singlet_A_2_Total.txt'
  Difference density matrix of state singlet_A_3 printed to ASCII file 'State_singlet_A_3_Difference.txt'
  Total density matrix of state singlet_A_3 printed to ASCII file 'State_singlet_A_3_Total.txt'
  Difference density matrix of state singlet_A_4 printed to ASCII file 'State_singlet_A_4_Difference.txt'
  Total density matrix of state singlet_A_4 printed to ASCII file 'State_singlet_A_4_Total.txt'
  Difference density matrix of state singlet_A_5 printed to ASCII file 'State_singlet_A_5_Difference.txt'
  Total density matrix of state singlet_A_5 printed to ASCII file 'State_singlet_A_5_Total.txt'
  Difference density matrix of state singlet_A_6 printed to ASCII file 'State_singlet_A_6_Difference.txt'
  Total density matrix of state singlet_A_6 printed to ASCII file 'State_singlet_A_6_Total.txt'
  Difference density matrix of state singlet_A_7 printed to ASCII file 'State_singlet_A_7_Difference.txt'
  Total density matrix of state singlet_A_7 printed to ASCII file 'State_singlet_A_7_Total.txt'
  Difference density matrix of state singlet_A_8 printed to ASCII file 'State_singlet_A_8_Difference.txt'
  Total density matrix of state singlet_A_8 printed to ASCII file 'State_singlet_A_8_Total.txt'
  Difference density matrix of state singlet_A_9 printed to ASCII file 'State_singlet_A_9_Difference.txt'
  Total density matrix of state singlet_A_9 printed to ASCII file 'State_singlet_A_9_Total.txt'
  Difference density matrix of state singlet_A_10 printed to ASCII file 'State_singlet_A_10_Difference.txt'
  Total density matrix of state singlet_A_10 printed to ASCII file 'State_singlet_A_10_Total.txt'
  Properties ...  CPU 1.27 s  wall 0.91 s
  ISR TDMS ...  CPU 33.08 s  wall 8.76 s
  ISR transition properties ...  CPU 0.34 s  wall 0.12 s
  Sum-over-states TPA ...  CPU 0.00 s  wall 0.00 s

--------------------------------------------------------------------------------
                   State-averaged natural transition orbitals
--------------------------------------------------------------------------------
--------------------------------------------------------------------------------
  SA-NTO decomposition ...  CPU 0.01 s  wall 0.02 s

--------------------------------------------------------------------------------
                             Excited State Summary
--------------------------------------------------------------------------------
--------------------------------------------------------------------------------

  Excited state 1 (singlet, A)                                     [converged]
  ----------------------------------------------------------------------------
  Term symbol:  2 (1) A                                     R^2 =  1.94349e-13

  Total energy:                                            -77.9985526105 a.u.
  Excitation energy:                                               8.737523 eV

  Osc. strength:                                                      0.445711
  Trans. dip. moment [a.u.]:           [   1.046142,   -0.993794,   -0.009206]
  <i|r^2|0> [a.u.]:                    [   6.171008,   -0.248830,   -0.000140]
  Two-photon absorption cross-section (SoS) [a.u.]:                   0.000240
  Two-photon absorption matrix (SoS) [a.u.]:
                                       |    0.006315    0.000571   -0.000129 |
                                       |    0.000571   -0.002047    0.000126 |
                                       |   -0.000129    0.000126    0.001029 |
  Two-photon absorption cross-section [a.u.]:                         0.000392
  Two-photon absorption matrix [a.u.]:
                                       |    0.005137   -0.000369    0.000283 |
                                       |   -0.000369   -0.008054    0.001283 |
                                       |    0.000283    0.001283    0.000595 |

  Dip. moment [a.u.]:                  [  -0.000311,   -0.000002,    0.000642]
  Total dipole [Debye]:                                               0.001813
  <r^2> [a.u.]:                        [ 176.127900,   35.643422,   11.868829]
  Total <r^2> [a.u.]:                                               223.640150

  V1^2 = 0.9715, V2^2 = 0.0285

  Important amplitudes:
      occ i     occ j     vir a      vir b          v   
    -----------------------------------------------------
     8 (A) A              9 (A) A                 0.6811
     6 (A) A             14 (A) A                -0.0623
     4 (A) A             10 (A) A                 0.0608
     7 (A) A             16 (A) A                 0.0569
     5 (A) A             13 (A) A                -0.0513
     6 (A) A             23 (A) A                -0.0487
     8 (A) A             20 (A) A                 0.0350
     6 (A) A             19 (A) A                -0.0308
     3 (A) A             12 (A) A                 0.0281
     5 (A) A             22 (A) A                 0.0215
     7 (A) A             11 (A) A                 0.0211
     4 (A) A             24 (A) A                 0.0188
     3 (A) A             26 (A) A                -0.0185
     8 (A) A   8 (A) B   17 (A) A   20 (A) B     -0.0184
     8 (A) A   8 (A) B    9 (A) A   28 (A) B     -0.0168
     6 (A) A             26 (A) A                -0.0163
     7 (A) A             21 (A) A                 0.0149
     3 (A) A             14 (A) A                -0.0139
     6 (A) A             12 (A) A                -0.0133
     3 (A) A   4 (A) B    9 (A) A    9 (A) B     -0.0129
     3 (A) A             19 (A) A                -0.0119
     8 (A) A   8 (A) B   18 (A) A   19 (A) B      0.0113
     7 (A) A             32 (A) A                 0.0096
     7 (A) A             36 (A) A                 0.0086
     3 (A) A             23 (A) A                -0.0081
     8 (A) A   8 (A) B   25 (A) A   29 (A) B      0.0076
     6 (A) A             35 (A) A                -0.0073
     6 (A) A             40 (A) A                -0.0068
     3 (A) A   6 (A) B    9 (A) A   28 (A) B     -0.0065
     6 (A) A   8 (A) A   19 (A) A   28 (A) A     -0.0061
     5 (A) A   7 (A) B    9 (A) A    9 (A) B     -0.0060
     5 (A) A   8 (A) B   11 (A) A   20 (A) B     -0.0059
     7 (A) A   8 (A) B   13 (A) A   20 (A) B      0.0059
     5 (A) A   8 (A) B   16 (A) A    9 (A) B     -0.0059
     5 (A) A   8 (A) B   11 (A) A    9 (A) B      0.0059
     3 (A) A   5 (A) B    9 (A) A   25 (A) B     -0.0058
     3 (A) A             40 (A) A                -0.0057
     7 (A) A   8 (A) B   22 (A) A   20 (A) B     -0.0057
     6 (A) A   8 (A) A    9 (A) A   18 (A) A     -0.0057
     8 (A) A   8 (A) B   19 (A) A   30 (A) B      0.0056
    -----------------------------------------------------

  Density matrix analysis:
  ------------------------
  NOs
    Occupation of frontier NOs:
       0.9495   1.0217
    Number of electrons: 16.000000
    Number of unpaired electrons: n_u =  2.31346, n_u,nl =  2.03266
    NO participation ratio (PR_NO):  2.864305
  
  
  Mulliken Population Analysis
  Atom      Charge (e)              h+              e-           Del q
  --------------------------------------------------------------------
   1 H        0.058579        0.020268       -0.012545        0.007723
   2 C       -0.116092        0.490852       -0.506100       -0.015247
   3 H        0.058073        0.020182       -0.012600        0.007582
   4 C       -0.117144        0.490779       -0.506205       -0.015426
   5 H        0.057958        0.020185       -0.012565        0.007620
   6 H        0.058626        0.020295       -0.012546        0.007749
  --------------------------------------------------------------------
  Sum:       -0.000000        1.062561       -1.062561        0.000000
  
  Multipole moment analysis of the density matrix
    Molecular charge:                      -0.000000
    Number of electrons:                   16.000000
      Center of electronic charge [Ang]: [ -1.560566,  -0.065915,   0.001957]
    Total nuclear charge:                  16.000000
      Center of nuclear charge [Ang]:    [ -1.560576,  -0.065915,   0.001978]
    Dipole moment [D]:                     0.001813
      Cartesian components [D]:          [ -0.000791,  -0.000006,   0.001631]
    RMS size of the density [Ang]:         1.214243
      Cartesian components [Ang]:        [  0.804479,   0.787070,   0.455765]
  
  Exciton analysis of the difference density matrix
    <r_h> [Ang]:                  [ -1.560273,  -0.065880,   0.001709]
    <r_e> [Ang]:                  [ -1.560243,  -0.065787,   0.001653]
    |<r_e - r_h>| [Ang]:            0.000112
    Hole size [Ang]:                1.285429
      Cartesian components [Ang]: [  0.728487,   0.712583,   0.783491]
    Electron size [Ang]:            1.463189
      Cartesian components [Ang]: [  0.854013,   0.830507,   0.849613]

  Transition density matrix analysis:
  -----------------------------------
  
  CT numbers (Mulliken)
    omega =     0.9535
    <Phe> =    -0.1606
  
  Exciton analysis of the transition density matrix
    Trans. dipole moment [D]:             1.833815
      Cartesian components [D]:         [  1.329513,  -1.262986,  -0.011699]
    <r_h> [Ang]:                        [ -1.560162,  -0.065921,   0.001762]
    <r_e> [Ang]:                        [ -1.560264,  -0.065789,   0.001610]
    |<r_e - r_h>| [Ang]:                  0.000226
    Hole size [Ang]:                      1.214155
      Cartesian components [Ang]:       [  0.649616,   0.636413,   0.804457]
    Electron size [Ang]:                  1.486024
      Cartesian components [Ang]:       [  0.864457,   0.839385,   0.869719]
    RMS electron-hole separation [Ang]:   1.936620
      Cartesian components [Ang]:       [  1.106662,   1.075090,   1.170461]
    Covariance(r_h, r_e) [Ang^2]:        -0.034028
    Correlation coefficient:             -0.018860
    Center-of-mass size [Ang]:            0.950577
      Cartesian components [Ang]:       [  0.527701,   0.515597,   0.599406]

  Decomposition into state-averaged NTOs
    H- 0 -> L+ 0: -0.6699 ( 89.8%)
    H- 2 -> L+ 5: -0.0837 (  1.4%)
                   omega =  95.4%
  ----------------------------------------------------------------------------


  Excited state 2 (singlet, A)                                     [converged]
  ----------------------------------------------------------------------------
  Term symbol:  3 (1) A                                     R^2 =  1.34888e-13

  Total energy:                                            -77.9868094170 a.u.
  Excitation energy:                                               9.057072 eV

  Osc. strength:                                                      0.000011
  Trans. dip. moment [a.u.]:           [   0.001495,   -0.002612,    0.006456]
  <i|r^2|0> [a.u.]:                    [  -0.055949,   -0.086192,    0.150268]
  Two-photon absorption cross-section (SoS) [a.u.]:                   4.957559
  Two-photon absorption matrix (SoS) [a.u.]:
                                       |   -0.053275   -0.059040    0.544208 |
                                       |   -0.059040   -0.065086    0.556352 |
                                       |    0.544208    0.556352    0.118170 |
  Two-photon absorption cross-section [a.u.]:                         0.074614
  Two-photon absorption matrix [a.u.]:
                                       |    0.002014    0.006968   -0.061677 |
                                       |    0.006968    0.012483   -0.072716 |
                                       |   -0.061677   -0.072716   -0.014610 |

  Dip. moment [a.u.]:                  [   0.003525,    0.011594,    0.002065]
  Total dipole [Debye]:                                               0.031245
  <r^2> [a.u.]:                        [ 174.559062,   33.988712,   13.172155]
  Total <r^2> [a.u.]:                                               221.719928

  V1^2 = 0.9542, V2^2 = 0.0458

  Important amplitudes:
      occ i     occ j     vir a      vir b          v   
    -----------------------------------------------------
     7 (A) A              9 (A) A                 0.6689
     8 (A) A             11 (A) A                 0.1491
     7 (A) A             20 (A) A                 0.0759
     5 (A) A   8 (A) B    9 (A) A    9 (A) B     -0.0316
     8 (A) A             16 (A) A                -0.0274
     8 (A) A             21 (A) A                 0.0177
     5 (A) A             28 (A) A                -0.0151
     4 (A) A   7 (A) B    9 (A) A   19 (A) B      0.0135
     5 (A) A   7 (A) B    9 (A) A   16 (A) B      0.0134
     8 (A) A             10 (A) A                -0.0132
     7 (A) A   8 (A) B   20 (A) A   17 (A) B     -0.0105
     7 (A) A   8 (A) A    9 (A) A   28 (A) A      0.0098
     5 (A) A   8 (A) B    9 (A) A   20 (A) B     -0.0095
     4 (A) A   6 (A) B    9 (A) A   16 (A) B     -0.0091
     5 (A) A   6 (A) A    9 (A) A   23 (A) A     -0.0091
     5 (A) A   6 (A) A    9 (A) A   14 (A) A     -0.0089
     5 (A) A   6 (A) B    9 (A) A   19 (A) B     -0.0087
     8 (A) A   7 (A) B    9 (A) A   28 (A) B     -0.0085
     4 (A) A   5 (A) A    9 (A) A   10 (A) A     -0.0085
     6 (A) A   7 (A) B    9 (A) A   18 (A) B     -0.0083
     5 (A) A   6 (A) B    9 (A) A   23 (A) B     -0.0080
     3 (A) A   7 (A) B    9 (A) A   18 (A) B      0.0079
     5 (A) A   7 (A) A    9 (A) A   16 (A) A      0.0079
     4 (A) A   8 (A) B    9 (A) A   25 (A) B     -0.0077
     7 (A) A   8 (A) B   17 (A) A   20 (A) B     -0.0074
     4 (A) A   7 (A) B   19 (A) A    9 (A) B      0.0074
     5 (A) A   5 (A) B    9 (A) A   13 (A) B     -0.0072
     7 (A) A   8 (A) B   19 (A) A   18 (A) B      0.0072
     5 (A) A   8 (A) A    9 (A) A   20 (A) A     -0.0069
     4 (A) A   5 (A) B    9 (A) A   18 (A) B      0.0067
     7 (A) A   7 (A) B   20 (A) A   22 (A) B     -0.0065
     7 (A) A   8 (A) B   17 (A) A    9 (A) B     -0.0065
     5 (A) A   6 (A) B    9 (A) A   14 (A) B     -0.0063
     4 (A) A   7 (A) A    9 (A) A   19 (A) A      0.0061
     4 (A) A   5 (A) B   10 (A) A    9 (A) B      0.0061
     5 (A) A   7 (A) B   11 (A) A   20 (A) B     -0.0060
     4 (A) A   7 (A) B    9 (A) A   14 (A) B     -0.0060
     4 (A) A   8 (A) A    9 (A) A   25 (A) A     -0.0057
     6 (A) A   7 (A) A   19 (A) A   28 (A) A     -0.0057
     5 (A) A             38 (A) A                -0.0053
    -----------------------------------------------------

  Density matrix analysis:
  ------------------------
  NOs
    Occupation of frontier NOs:
       0.9571   1.0545
    Number of electrons: 16.000000
    Number of unpaired electrons: n_u =  2.35540, n_u,nl =  2.06335
    NO participation ratio (PR_NO):  3.032413
  
  
  Mulliken Population Analysis
  Atom      Charge (e)              h+              e-           Del q
  --------------------------------------------------------------------
   1 H        0.150614        0.122147       -0.022389        0.099758
   2 C       -0.301491        0.271231       -0.471878       -0.200647
   3 H        0.150404        0.126896       -0.026983        0.099912
   4 C       -0.302246        0.272592       -0.473120       -0.200528
   5 H        0.154375        0.126400       -0.022363        0.104037
   6 H        0.148344        0.124349       -0.026883        0.097467
  --------------------------------------------------------------------
  Sum:       -0.000000        1.043615       -1.043615       -0.000000
  
  Multipole moment analysis of the density matrix
    Molecular charge:                      -0.000000
    Number of electrons:                   16.000000
      Center of electronic charge [Ang]: [ -1.560693,  -0.066298,   0.001910]
    Total nuclear charge:                  16.000000
      Center of nuclear charge [Ang]:    [ -1.560576,  -0.065915,   0.001978]
    Dipole moment [D]:                     0.031245
      Cartesian components [D]:          [  0.008960,   0.029469,   0.005248]
    RMS size of the density [Ang]:         1.200139
      Cartesian components [Ang]:        [  0.786977,   0.768419,   0.480138]
  
  Exciton analysis of the difference density matrix
    <r_h> [Ang]:                  [ -1.564851,  -0.065940,   0.001838]
    <r_e> [Ang]:                  [ -1.566766,  -0.071726,   0.001059]
    |<r_e - r_h>| [Ang]:            0.006144
    Hole size [Ang]:                1.486273
      Cartesian components [Ang]: [  1.001728,   0.999322,   0.454865]
    Electron size [Ang]:            1.477947
      Cartesian components [Ang]: [  0.882416,   0.859713,   0.816433]

  Transition density matrix analysis:
  -----------------------------------
  
  CT numbers (Mulliken)
    omega =     0.9218
    <Phe> =    -0.0121
  
  Exciton analysis of the transition density matrix
    Trans. dipole moment [D]:             0.009052
      Cartesian components [D]:         [  0.001900,  -0.003319,   0.008205]
    <r_h> [Ang]:                        [ -1.565239,  -0.065597,   0.001914]
    <r_e> [Ang]:                        [ -1.566753,  -0.072316,   0.000944]
    |<r_e - r_h>| [Ang]:                  0.006956
    Hole size [Ang]:                      1.514710
      Cartesian components [Ang]:       [  1.024484,   1.023334,   0.444486]
    Electron size [Ang]:                  1.475044
      Cartesian components [Ang]:       [  0.873039,   0.849162,   0.832155]
    RMS electron-hole separation [Ang]:   2.094493
      Cartesian components [Ang]:       [  1.330168,   1.314882,   0.942677]
    Covariance(r_h, r_e) [Ang^2]:         0.041624
    Correlation coefficient:              0.018630
    Center-of-mass size [Ang]:            1.066929
      Cartesian components [Ang]:       [  0.680842,   0.672255,   0.472086]

  Decomposition into state-averaged NTOs
    H- 1 -> L+ 0: -0.6613 ( 87.5%)
    H- 0 -> L+ 2:  0.1489 (  4.4%)
                   omega =  92.2%
  ----------------------------------------------------------------------------


  Excited state 3 (singlet, A)                                     [converged]
  ----------------------------------------------------------------------------
  Term symbol:  4 (1) A                                     R^2 =  1.80432e-13

  Total energy:                                            -77.9827960682 a.u.
  Excitation energy:                                               9.166281 eV

  Osc. strength:                                                      0.025052
  Trans. dip. moment [a.u.]:           [   0.015160,    0.020337,   -0.333036]
  <i|r^2|0> [a.u.]:                    [   0.089015,    0.002138,    0.005220]
  Two-photon absorption cross-section (SoS) [a.u.]:                   0.006353
  Two-photon absorption matrix (SoS) [a.u.]:
                                       |    0.009519    0.002410   -0.020010 |
                                       |    0.002410   -0.004298   -0.017988 |
                                       |   -0.020010   -0.017988    0.000910 |
  Two-photon absorption cross-section [a.u.]:                         0.007652
  Two-photon absorption matrix [a.u.]:
                                       |    0.009596    0.001825   -0.023015 |
                                       |    0.001825   -0.000545   -0.019018 |
                                       |   -0.023015   -0.019018   -0.001401 |

  Dip. moment [a.u.]:                  [   0.017479,    0.017622,    0.001158]
  Total dipole [Debye]:                                               0.063155
  <r^2> [a.u.]:                        [ 180.962878,   40.593918,   11.027775]
  Total <r^2> [a.u.]:                                               232.584571

  V1^2 = 0.9587, V2^2 = 0.0413

  Important amplitudes:
      occ i     occ j     vir a      vir b          v   
    -----------------------------------------------------
     8 (A) A             10 (A) A                 0.6889
     8 (A) A             24 (A) A                 0.0507
     8 (A) A             18 (A) A                -0.0313
     4 (A) A              9 (A) A                 0.0238
     8 (A) A   8 (A) B    9 (A) A   12 (A) B      0.0219
     8 (A) A   8 (A) B   10 (A) A   17 (A) B      0.0173
     8 (A) A             15 (A) A                 0.0171
     5 (A) A   8 (A) B   11 (A) A   10 (A) B      0.0165
     7 (A) A   8 (A) B   13 (A) A   10 (A) B     -0.0141
     7 (A) A              9 (A) A                 0.0135
     4 (A) A   8 (A) B   12 (A) A   10 (A) B      0.0111
     6 (A) A   8 (A) A   10 (A) A   15 (A) A     -0.0110
     7 (A) A   8 (A) B   22 (A) A   10 (A) B      0.0108
     6 (A) A   8 (A) B   15 (A) A   10 (A) B      0.0107
     4 (A) A   8 (A) A   10 (A) A   12 (A) A     -0.0106
     7 (A) A   8 (A) A   10 (A) A   22 (A) A     -0.0099
     7 (A) A   8 (A) A   10 (A) A   13 (A) A      0.0097
     5 (A) A   8 (A) B   21 (A) A   10 (A) B      0.0094
     5 (A) A   8 (A) A   10 (A) A   11 (A) A     -0.0094
     6 (A) A   8 (A) A   10 (A) A   18 (A) A     -0.0088
     6 (A) A   8 (A) B   10 (A) A   10 (A) B     -0.0087
     7 (A) A   8 (A) A   12 (A) A   16 (A) A      0.0082
     5 (A) A   8 (A) A   10 (A) A   21 (A) A     -0.0079
     3 (A) A   4 (A) B   10 (A) A    9 (A) B     -0.0079
     4 (A) A   8 (A) B   19 (A) A   10 (A) B     -0.0075
     8 (A) A   8 (A) B    9 (A) A   23 (A) B      0.0075
     8 (A) A   8 (A) B   10 (A) A   28 (A) B     -0.0073
     3 (A) A   8 (A) B   10 (A) A   10 (A) B      0.0072
     5 (A) A   8 (A) B   10 (A) A   11 (A) B      0.0071
     3 (A) A   8 (A) A   10 (A) A   24 (A) A     -0.0071
     7 (A) A   8 (A) B   16 (A) A   12 (A) B     -0.0070
     3 (A) A   8 (A) B   10 (A) A   18 (A) B     -0.0069
     8 (A) A   8 (A) B    9 (A) A   19 (A) B     -0.0068
     6 (A) A   8 (A) B   18 (A) A   10 (A) B      0.0067
     3 (A) A   6 (A) B   10 (A) A   28 (A) B     -0.0062
     7 (A) A   8 (A) B   12 (A) A   11 (A) B      0.0058
     6 (A) A             28 (A) A                 0.0057
     3 (A) A   5 (A) B   10 (A) A   25 (A) B     -0.0056
     5 (A) A   8 (A) A   10 (A) A   16 (A) A      0.0056
     3 (A) A   8 (A) A   10 (A) A   18 (A) A     -0.0056
    -----------------------------------------------------

  Density matrix analysis:
  ------------------------
  NOs
    Occupation of frontier NOs:
       0.9818   0.9846
    Number of electrons: 16.000000
    Number of unpaired electrons: n_u =  2.28604, n_u,nl =  2.02457
    NO participation ratio (PR_NO):  2.693737
  
  
  Mulliken Population Analysis
  Atom      Charge (e)              h+              e-           Del q
  --------------------------------------------------------------------
   1 H       -0.159799        0.054058       -0.264713       -0.210655
   2 C        0.326320        0.537880       -0.110716        0.427164
   3 H       -0.166209        0.053657       -0.270357       -0.216701
   4 C        0.325684        0.537748       -0.110346        0.427401
   5 H       -0.160879        0.054052       -0.265269       -0.211217
   6 H       -0.165116        0.053747       -0.269740       -0.215993
  --------------------------------------------------------------------
  Sum:       -0.000000        1.291141       -1.291141       -0.000000
  
  Multipole moment analysis of the density matrix
    Molecular charge:                      -0.000000
    Number of electrons:                   16.000000
      Center of electronic charge [Ang]: [ -1.561154,  -0.066498,   0.001940]
    Total nuclear charge:                  16.000000
      Center of nuclear charge [Ang]:    [ -1.560576,  -0.065915,   0.001978]
    Dipole moment [D]:                     0.063155
      Cartesian components [D]:          [  0.044427,   0.044790,   0.002943]
    RMS size of the density [Ang]:         1.276329
      Cartesian components [Ang]:        [  0.854383,   0.840264,   0.439320]
  
  Exciton analysis of the difference density matrix
    <r_h> [Ang]:                  [ -1.560487,  -0.065926,   0.001817]
    <r_e> [Ang]:                  [ -1.567754,  -0.073073,   0.001560]
    |<r_e - r_h>| [Ang]:            0.010196
    Hole size [Ang]:                1.410204
      Cartesian components [Ang]: [  0.834034,   0.819720,   0.788114]
    Electron size [Ang]:            2.075299
      Cartesian components [Ang]: [  1.372921,   1.376363,   0.726346]

  Transition density matrix analysis:
  -----------------------------------
  
  CT numbers (Mulliken)
    omega =     0.9259
    <Phe> =    -0.0109
  
  Exciton analysis of the transition density matrix
    Trans. dipole moment [D]:             0.424472
      Cartesian components [D]:         [  0.019266,   0.025845,  -0.423246]
    <r_h> [Ang]:                        [ -1.559473,  -0.065195,   0.001764]
    <r_e> [Ang]:                        [ -1.570049,  -0.075430,   0.001446]
    |<r_e - r_h>| [Ang]:                  0.014721
    Hole size [Ang]:                      1.213059
      Cartesian components [Ang]:       [  0.636625,   0.623714,   0.822923]
    Electron size [Ang]:                  2.295109
      Cartesian components [Ang]:       [  1.517195,   1.523461,   0.802940]
    RMS electron-hole separation [Ang]:   2.586092
      Cartesian components [Ang]:       [  1.637881,   1.639231,   1.148102]
    Covariance(r_h, r_e) [Ang^2]:         0.025691
    Correlation coefficient:              0.009228
    Center-of-mass size [Ang]:            1.302922
      Cartesian components [Ang]:       [  0.826407,   0.826579,   0.575694]

  Decomposition into state-averaged NTOs
    H- 0 -> L+ 1:  0.6796 ( 92.4%)
                   omega =  92.6%
  ----------------------------------------------------------------------------


  Excited state 4 (singlet, A)                                     [converged]
  ----------------------------------------------------------------------------
  Term symbol:  5 (1) A                                     R^2 =  3.14316e-13

  Total energy:                                            -77.9583461968 a.u.
  Excitation energy:                                               9.831595 eV

  Osc. strength:                                                      0.000004
  Trans. dip. moment [a.u.]:           [  -0.000553,    0.000982,   -0.003655]
  <i|r^2|0> [a.u.]:                    [  -0.020544,   -0.018666,    0.036207]
  Two-photon absorption cross-section (SoS) [a.u.]:                 149.271580
  Two-photon absorption matrix (SoS) [a.u.]:
                                       |   -0.290321   -0.323997    3.003257 |
                                       |   -0.323997   -0.358399    3.036070 |
                                       |    3.003257    3.036070    0.648588 |
  Two-photon absorption cross-section [a.u.]:                        91.827511
  Two-photon absorption matrix [a.u.]:
                                       |   -0.230254   -0.254280    2.353151 |
                                       |   -0.254280   -0.278645    2.383635 |
                                       |    2.353151    2.383635    0.508757 |

  Dip. moment [a.u.]:                  [  -0.028007,   -0.027642,   -0.003739]
  Total dipole [Debye]:                                               0.100471
  <r^2> [a.u.]:                        [ 181.139754,   40.515659,   10.768611]
  Total <r^2> [a.u.]:                                               232.424024

  V1^2 = 0.9635, V2^2 = 0.0365

  Important amplitudes:
      occ i     occ j     vir a      vir b          v   
    -----------------------------------------------------
     8 (A) A             11 (A) A                 0.6695
     7 (A) A              9 (A) A                -0.1511
     8 (A) A             21 (A) A                 0.0780
     8 (A) A             16 (A) A                -0.0644
     8 (A) A   8 (A) B    9 (A) A   13 (A) B     -0.0167
     5 (A) A   8 (A) B   11 (A) A   11 (A) B      0.0155
     8 (A) A   8 (A) B   11 (A) A   17 (A) B      0.0140
     7 (A) A             20 (A) A                -0.0138
     7 (A) A   8 (A) B   13 (A) A   11 (A) B     -0.0127
     5 (A) A   8 (A) A   11 (A) A   21 (A) A     -0.0110
     4 (A) A   8 (A) B   12 (A) A   11 (A) B      0.0110
     8 (A) A   8 (A) B    9 (A) A   22 (A) B      0.0107
     8 (A) A             12 (A) A                 0.0101
     7 (A) A   8 (A) A   11 (A) A   22 (A) A     -0.0097
     6 (A) A   8 (A) B   15 (A) A   11 (A) B      0.0090
     6 (A) A   8 (A) B   10 (A) A   11 (A) B     -0.0090
     7 (A) A   8 (A) B   22 (A) A   11 (A) B      0.0089
     3 (A) A   4 (A) B   11 (A) A    9 (A) B     -0.0083
     3 (A) A   8 (A) B   11 (A) A   18 (A) B     -0.0081
     6 (A) A   8 (A) A   11 (A) A   15 (A) A     -0.0080
     7 (A) A   8 (A) A   13 (A) A   16 (A) A     -0.0078
     7 (A) A   8 (A) A   11 (A) A   13 (A) A      0.0077
     5 (A) A   8 (A) B   21 (A) A   11 (A) B      0.0071
     4 (A) A   8 (A) B   19 (A) A   11 (A) B     -0.0070
     5 (A) A   8 (A) B    9 (A) A    9 (A) B      0.0068
     6 (A) A              9 (A) A                 0.0065
     4 (A) A   8 (A) A   11 (A) A   12 (A) A     -0.0063
     6 (A) A   8 (A) A   11 (A) A   18 (A) A     -0.0062
     3 (A) A   6 (A) B   11 (A) A   28 (A) B     -0.0060
     6 (A) A   8 (A) B   18 (A) A   11 (A) B      0.0060
     7 (A) A   8 (A) B   16 (A) A   13 (A) B      0.0057
     3 (A) A   8 (A) A   11 (A) A   18 (A) A     -0.0056
     5 (A) A   8 (A) B   10 (A) A   10 (A) B      0.0056
     3 (A) A   8 (A) B   11 (A) A   30 (A) B     -0.0055
     3 (A) A   5 (A) B   11 (A) A   25 (A) B     -0.0055
     6 (A) A   8 (A) B   11 (A) A   10 (A) B     -0.0054
     7 (A) A   8 (A) B   12 (A) A   10 (A) B      0.0054
     8 (A) A   8 (A) B   20 (A) A   22 (A) B      0.0053
     3 (A) A   8 (A) A   11 (A) A   24 (A) A     -0.0053
     5 (A) A   8 (A) A   11 (A) A   16 (A) A      0.0049
    -----------------------------------------------------

  Density matrix analysis:
  ------------------------
  NOs
    Occupation of frontier NOs:
       0.9402   1.0283
    Number of electrons: 16.000000
    Number of unpaired electrons: n_u =  2.31927, n_u,nl =  2.04946
    NO participation ratio (PR_NO):  2.917456
  
  
  Mulliken Population Analysis
  Atom      Charge (e)              h+              e-           Del q
  --------------------------------------------------------------------
   1 H       -0.149662        0.046009       -0.246527       -0.200518
   2 C        0.274525        0.496739       -0.121369        0.375370
   3 H       -0.124690        0.046934       -0.222115       -0.175181
   4 C        0.273040        0.496674       -0.121917        0.374758
   5 H       -0.134557        0.047065       -0.231960       -0.184895
   6 H       -0.138656        0.045973       -0.235506       -0.189533
  --------------------------------------------------------------------
  Sum:       -0.000000        1.179394       -1.179394        0.000000
  
  Multipole moment analysis of the density matrix
    Molecular charge:                      -0.000000
    Number of electrons:                   16.000000
      Center of electronic charge [Ang]: [ -1.559650,  -0.065001,   0.002102]
    Total nuclear charge:                  16.000000
      Center of nuclear charge [Ang]:    [ -1.560576,  -0.065915,   0.001978]
    Dipole moment [D]:                     0.100471
      Cartesian components [D]:          [ -0.071188,  -0.070260,  -0.009502]
    RMS size of the density [Ang]:         1.277144
      Cartesian components [Ang]:        [  0.858930,   0.839566,   0.434126]
  
  Exciton analysis of the difference density matrix
    <r_h> [Ang]:                  [ -1.559649,  -0.065046,   0.001885]
    <r_e> [Ang]:                  [ -1.547195,  -0.052561,   0.003800]
    |<r_e - r_h>| [Ang]:            0.017738
    Hole size [Ang]:                1.395062
      Cartesian components [Ang]: [  0.818840,   0.806748,   0.790479]
    Electron size [Ang]:            2.124156
      Cartesian components [Ang]: [  1.441547,   1.404663,   0.678898]

  Transition density matrix analysis:
  -----------------------------------
  
  CT numbers (Mulliken)
    omega =     0.9298
    <Phe> =    -0.0135
  
  Exciton analysis of the transition density matrix
    Trans. dipole moment [D]:             0.004860
      Cartesian components [D]:         [ -0.000702,   0.001247,  -0.004645]
    <r_h> [Ang]:                        [ -1.560409,  -0.065845,   0.001702]
    <r_e> [Ang]:                        [ -1.544765,  -0.049945,   0.004152]
    |<r_e - r_h>| [Ang]:                  0.022440
    Hole size [Ang]:                      1.228140
      Cartesian components [Ang]:       [  0.658563,   0.650096,   0.807464]
    Electron size [Ang]:                  2.262036
      Cartesian components [Ang]:       [  1.535734,   1.496074,   0.721175]
    RMS electron-hole separation [Ang]:   2.563353
      Cartesian components [Ang]:       [  1.662494,   1.623519,   1.082166]
    Covariance(r_h, r_e) [Ang^2]:         0.027430
    Correlation coefficient:              0.009874
    Center-of-mass size [Ang]:            1.292285
      Cartesian components [Ang]:       [  0.839751,   0.819476,   0.541550]

  Decomposition into state-averaged NTOs
    H- 0 -> L+ 2:  0.6648 ( 88.4%)
    H- 1 -> L+ 0:  0.1490 (  4.4%)
                   omega =  93.0%
  ----------------------------------------------------------------------------


  Excited state 5 (singlet, A)                                     [converged]
  ----------------------------------------------------------------------------
  Term symbol:  6 (1) A                                     R^2 =  2.18160e-13

  Total energy:                                            -77.9444912528 a.u.
  Excitation energy:                                              10.208608 eV

  Osc. strength:                                                      0.000000
  Trans. dip. moment [a.u.]:           [  -0.000095,   -0.000071,   -0.000441]
  <i|r^2|0> [a.u.]:                    [  -0.088278,    0.104195,   -0.016761]
  Two-photon absorption cross-section (SoS) [a.u.]:                 172.443242
  Two-photon absorption matrix (SoS) [a.u.]:
                                       |   -0.315424   -0.039939    3.296246 |
                                       |   -0.039939    0.382718   -3.250043 |
                                       |    3.296246   -3.250043   -0.074786 |
  Two-photon absorption cross-section [a.u.]:                        75.608941
  Two-photon absorption matrix [a.u.]:
                                       |   -0.210151   -0.026681    2.170767 |
                                       |   -0.026681    0.252222   -2.164011 |
                                       |    2.170767   -2.164011   -0.051472 |

  Dip. moment [a.u.]:                  [   0.000276,   -0.005090,   -0.000005]
  Total dipole [Debye]:                                               0.012955
  <r^2> [a.u.]:                        [ 178.307942,   38.202283,   11.955877]
  Total <r^2> [a.u.]:                                               228.466102

  V1^2 = 0.9574, V2^2 = 0.0426

  Important amplitudes:
      occ i     occ j     vir a      vir b          v   
    -----------------------------------------------------
[...]
    16   -1.471161880061e-03
    17   -1.756364645051e-03
    18   -1.007946794676e-04
    19   -3.272658473969e-03
    20    1.104164855737e-02
    21    9.375342914952e-01
    22   -2.640330573257e-04
    23    1.400901083293e-02
    24    8.191627653032e-04
    25    7.038894977608e-02
    26   -5.246256990995e-02
    27   -1.399511810035e+00
    28    9.879738960638e-02
    29   -9.202466405079e-02
    30   -1.023488333125e-03
    31    3.854905075976e-01
    32   -3.590186940038e-01
    33   -4.007608613289e-03
    34    1.556212617004e-02
    35   -1.450247287390e-03
    36   -1.794689175404e-03
    37    6.562034012169e-05
    38   -3.201490633880e-03
    39    1.005652877318e-02
    40    9.291310306420e-01
    41    3.519928328232e-04
    42   -1.392015910963e-02
    43   -8.254861999518e-04
    44    1.070572200502e-02
    45    9.414361298106e-01
    46    1.411256220744e-02
    47    3.815830428175e-04
    48    6.790094309459e-04
Sym=X
Ene= 0.232864
Spin=Alpha
Occup=0
     1    2.609161395003e-02
     2    1.233505031744e+00
     3   -1.436652514694e-02
     4   -3.804201144500e-03
     5   -8.996785721731e-04
     6    3.082276469799e-03
     7   -3.319336100823e-03
     8   -5.208144238187e-02
     9   -1.550575593796e-01
    10   -1.581015707036e-01
    11   -1.666457104731e-02
    12   -5.557521092535e-01
    13   -5.565712776196e-01
    14   -5.909583907550e-02
    15    5.682112587953e-04
    16   -7.271847773577e-05
    17   -5.527195901724e-05
    18   -2.790733127138e-04
    19   -3.577284251088e-04
    20   -2.501061692584e-02
    21   -1.156841676657e+00
    22   -2.503979081640e-03
    23   -1.352624244495e-02
    24   -9.209103422158e-04
    25   -2.344273832583e-03
    26    2.740104498621e-03
    27    3.209634280979e-02
    28   -1.534931423407e-01
    29   -1.596617859884e-01
    30   -1.680212028800e-02
    31   -5.459801428252e-01
    32   -5.610241065894e-01
    33   -5.939496697541e-02
    34   -4.232957913037e-04
    35    5.331829858746e-05
    36    1.161848106970e-05
    37    3.820362465472e-04
    38    3.024593118357e-04
    39    2.488567987997e-02
    40    1.165904470045e+00
    41   -2.522715582371e-03
    42   -1.370827981442e-02
    43   -9.412915548153e-04
    44   -2.618416464836e-02
    45   -1.217338302168e+00
    46   -1.415205535683e-02
    47   -3.740973097353e-03
    48   -8.902876586231e-04
Sym=X
Ene= 0.239478
Spin=Alpha
Occup=0
     1   -1.608098793811e-02
     2   -1.056809218268e+00
     3    1.661993567821e-02
     4    9.110628953343e-03
     5    1.335551099415e-03
     6   -8.656463509238e-02
     7    7.966548524988e-02
     8    1.596418632604e+00
     9    5.380572291938e-02
    10   -6.030037737126e-02
    11   -8.835451396030e-04
    12    2.135920407182e-01
    13   -2.324040256774e-01
    14   -2.993735526372e-03
    15   -2.258413061355e-02
    16    2.628017069468e-03
    17    2.957477365258e-03
    18   -4.458187678773e-04
    19    1.291696424309e-02
    20   -1.687471565868e-02
    21   -1.121308563282e+00
    22   -8.545399015579e-03
    23   -1.772556941732e-02
    24   -1.446674332197e-03
    25    8.646243051157e-02
    26   -7.941004755268e-02
    27   -1.595549435368e+00
    28    5.364894272513e-02
    29   -6.076381807329e-02
    30   -1.360688465359e-03
    31    2.088716614036e-01
    32   -2.390568280444e-01
    33   -5.466892889657e-03
    34    2.256246172540e-02
    35   -2.565240362635e-03
    36   -3.024544743452e-03
    37    8.888117091675e-04
    38   -1.284796317160e-02
    39    1.703219457121e-02
    40    1.130078260476e+00
    41   -8.505244256838e-03
    42   -1.792915341631e-02
    43   -1.489200421943e-03
    44    1.582224272171e-02
    45    1.046772996058e+00
    46    1.635922818345e-02
    47    9.241277843426e-03
    48    1.303837204829e-03
Sym=X
Ene= 0.303232
Spin=Alpha
Occup=0
     1   -2.060933868678e-02
     2    1.691002981938e+00
     3   -2.282814347045e-02
     4    2.945936708661e-04
     5   -1.071646372094e-03
     6   -3.624439121489e-04
     7    9.543543702620e-05
     8    9.422930825692e-03
     9   -1.338574604219e-01
    10   -1.399958756389e-01
    11   -1.460884118804e-02
    12   -1.146166097829e+00
    13   -1.193113582935e+00
    14   -1.249559647185e-01
    15   -2.344275432590e-04
    16   -1.631802483467e-03
    17    1.855354184503e-03
    18   -3.250976139855e-02
    19   -1.522389654794e-03
    20    1.991362787011e-02
    21   -1.693863793498e+00
    22    1.391374248879e-03
    23   -2.294610120137e-02
    24   -1.282095467700e-03
    25    2.503503873237e-04
    26    2.681017103044e-04
    27   -1.223015319604e-02
    28    1.343348944941e-01
    29    1.401254588999e-01
    30    1.471505406443e-02
    31    1.136617408105e+00
    32    1.200985782255e+00
    33    1.252276306823e-01
    34    1.496518249078e-04
    35   -1.599971478981e-03
    36    1.880605658483e-03
    37   -3.239032527243e-02
    38   -1.737724932200e-03
    39    1.989526219415e-02
    40   -1.689786561597e+00
    41   -1.539277623700e-03
    42    2.274374099548e-02
    43    1.290728870234e-03
    44   -1.998334901475e-02
    45    1.696414923928e+00
    46    2.304050836535e-02
    47   -2.470781131657e-04
    48    1.068015942512e-03
Sym=X
Ene= 0.461776
Spin=Alpha
Occup=0
     1   -1.150667936564e-01
     2   -7.132834514347e-01
     3   -1.573873014912e-02
     4   -1.021896331668e-02
     5   -1.344070966711e-03
     6    6.069611369351e-02
     7    1.736785506782e-02
     8   -3.587822382457e+00
     9    1.033918848296e-01
    10   -9.949040293348e-02
    11   -1.014665351846e-03
    12    2.421643945009e+00
    13   -2.299195038624e+00
    14   -2.093952049995e-02
    15    5.351094336313e-02
    16   -3.341495016328e-03
    17   -4.617895179251e-03
    18   -9.577111549816e-04
    19    1.817504821040e-02
    20   -1.199561428040e-01
    21   -7.025168262185e-01
    22    8.647065877954e-03
    23    1.631829962753e-02
    24    1.376935864441e-03
    25   -6.078304728253e-02
    26   -1.682019842152e-02
    27    3.588581626552e+00
    28    1.050085364358e-01
    29   -9.967329183797e-02
    30   -1.212284158660e-03
    31    2.420507988888e+00
    32   -2.295939554037e+00
    33   -2.199405665034e-02
    34   -5.308575640061e-02
    35    3.310307601185e-03
    36    4.567697409562e-03
    37    6.670034253678e-04
    38   -1.870223388709e-02
    39    1.162149207238e-01
    40    7.086509537957e-01
    41    8.777414995330e-03
    42    1.633322215659e-02
    43    1.382331508430e-03
    44    1.139687638036e-01
    45    7.110566773636e-01
    46   -1.555274657685e-02
    47   -9.849149542432e-03
    48   -1.332347270431e-03
Sym=X
Ene= 0.577254
Spin=Alpha
Occup=0
     1    2.466977496780e-01
     2    4.418202399997e-02
     3   -1.842528980760e-02
     4    2.600426854648e-02
     5    6.658792975012e-04
     6   -4.663551486760e-03
     7   -1.563640660956e-01
     8   -4.512573836928e-01
     9    2.977874210611e-01
    10   -2.867656484623e-01
    11   -2.906040661243e-03
    12   -7.293527039113e-01
    13    7.052330295051e-01
    14    7.420430875741e-03
    15   -6.332022169419e-03
    16    3.914716263325e-03
    17    3.789370568116e-03
    18   -4.453257999498e-03
    19    6.034321713827e-02
    20    2.575661813716e-01
    21    3.204683634371e-02
    22   -2.632610066046e-02
    23    1.612775178279e-02
    24   -2.928948844848e-04
    25   -5.243307770165e-03
    26   -1.567688578565e-01
    27   -4.229439348866e-01
    28   -2.981821823862e-01
    29    2.843421331466e-01
    30    2.705227675705e-03
    31    7.528975641562e-01
    32   -7.199849063478e-01
    33   -7.452577996147e-03
    34   -6.372112834700e-03
    35    3.977504156826e-03
    36    3.723636471643e-03
    37   -3.173269910814e-03
    38    6.036125513059e-02
    39    2.499421141345e-01
    40    4.669411166319e-02
    41    2.724154401835e-02
    42   -1.689833549780e-02
    43    2.671879380817e-04
    44    2.531864411999e-01
    45    4.606992235885e-02
    46    1.794898975672e-02
    47   -2.566183577074e-02
    48   -6.945816448545e-04
Sym=X
Ene= 0.615664
Spin=Alpha
Occup=0
     1   -5.237931231823e-01
     2    2.007472744071e-01
     3   -6.142142873702e-02
     4    3.747147152141e-02
     5   -7.064228934621e-04
     6   -5.749333803098e-04
     7   -2.654833631711e-04
     8   -6.701178426870e-03
     9   -4.067276073102e-02
    10   -3.811040654634e-02
    11   -4.207538436431e-03
    12    3.046239838209e-01
    13    2.825640063781e-01
    14    3.103630749232e-02
    15    1.752982338098e-03
    16   -7.633234589069e-03
    17    8.250649045518e-03
    18   -1.484980392203e-01
    19   -6.920439569748e-03
    20    5.083138019809e-01
    21   -2.043489901133e-01
    22    4.195322300555e-02
    23   -5.873302935697e-02
    24   -1.485684896148e-03
    25    2.330269881277e-04
    26   -1.581671544837e-03
    27    2.427406254548e-02
    28   -3.822620790536e-02
    29   -4.063754836843e-02
    30   -4.205953062019e-03
    31    2.925350997385e-01
    32    2.960331633659e-01
    33    3.158918781435e-02
    34   -1.012596191075e-03
    35    7.394861563890e-03
    36   -8.596789446948e-03
    37    1.491737163145e-01
    38    6.643184860565e-03
    39   -5.169110966870e-01
    40    2.047078093832e-01
    41    4.090316059457e-02
    42   -5.876785406131e-02
    43   -1.596394349864e-03
    44    5.186826726257e-01
    45   -2.065649056474e-01
    46   -6.159313935868e-02
    47    3.815264761049e-02
    48   -5.981813141762e-04
Sym=X
Ene= 0.689152
Spin=Alpha
Occup=0
     1    4.509763614523e-04
     2    9.460400090678e-05
     3    1.075341034762e-03
     4    1.288006823250e-03
     5   -2.100473542906e-02
     6    3.114756850454e-05
     7    3.417480664023e-04
     8    1.872041143630e-05
     9    3.152598717744e-02
    10    3.985327657831e-02
    11   -6.703005048235e-01
    12   -2.936818899609e-02
    13   -3.592435868475e-02
    14    6.134960966467e-01
    15   -1.404565034422e-03
    16    8.270209227247e-02
    17   -7.834657916728e-02
    18   -8.596221684001e-03
    19   -1.090299450799e-03
    20    4.820721968539e-04
    21   -3.541776656339e-05
    22    9.309567753840e-04
    23    1.145195336624e-03
    24   -2.093604244911e-02
    25    1.132792071741e-05
    26    5.303092242416e-04
    27   -5.429832724513e-04
    28    3.183227994478e-02
    29    3.982658835587e-02
    30   -6.702305656560e-01
    31   -2.970855926563e-02
    32   -3.595314089133e-02
    33    6.132936410371e-01
    34    1.123242955533e-03
    35   -8.268853477762e-02
    36    7.842884376115e-02
    37    8.547806996387e-03
    38    1.192089962978e-03
    39    1.547656951867e-04
    40   -6.034573646228e-04
    41    1.010243953255e-03
    42    1.391432918579e-03
    43   -2.106288422980e-02
    44    1.286062950059e-04
    45   -4.802528344926e-04
    46    8.580057724490e-04
    47    1.238748736661e-03
    48   -2.081194931674e-02
Sym=X
Ene= 0.708545
Spin=Alpha
Occup=0
     1   -4.724710812505e-01
     2    1.536948169570e-01
     3   -8.024959566370e-02
     4   -4.408898297611e-02
     5   -6.447848965941e-03
     6   -4.740405158717e-02
     7   -3.205113769629e-01
     8    4.924061565346e-01
     9    2.044412591562e-01
    10   -1.937811891532e-01
    11   -2.343093594185e-03
    12   -9.099059822743e-02
    13    7.625264513988e-02
    14    4.241684958756e-04
    15    1.935761013723e-01
    16   -2.035844326387e-02
    17   -2.386066082571e-02
    18    3.569889361753e-03
    19   -7.683958956808e-02
    20   -4.765831745356e-01
    21    1.481020731785e-01
    22    4.069426752710e-02
    23    8.170519779782e-02
    24    6.726200835673e-03
    25   -4.709275658897e-02
    26   -3.202410740206e-01
    27    4.718706328558e-01
    28   -2.056823459029e-01
    29    1.921954024128e-01
    30    1.169102677704e-03
    31    7.752128015405e-02
    32   -6.406318382706e-02
    33    8.761970961634e-04
    34    1.938381626656e-01
    35   -2.042440740972e-02
    36   -2.385035102425e-02
    37    2.381501804854e-03
    38   -7.607692709989e-02
    39   -4.719280208171e-01
    40    1.401125276261e-01
    41   -4.047470497917e-02
    42   -8.126757694157e-02
    43   -6.751731205623e-03
    44   -4.767415590391e-01
    45    1.537532451920e-01
    46    8.071930351035e-02
    47    4.412099726305e-02
    48    6.448215777531e-03
Sym=X
Ene= 0.784452
Spin=Alpha
Occup=0
     1    5.294550263030e-01
     2   -4.732836075066e-01
     3    1.108942008379e-01
     4    2.620568895708e-02
     5    6.812054935272e-03
     6    9.118518532819e-02
     7   -2.143279312336e-01
     8   -6.560920444158e-01
     9    1.092538298056e-01
    10   -1.062502050485e-01
    11   -1.623462497716e-04
    12    3.243763287632e-01
    13   -2.977276511836e-01
    14   -4.039314622785e-03
    15   -2.067720179000e-01
    16    1.765813661272e-02
    17    2.176367071529e-02
    18   -3.532913792657e-04
    19    1.004693633619e-02
    20    5.370591880874e-01
    21   -4.691812232458e-01
    22   -2.060479860315e-02
    23   -1.120788486140e-01
    24   -7.589571381656e-03
    25   -9.121590644525e-02
    26    2.148635125918e-01
    27    6.595257355419e-01
    28    1.108285664617e-01
    29   -1.057105180467e-01
    30   -1.814514384578e-03
    31    3.201381516772e-01
    32   -2.964387554665e-01
    33   -7.071204187495e-04
    34    2.067507916950e-01
    35   -1.740762191309e-02
    36   -2.217271723519e-02
    37    1.765020914229e-03
    38   -9.620039223938e-03
    39   -5.387010709476e-01
    40    4.694415282570e-01
    41   -2.013909775923e-02
    42   -1.126642860987e-01
    43   -7.683748165427e-03
    44   -5.307581573488e-01
    45    4.713352708557e-01
    46    1.099473224673e-01
    47    2.690076482627e-02
    48    6.792938955043e-03
Sym=X
Ene= 0.807977
Spin=Alpha
Occup=0
     1    5.564266267698e-04
     2   -8.131898698337e-04
     3    1.777360910249e-03
     4    2.006878175838e-03
     5   -3.380881365440e-02
     6    1.127901576560e-04
     7   -3.810762059275e-04
     8   -1.120252792829e-04
     9    3.634430688113e-02
    10    4.484774362773e-02
    11   -7.630913217970e-01
    12   -5.301686612507e-02
    13   -6.681106874942e-02
    14    1.127024751457e+00
    15    6.886719927175e-04
    16   -6.523429836283e-02
    17    6.187780088152e-02
    18    6.813985590349e-03
    19    8.537412470907e-04
    20    5.587369783753e-04
    21   -4.433849942077e-04
    22    1.666096207912e-03
    23    1.907017920068e-03
    24   -3.449244062428e-02
    25   -9.814219218037e-05
    26    6.310393179183e-05
    27    2.844613551495e-04
    28   -3.590155942630e-02
    29   -4.575875514286e-02
    30    7.631863806859e-01
    31    5.374036272243e-02
    32    6.693494205995e-02
    33   -1.126985135441e+00
    34    1.329974783026e-03
    35   -6.525246879353e-02
    36    6.183652388197e-02
    37    6.713356586073e-03
    38    9.821248403002e-04
    39   -5.561507978708e-04
    40    5.350358870743e-04
    41   -1.557674279610e-03
    42   -2.253315315341e-03
    43    3.422587630105e-02
    44   -5.517758499006e-04
    45    8.959185100140e-04
    46   -1.343277995680e-03
    47   -2.029098936925e-03
    48    3.378279356344e-02
Sym=X
Ene= 0.862226
Spin=Alpha
Occup=0
     1    1.194361532302e-02
     2   -1.095074702580e+00
     3    1.480781997691e-01
     4    5.652247865462e-02
     5    1.034202592768e-02
     6    8.007148527878e-05
     7    1.404667200482e-03
     8   -4.116921778782e-05
     9   -4.073609135177e-01
    10   -4.279266872915e-01
    11   -4.448845367886e-02
    12    9.498985085268e-01
    13    9.970675989673e-01
    14    1.037123423103e-01
    15   -5.431029827752e-04
    16    1.171594726451e-02
    17   -1.347937530611e-02
    18    2.350729826010e-01
    19    9.891136369314e-03
    20   -1.280043844730e-02
    21    1.101457754067e+00
    22    5.041022940001e-02
    23    1.513074984932e-01
    24    1.136310723099e-02
    25    1.734077752456e-04
    26    2.876384008672e-03
    27   -2.210074253320e-03
    28   -4.076267095056e-01
    29   -4.299032176049e-01
    30   -4.501766046153e-02
    31    9.474785515195e-01
    32    1.004047069901e+00
    33    1.049038944467e-01
    34   -5.163321103796e-04
    35   -1.170566391604e-02
    36    1.359675096435e-02
    37   -2.356717581280e-01
    38   -1.132621994393e-02
    39    1.307699662854e-02
    40   -1.102436776384e+00
    41    4.919281185039e-02
    42    1.517130041049e-01
    43    1.143102054094e-02
    44   -1.118927601598e-02
    45    1.095935301452e+00
    46    1.485188191911e-01
    47    5.672753999424e-02
    48    1.033109572590e-02
Sym=X
Ene= 0.935835
Spin=Alpha
Occup=0
     1   -1.132136264270e-01
     2    1.276726331903e+00
     3   -1.810030077219e-01
     4    5.728719726530e-03
     5   -8.286807887698e-03
     6   -1.413638561521e-04
     7   -1.650488114215e-03
     8   -6.753204313332e-03
     9    4.706648476909e-01
    10    5.022007109191e-01
    11    5.202478350941e-02
    12   -1.458681948632e+00
    13   -1.550041071460e+00
    14   -1.608744626458e-01
    15   -6.880579853508e-04
    16   -5.790065775640e-03
    17    7.013660651873e-03
    18   -1.203526026003e-01
    19   -8.094004451744e-04
    20    1.176250517696e-01
    21   -1.293067369373e+00
    22    1.115316478625e-02
    23   -1.832499766120e-01
    24   -1.025145780274e-02
    25    2.735794498937e-04
    26    3.106000257947e-03
    27    9.258628000354e-04
    28   -4.773395894206e-01
    29   -4.944011633383e-01
    30   -5.200518125519e-02
    31    1.477991856280e+00
    32    1.525544283397e+00
    33    1.606998858240e-01
    34   -8.957353325078e-04
    35   -5.966807514841e-03
    36    6.958799817732e-03
    37   -1.194872611657e-01
    38   -7.783102763106e-03
    39    1.155709991454e-01
    40   -1.273138714159e+00
    41   -1.400635390523e-02
    42    1.807929788490e-01
    43    1.012982057666e-02
    44   -1.157064875483e-01
    45    1.291681409861e+00
    46    1.825447084170e-01
    47   -3.761651825131e-03
    48    8.396116990070e-03
Sym=X
Ene= 0.972270
Spin=Alpha
Occup=0
     1   -6.327299345938e-02
     2    9.303637837361e-01
     3   -9.106983349847e-02
     4   -9.820203186842e-02
     5   -1.015251139562e-02
     6    2.536547935896e-02
     7    2.465374359172e-01
     8    5.303630510356e-01
     9    4.837394568540e-01
    10   -4.509513021060e-01
    11   -3.614518037417e-03
    12   -1.505804613508e+00
    13    1.392698416805e+00
    14    1.062125533679e-02
    15   -5.409939509345e-02
    16   -1.282270713983e-02
    17   -9.607467714068e-03
    18    1.322834870940e-02
    19   -3.011924373736e-01
    20   -6.301608369337e-02
    21    8.966245306615e-01
    22    9.503525799020e-02
    23    9.113762661284e-02
    24    9.890129636772e-03
    25   -2.532238229175e-02
    26   -2.420332027360e-01
    27   -5.379004669990e-01
    28    4.753938232835e-01
    29   -4.592960986935e-01
    30   -5.161522363075e-03
    31   -1.470023767258e+00
    32    1.430852640796e+00
    33    1.638880450884e-02
    34    5.374965988314e-02
    35    1.261028228754e-02
    36    9.788722022402e-03
    37   -1.599756409061e-02
    38    3.001536314866e-01
    39    6.161578843038e-02
    40   -9.236642589180e-01
    41    9.414768418829e-02
    42    9.461372956422e-02
    43    1.019214314519e-02
    44    6.547221635504e-02
    45   -8.991133576102e-01
    46   -8.710931437047e-02
    47   -9.833139360828e-02
    48   -9.849032116719e-03
[5D]

======= END OF MOLDEN-FORMATTED INPUT FILE =======


        *************************************************************
        *                                                           *
        *  Thank you very much for using Q-Chem.  Have a nice day.  *
        *                                                           *
        *************************************************************


