                  Welcome to Q-Chem
     A Quantum Leap Into The Future Of Chemistry


 Q-Chem 5.4 (devel), Q-Chem, Inc., Pleasanton, CA (2021)

 E. Epifanovsky,  A. T. B. Gilbert,  Xintian Feng,  Joonho Lee,  Yuezhi Mao,  
 N. Mardirossian,  P. Pokhilko,  A. White,  M. Wormit,  M. P. Coons,  
 A. L. Dempwolff,  Zhengting Gan,  D. Hait,  P. R. Horn,  L. D. Jacobson,  
 I. Kaliman,  J. Kussmann,  A. W. Lange,  Ka Un Lao,  D. S. Levine,  Jie Liu,  
 S. C. McKenzie,  A. F. Morrison,  K. Nanda,  F. Plasser,  D. R. Rehn,  
 M. L. Vidal,  Zhi-Qiang You,  Ying Zhu,  B. Alam,  B. Albrecht,  
 A. Aldossary,  E. Alguire,  J. H. Andersen,  D. Barton,  K. Begam,  A. Behn,  
 Y. A. Bernard,  E. J. Berquist,  H. Burton,  A. Carreras,  K. Carter-Fenk,  
 R. Chakraborty,  A. D. Chien,  K. D. Closser,  V. Cofer-Shabica,  
 S. Dasgupta,  Jia Deng,  M. de Wergifosse,  M. Diedenhofen,  Hainam Do,  
 S. Ehlert,  Po-Tung Fang,  S. Fatehi,  Qingguo Feng,  T. Friedhoff,  
 J. Gayvert,  Qinghui Ge,  G. Gidofalvi,  M. Goldey,  J. Gomes,  
 C. Gonzalez-Espinoza,  S. Gulania,  A. Gunina,  M. W. D. Hanson-Heine,  
 P. H. P. Harbach,  A. W. Hauser,  M. F. Herbst,  M. Hernandez Vera,  
 M. Hodecker,  Z. C. Holden,  S. Houck,  Xunkun Huang,  Kerwin Hui,  
 B. C. Huynh,  M. Ivanov,  Hyunjun Ji,  Hanjie Jiang,  B. Kaduk,  S. Kaehler,  
 K. Khistyaev,  Jaehoon Kim,  P. Klunzinger,  Z. Koczor-Benda,  
 Joong Hoon Koh,  D. Kosenkov,  L. Koulias,  T. Kowalczyk,  C. M. Krauter,  
 K. Kue,  A. Kunitsa,  T. Kus,  A. Landau,  K. V. Lawler,  D. Lefrancois,  
 S. Lehtola,  Rain Li,  Yi-Pei Li,  Jiashu Liang,  M. Liebenthal,  
 Hung-Hsuan Lin,  You-Sheng Lin,  Fenglai Liu,  Kuan-Yu Liu,  
 M. Loipersberger,  A. Luenser,  A. Manjanath,  P. Manohar,  E. Mansoor,  
 S. F. Manzer,  Shan-Ping Mao,  A. V. Marenich,  T. Markovich,  S. Mason,  
 S. A. Maurer,  P. F. McLaughlin,  M. F. S. J. Menger,  J.-M. Mewes,  
 S. A. Mewes,  P. Morgante,  J. W. Mullinax,  K. J. Oosterbaan,  G. Paran,  
 Alexander C. Paul,  Suranjan K. Paul,  F. Pavosevic,  Zheng Pei,  S. Prager,  
 E. I. Proynov,  E. Ramos,  B. Rana,  A. E. Rask,  A. Rettig,  R. M. Richard,  
 F. Rob,  E. Rossomme,  T. Scheele,  M. Scheurer,  M. Schneider,  
 N. Sergueev,  S. M. Sharada,  W. Skomorowski,  D. W. Small,  C. J. Stein,  
 Yu-Chuan Su,  E. J. Sundstrom,  Zhen Tao,  J. Thirman,  T. Tsuchimochi,  
 N. M. Tubman,  S. P. Veccham,  O. Vydrov,  J. Wenzel,  J. Witte,  A. Yamada,  
 Kun Yao,  S. Yeganeh,  S. R. Yost,  A. Zech,  Igor Ying Zhang,  Xing Zhang,  
 Yu Zhang,  D. Zuev,  A. Aspuru-Guzik,  A. T. Bell,  N. A. Besley,  
 K. B. Bravaya,  B. R. Brooks,  D. Casanova,  Jeng-Da Chai,  S. Coriani,  
 C. J. Cramer,  A. E. DePrince, III,  R. A. DiStasio Jr.,  A. Dreuw,  
 B. D. Dunietz,  T. R. Furlani,  W. A. Goddard III,  S. Grimme,  
 S. Hammes-Schiffer,  T. Head-Gordon,  W. J. Hehre,  Chao-Ping Hsu,  
 T.-C. Jagau,  Yousung Jung,  A. Klamt,  Jing Kong,  D. S. Lambrecht,  
 WanZhen Liang,  N. J. Mayhall,  C. W. McCurdy,  J. B. Neaton,  
 C. Ochsenfeld,  J. A. Parkhill,  R. Peverati,  V. A. Rassolov,  Yihan Shao,  
 L. V. Slipchenko,  T. Stauch,  R. P. Steele,  J. E. Subotnik,  
 A. J. W. Thom,  A. Tkatchenko,  D. G. Truhlar,  T. Van Voorhis,  
 T. A. Wesolowski,  K. B. Whaley,  H. L. Woodcock III,  P. M. Zimmerman,  
 S. Faraji,  P. M. W. Gill,  M. Head-Gordon,  J. M. Herbert,  A. I. Krylov

 Additional authors for Version 5.4.1: 
 S. Kotaru,  Shaozhi Li,  Xiangyuan Li,  F. Matz,  A. Molle,  Haisheng Ren,  
 Yingli Su,  Hung-Yi Tsai,  C. Utku,  Fang Wang

 Contributors to earlier versions of Q-Chem not listed above: 
 R. D. Adamson,  B. Austin,  R. Baer,  J. Baker,  G. J. O. Beran,  
 K. Brandhorst,  S. T. Brown,  E. F. C. Byrd,  A. K. Chakraborty,  
 G. K. L. Chan,  Chun-Min Chang,  Yunqing Chen,  C.-L. Cheng,  
 Siu Hung Chien,  D. M. Chipman,  D. L. Crittenden,  H. Dachsel,  
 R. J. Doerksen,  A. D. Dutoi,  R. G. Edgar,  J. Fosso-Tande,  
 L. Fusti-Molnar,  D. Ghosh,  A. Ghysels,  A. Golubeva-Zadorozhnaya,  
 J. Gonthier,  M. S. Gordon,  S. R. Gwaltney,  G. Hawkins,  J. E. Herr,  
 A. Heyden,  S. Hirata,  E. G. Hohenstein,  G. Kedziora,  F. J. Keil,  
 C. Kelley,  Jihan Kim,  R. A. King,  R. Z. Khaliullin,  P. P. Korambath,  
 W. Kurlancheek,  A. Laurent,  A. M. Lee,  M. S. Lee,  S. V. Levchenko,  
 Ching Yeh Lin,  D. Liotard,  E. Livshits,  R. C. Lochan,  I. Lotan,  
 L. A. Martinez-Martinez,  P. E. Maslen,  N. Nair,  D. P. O'Neill,  
 D. Neuhauser,  E. Neuscamman,  C. M. Oana,  R. Olivares-Amaya,  R. Olson,  
 T. M. Perrine,  B. Peters,  P. A. Pieniazek,  A. Prociuk,  Y. M. Rhee,  
 J. Ritchie,  M. A. Rohrdanz,  E. Rosta,  N. J. Russ,  H. F. Schaefer III,  
 M. W. Schmidt,  N. E. Schultz,  S. Sharma,  N. Shenvi,  C. D. Sherrill,  
 A. C. Simmonett,  A. Sodt,  T. Stein,  D. Stuck,  K. S. Thanthiriwatte,  
 V. Vanovschi,  L. Vogt,  Tao Wang,  A. Warshel,  M. A. Watson,  
 C. F. Williams,  Q. Wu,  X. Xu,  Jun Yang,  W. Zhang,  Yan Zhao

 Please cite Q-Chem as follows:
 Y. Shao et al., Mol. Phys. 113, 184-215 (2015)
 DOI: 10.1080/00268976.2014.952696

 Q-Chem 5.4.1 for Intel X86 EM64T Linux

 Parts of Q-Chem use Armadillo 9.800.1 (Horizon Scraper).
 http://arma.sourceforge.net/

 Q-Chem begins on Thu Nov 17 00:23:29 2022  

 Host: cpu285.baobab
0

     Scratch files written to /scratch/fum/qchem76005//
 Processing $rem in /home/share/wesolowski/qc5.aug2021.FDE/config/preferences:
 Processing $rem in /home/fum/.qchemrc:

 Checking the input file for inconsistencies... 	...done.

--------------------------------------------------------------
User input:
--------------------------------------------------------------
$comment
generated from CCJob.Templates
$end

$rem
sym_ignore = true
method = adc(2)
ee_states = 10
basis = cc-pVDZ
mem_static = 1024
mem_total = 30000
adc_davidson_maxiter = 900
adc_davidson_conv = 6
adc_print = 3
adc_prop_es = true
adc_prop_es2es = true
adc_prop_tpa = true
molden_format = True
state_analysis = true
print_orbitals = 15
gen_scfman = false
fde_export_density = true
fde_details = 3
$end

$molecule
0 1
H -0.0348278765 -0.2442097827 0.0636489606
C -1.0765972949 -0.5242748755 -0.0023551776
H -1.313264467 -1.5767591607 -0.0757276926
C -2.043634118 0.3926884087 0.0061254933
H -1.8187616574999999 1.4459188338 0.0804456828
H -3.085977293 0.114931858 -0.0593381042                     
$end
--------------------------------------------------------------
 ----------------------------------------------------------------
             Standard Nuclear Orientation (Angstroms)
    I     Atom           X                Y                Z
 ----------------------------------------------------------------
    1      H      -0.0348278765    -0.2442097827     0.0636489606
    2      C      -1.0765972949    -0.5242748755    -0.0023551776
    3      H      -1.3132644670    -1.5767591607    -0.0757276926
    4      C      -2.0436341180     0.3926884087     0.0061254933
    5      H      -1.8187616575     1.4459188338     0.0804456828
    6      H      -3.0859772930     0.1149318580    -0.0593381042
 ----------------------------------------------------------------
 Nuclear Repulsion Energy =          33.42542986 hartrees
 There are        8 alpha and        8 beta electrons
 Requested basis set is cc-pVDZ
 There are 24 shells and 48 basis functions
 Total memory of 30000 MB is distributed as follows: 
   MEM_STATIC is set to 1024 MB
   QALLOC/CCMAN JOB total memory use is  28976 MB
 Warning: actual memory use might exceed 30000 MB

 Total QAlloc Memory Limit  30000 MB
 Mega-Array Size      1001 MB
 MEM_STATIC part      1024 MB

                       Distance Matrix (Angstroms)
             H (  1)   C (  2)   H (  3)   C (  4)   H (  5)
   C (  2)  1.080776
   H (  3)  1.851895  1.081258
   C (  4)  2.108139  1.332687  2.102109
   H (  5)  2.457486  2.106971  3.068632  1.079530
   H (  6)  3.074674  2.109370  2.450428  1.080700  1.843068

 A cutoff of  1.0D-11 yielded    300 shell pairs
 There are      1220 function pairs (      1329 Cartesian)
 Smallest overlap matrix eigenvalue = 4.80E-03

 Scale SEOQF with 1.000000e-01/1.000000e-01/1.000000e+00

 Standard Electronic Orientation quadrupole field applied
 Nucleus-field energy     =     0.0000000022 hartrees
 Guess from superposition of atomic densities
 Warning:  Energy on first SCF cycle will be non-variational
 SAD guess density has 16.000000 electrons
 A restricted Hartree-Fock SCF calculation will be
 performed using Pulay DIIS extrapolation
 SCF converges when DIIS error is below 1.0E-08
 using 8 threads for integral computing
 -------------------------------------------------------
 OpenMP Integral computing Module                
 Release: version 1.0, May 2013, Q-Chem Inc. Pittsburgh 
 -------------------------------------------------------
 ---------------------------------------
  Cycle       Energy         DIIS Error
 ---------------------------------------
    1     -78.4394121247      1.01E-01
    2     -78.0176890442      7.21E-03
    3     -78.0383222392      1.84E-03
    4     -78.0398051283      5.73E-04
    5     -78.0399266971      5.81E-05
    6     -78.0399285757      9.61E-06
    7     -78.0399286373      2.77E-06
    8     -78.0399286408      1.12E-06
    9     -78.0399286413      9.17E-08
   10     -78.0399286413      1.47E-08
   11     -78.0399286413      4.38E-09 Convergence criterion met
 ---------------------------------------
 SCF time:  CPU 2.60 s  wall 2.16 s
 SCF   energy in the final basis set = -78.03992864
 Total energy in the final basis set = -78.03992864
Exporting Density Matrix to file 'Densmat_SCF.txt'.
Export successful
================================================================================
|                                                                              |
|                                 A D C  M A N                                 |
|                                                                              |
 ------------------------------------------------------------------------------ 
|                                                                              |
| Components:                                                                  |
|                                                                              |
| - libvmm - 1.3-trunk                                                         |
|   Authors:                                                                   |
|   Evgeny Epifanovsky, Ilya Kaliman                                           |
|                                                                              |
| - libtensor - 2.5-trunk                                                      |
|   Authors:                                                                   |
|   Evgeny Epifanovsky, Michael Wormit, Dmitry Zuev, Sam Manzer,               |
|   Ilya Kaliman                                                               |
|                                                                              |
| - libwfa - 1.1-trunk                                                         |
|   Authors:                                                                   |
|   Felix Plasser, Stefanie Mewes (Baeppler), Benjamin Thomitzni,              |
|   Michael Wormit, Feng Chen, Anna I. Krylov, Pavel Pokhilko                  |
|                                                                              |
| - libadc - 1.1-trunk                                                         |
|   Authors:                                                                   |
|   Michael Wormit, Adrian L. Dempwolff, Philipp H. P. Harbach,                |
|   Caroline Krauter, Dirk Rehn, Matthias Schneider, Jan Wenzel                |
|                                                                              |
| - adcman - 2.6-trunk                                                         |
|   Authors:                                                                   |
|   Michael Wormit, Adrian L. Dempwolff, Philipp H. P. Harbach,                |
|   Caroline Krauter, Daniel Lefrancois, Jan-Michael Mewes, Dirk Rehn,         |
|   Matthias Schneider, Jan Wenzel, Andreas Dreuw                              |
|                                                                              |
| Authors of earlier versions of ADCMAN:                                       |
| Andreas Dreuw, Jan Hendrik Starcke, Dirk Rehn, Michael Wormit                |
|                                                                              |
================================================================================

 Created directory /scratch/fum/qchem76005/plots
  Import QC data ...  CPU 0.00 s  wall 0.00 s

 Alpha MOs, Restricted
 -- Occupied --                  
-11.235 -11.233  -1.032  -0.790  -0.641  -0.582  -0.505  -0.374
  1 A     2 A     3 A     4 A     5 A     6 A     7 A     8 A                  
 -- Virtual --                   
  0.168   0.204   0.233   0.239   0.303   0.462   0.578   0.615
  9 A    10 A    11 A    12 A    13 A    14 A    15 A    16 A                  
  0.689   0.709   0.785   0.808   0.862   0.936   0.973   1.010
 17 A    18 A    19 A    20 A    21 A    22 A    23 A    24 A                  
  1.131   1.235   1.253   1.266   1.294   1.601   1.728   1.752
 25 A    26 A    27 A    28 A    29 A    30 A    31 A    32 A                  
  1.819   1.858   1.867   1.921   1.976   1.979   2.223   2.257
 33 A    34 A    35 A    36 A    37 A    38 A    39 A    40 A                  
  2.375   2.454   2.508   2.636   2.721   2.823   3.139   3.401
 41 A    42 A    43 A    44 A    45 A    46 A    47 A    48 A                  

 Beta MOs, Restricted
 -- Occupied --                  
-11.235 -11.233  -1.032  -0.790  -0.641  -0.582  -0.505  -0.374
  1 A     2 A     3 A     4 A     5 A     6 A     7 A     8 A                  
 -- Virtual --                   
  0.168   0.204   0.233   0.239   0.303   0.462   0.578   0.615
  9 A    10 A    11 A    12 A    13 A    14 A    15 A    16 A                  
  0.689   0.709   0.785   0.808   0.862   0.936   0.973   1.010
 17 A    18 A    19 A    20 A    21 A    22 A    23 A    24 A                  
  1.131   1.235   1.253   1.266   1.294   1.601   1.728   1.752
 25 A    26 A    27 A    28 A    29 A    30 A    31 A    32 A                  
  1.819   1.858   1.867   1.921   1.976   1.979   2.223   2.257
 33 A    34 A    35 A    36 A    37 A    38 A    39 A    40 A                  
  2.375   2.454   2.508   2.636   2.721   2.823   3.139   3.401
 41 A    42 A    43 A    44 A    45 A    46 A    47 A    48 A                  
  Import AO data ...  CPU 0.00 s  wall 0.00 s
  Using point group: C1
  Irreducible representations in point group: A
  Molecular orbitals: 
  Occupied MOs:
  Block   0:   1 (  A) A   2 (  A) A   3 (  A) A   4 (  A) A   5 (  A) A
                  -11.24      -11.23      -1.032     -0.7901      -0.641
               6 (  A) A   7 (  A) A   8 (  A) A
                 -0.5823     -0.5045      -0.374
  Block   1:   1 (  A) B   2 (  A) B   3 (  A) B   4 (  A) B   5 (  A) B
                  -11.24      -11.23      -1.032     -0.7901      -0.641
               6 (  A) B   7 (  A) B   8 (  A) B
                 -0.5823     -0.5045      -0.374
  Virtual MOs:
  Block   0:   9 (  A) A  10 (  A) A  11 (  A) A  12 (  A) A  13 (  A) A
                  0.1684      0.2037      0.2331      0.2393      0.3033
              14 (  A) A  15 (  A) A  16 (  A) A  17 (  A) A  18 (  A) A
                  0.4623      0.5778      0.6146      0.6891      0.7092
              19 (  A) A  20 (  A) A  21 (  A) A  22 (  A) A
                  0.7846       0.808      0.8623       0.936
  Block   1:  23 (  A) A  24 (  A) A  25 (  A) A  26 (  A) A  27 (  A) A
                  0.9726        1.01       1.131       1.235       1.253
              28 (  A) A  29 (  A) A  30 (  A) A  31 (  A) A  32 (  A) A
                   1.266       1.294       1.601       1.728       1.752
              33 (  A) A  34 (  A) A  35 (  A) A  36 (  A) A
                   1.819       1.858       1.867       1.921
  Block   2:  37 (  A) A  38 (  A) A  39 (  A) A  40 (  A) A  41 (  A) A
                   1.976       1.979       2.223       2.257       2.375
              42 (  A) A  43 (  A) A  44 (  A) A  45 (  A) A  46 (  A) A
                   2.454       2.508       2.636       2.721       2.823
              47 (  A) A  48 (  A) A
                   3.139       3.401
  Block   3:   9 (  A) B  10 (  A) B  11 (  A) B  12 (  A) B  13 (  A) B
                  0.1684      0.2037      0.2331      0.2393      0.3033
              14 (  A) B  15 (  A) B  16 (  A) B  17 (  A) B  18 (  A) B
                  0.4623      0.5778      0.6146      0.6891      0.7092
              19 (  A) B  20 (  A) B  21 (  A) B  22 (  A) B
                  0.7846       0.808      0.8623       0.936
  Block   4:  23 (  A) B  24 (  A) B  25 (  A) B  26 (  A) B  27 (  A) B
                  0.9726        1.01       1.131       1.235       1.253
              28 (  A) B  29 (  A) B  30 (  A) B  31 (  A) B  32 (  A) B
                   1.266       1.294       1.601       1.728       1.752
              33 (  A) B  34 (  A) B  35 (  A) B  36 (  A) B
                   1.819       1.858       1.867       1.921
  Block   5:  37 (  A) B  38 (  A) B  39 (  A) B  40 (  A) B  41 (  A) B
                   1.976       1.979       2.223       2.257       2.375
              42 (  A) B  43 (  A) B  44 (  A) B  45 (  A) B  46 (  A) B
                   2.454       2.508       2.636       2.721       2.823
              47 (  A) B  48 (  A) B
                   3.139       3.401
  Import MO data ...  CPU 0.00 s  wall 0.00 s
  Import HF data ...  CPU 0.79 s  wall 0.20 s
  Import 2e integrals ...  CPU 0.54 s  wall 0.09 s

--------------------------------------------------------------------------------
                                   HF Summary                                   
--------------------------------------------------------------------------------
  Energy:                                                  -78.0399286413 a.u.
  Dip. moment [a.u.]:                  [  -0.001096,    0.001153,    0.000537]
  Total dipole [Debye]:                                               0.004266
  <r^2> [a.u.]:                        [ 175.384571,   34.914152,   11.624801]
  Total <r^2> [a.u.]:                                               221.923524
--------------------------------------------------------------------------------
  HF properties ...  CPU 0.36 s  wall 0.16 s
  MP(1) calculation ...  CPU 0.01 s  wall 0.00 s
  N^6 prerequesite intermediates ...  CPU 0.55 s  wall 0.11 s
  Difference density matrix of state mp2_gs printed to ASCII file 'State_mp2_gs_Difference.txt'
Exporting MP density matrix to file 'Densmat_MP.txt'.
Export successful
  Total density matrix of state mp2_gs printed to ASCII file 'State_mp2_gs_Total.txt'
Exporting MP density matrix to file 'Densmat_MP.txt'.
Export successful

--------------------------------------------------------------------------------
                                 MP(2) Summary                                  
--------------------------------------------------------------------------------
  MP energy contribution:                                   -0.2796860313 a.u.
  Total energy:                                            -78.3196146726 a.u.
  Dip. moment [a.u.]:                  [  -0.001106,    0.000958,    0.000518]
  Total dipole [Debye]:                                               0.003944
  <r^2> [a.u.]:                        [ 175.430936,   34.955001,   11.456725]
  Total <r^2> [a.u.]:                                               221.842662

  Density matrix analysis:
  ------------------------
  NOs
    Occupation of frontier NOs:
       0.0453   1.9383
    Number of electrons: 16.000000
    Number of unpaired electrons: n_u =  0.40336, n_u,nl =  0.04507
    NO participation ratio (PR_NO): 13.856581
  
  
  Mulliken Population Analysis
  Atom      Charge (e)              h+              e-           Del q
  --------------------------------------------------------------------
   1 H        0.051004        0.014029       -0.011202        0.002826
   2 C       -0.100617        0.093274       -0.098832       -0.005558
   3 H        0.050643        0.014067       -0.011191        0.002876
   4 C       -0.101251        0.092853       -0.098893       -0.006040
   5 H        0.049871        0.014147       -0.011180        0.002967
   6 H        0.050351        0.014113       -0.011183        0.002929
  --------------------------------------------------------------------
  Sum:       -0.000000        0.242481       -0.242481       -0.000000
  
  Multipole moment analysis of the density matrix
    Molecular charge:                      -0.000000
    Number of electrons:                   16.000000
      Center of electronic charge [Ang]: [ -1.560852,  -0.065634,   0.001961]
    Total nuclear charge:                  16.000000
      Center of nuclear charge [Ang]:    [ -1.560889,  -0.065602,   0.001978]
    Dipole moment [D]:                     0.003944
      Cartesian components [D]:          [ -0.002810,   0.002434,   0.001317]
    RMS size of the density [Ang]:         1.200863
      Cartesian components [Ang]:        [  0.796301,   0.779402,   0.447783]
  
  Exciton analysis of the difference density matrix
    <r_h> [Ang]:                  [ -1.560640,  -0.066161,   0.001856]
    <r_e> [Ang]:                  [ -1.560618,  -0.065736,   0.001897]
    |<r_e - r_h>| [Ang]:            0.000428
    Hole size [Ang]:                1.393689
      Cartesian components [Ang]: [  0.846845,   0.833964,   0.727822]
    Electron size [Ang]:            1.359819
      Cartesian components [Ang]: [  0.877929,   0.861816,   0.579329]
--------------------------------------------------------------------------------
  MP(2) calculation ...  CPU 0.79 s  wall 0.30 s
  Start ADC(2)-s ...  CPU 0.05 s  wall 0.02 s
  ADC(2) intermediates ...  CPU 0.09 s  wall 0.02 s
  Starting Davidson for singlet states of irrep A ... 
--------------------------------------------------------------------------------
   It NVec Conv  Avg. Norm  Max. Norm  Conv. states           Remark
--------------------------------------------------------------------------------
        10    0  1.330e-01  4.689e-01  0.4120 n n n n n n n n Guess.
    1   20    0  2.302e-02  1.110e-01  0.3262 n n n n n n n n 
    2   30    0  5.820e-03  2.488e-02  0.3215 n n n n n n n n 
    3   40    0  1.898e-03  1.212e-02  0.3211 n n n n n n n n 
    4   50    0  6.077e-04  4.431e-03  0.3211 n n n n n n n n 
    5   20    0  2.755e-04  2.032e-03  0.3211 n n n n n n n n Subspace collapsed.
    6   30    0  1.589e-04  1.361e-03  0.3211 n n n n n n n n 
    7   40    0  9.565e-05  7.130e-04  0.3211 n n n n n n n n 
    8   50    0  7.919e-05  7.188e-04  0.3211 n n n n n n n n 
    9   20    2  5.700e-05  5.390e-04  0.3211 n y n y n n n n Subspace collapsed.
   10   30    4  7.081e-05  6.841e-04  0.3211 n y y y y n n n 
   11   40    5  6.334e-05  6.282e-04  0.3211 n y y y y y n n 
   12   50    6  5.420e-05  5.409e-04  0.3211 y y y y y y n n 
   13   20    6  2.835e-05  2.830e-04  0.3211 y y y y y y n n Subspace collapsed.
   14   30    6  2.053e-05  2.048e-04  0.3211 y y y y y y n n 
   15   40    6  1.065e-05  1.062e-04  0.3211 y y y y y y n n 
   16   50    6  1.081e-05  1.080e-04  0.3211 y y y y y y n n 
   17   20    7  6.716e-06  6.713e-05  0.3211 y y y y y y n y Subspace collapsed.
   18   30    7  1.054e-05  1.054e-04  0.3211 y y y y y y n y 
   19   40    8  1.003e-05  1.003e-04  0.3211 y y y y y y y y 
   20   50    9  9.889e-06  9.889e-05  0.3211 y y y y y y y y 
   21   20    9  3.678e-06  3.677e-05  0.3211 y y y y y y y y Subspace collapsed.
   22   30    9  2.966e-06  2.966e-05  0.3211 y y y y y y y y 
   23   39    9  1.646e-06  1.646e-05  0.3211 y y y y y y y y 
   24   47    9  1.379e-06  1.379e-05  0.3211 y y y y y y y y 
   25   50    9  1.679e-06  1.679e-05  0.3211 y y y y y y y y 
   26   16    9  1.063e-06  1.063e-05  0.3211 y y y y y y y y Subspace collapsed.
   27   20    9  1.428e-06  1.428e-05  0.3211 y y y y y y y y 
   28   24    9  1.340e-06  1.340e-05  0.3211 y y y y y y y y 
   29   28    9  1.680e-06  1.680e-05  0.3211 y y y y y y y y 
   30   32    9  1.040e-06  1.040e-05  0.3211 y y y y y y y y 
   31   36    9  4.556e-07  4.556e-06  0.3211 y y y y y y y y 
   32   40    9  2.614e-07  2.614e-06  0.3211 y y y y y y y y 
   33   44    9  1.161e-07  1.161e-06  0.3211 y y y y y y y y 
   34   48   10  5.087e-08  5.087e-07  0.3211 y y y y y y y y Converged.
--------------------------------------------------------------------------------
  Davidson Summary: 
 ------------------------------------------------------------
  State  0: excitation energy =   0.3211 a.u.   (converged)
  State  1: excitation energy =   0.3326 a.u.   (converged)
  State  2: excitation energy =   0.3372 a.u.   (converged)
  State  3: excitation energy =   0.3614 a.u.   (converged)
  State  4: excitation energy =   0.3754 a.u.   (converged)
  State  5: excitation energy =   0.3873 a.u.   (converged)
  State  6: excitation energy =   0.4248 a.u.   (converged)
  State  7: excitation energy =   0.4470 a.u.   (converged)
  State  8: excitation energy =   0.4562 a.u.   (converged)
  State  9: excitation energy =   0.4647 a.u.   (converged)
 ------------------------------------------------------------

  Singlet states of irrep A ...  CPU 129.58 s  wall 39.25 s
  TDMs ...  CPU 2.62 s  wall 0.77 s
  SDMs ...  CPU 2.99 s  wall 0.79 s
  Starting TPA DIIS iterations ... 
------------------------------------ 
   It     Res. Norm  Remark
------------------------------------
                       Guess.
    1     4.406e+00  
    2     5.842e+00  
    3     1.078e+00  
    4     2.568e-01  
    5     6.573e-02  
    6     2.678e-02  
    7     8.248e-03  
    8     1.442e-03  
    9     5.345e-04  
   10     9.011e-05  
   11     2.825e-05  
   12     4.398e-06  
   13     1.428e-06  
   14     4.449e-07  Converged.
   ... Converged in 14 steps (norm: 4.44874e-07)
------------------------------------
  Starting TPA DIIS iterations ... 
------------------------------------ 
   It     Res. Norm  Remark
------------------------------------
                       Guess.
    1     4.186e+00  
    2     5.543e+00  
    3     1.029e+00  
    4     2.552e-01  
    5     6.532e-02  
    6     2.671e-02  
    7     8.116e-03  
    8     1.452e-03  
    9     5.371e-04  
   10     8.979e-05  
   11     2.835e-05  
   12     4.353e-06  
   13     1.428e-06  
   14     4.370e-07  Converged.
   ... Converged in 14 steps (norm: 4.36991e-07)
------------------------------------
  Starting TPA DIIS iterations ... 
------------------------------------ 
   It     Res. Norm  Remark
------------------------------------
                       Guess.
    1     6.873e-01  
    2     4.828e-01  
    3     1.705e-01  
    4     5.978e-02  
    5     1.831e-02  
    6     6.632e-03  
    7     1.035e-03  
    8     4.461e-04  
    9     1.237e-04  
   10     2.908e-05  
   11     5.227e-06  
   12     1.606e-06  
   13     9.001e-07  Converged.
   ... Converged in 13 steps (norm: 9.00073e-07)
------------------------------------
  Starting TPA DIIS iterations ... 
------------------------------------ 
   It     Res. Norm  Remark
------------------------------------
                       Guess.
    1     4.691e+00  
    2     6.354e+00  
    3     1.158e+00  
    4     2.852e-01  
    5     7.399e-02  
    6     3.040e-02  
    7     9.346e-03  
    8     1.631e-03  
    9     6.092e-04  
   10     1.033e-04  
   11     3.270e-05  
   12     5.135e-06  
   13     1.680e-06  
   14     5.256e-07  Converged.
   ... Converged in 14 steps (norm: 5.25594e-07)
------------------------------------
  Starting TPA DIIS iterations ... 
------------------------------------ 
   It     Res. Norm  Remark
------------------------------------
                       Guess.
    1     4.456e+00  
    2     6.028e+00  
    3     1.105e+00  
    4     2.831e-01  
    5     7.355e-02  
    6     3.034e-02  
    7     9.199e-03  
    8     1.644e-03  
    9     6.123e-04  
   10     1.029e-04  
   11     3.280e-05  
   12     5.081e-06  
   13     1.678e-06  
   14     5.164e-07  Converged.
   ... Converged in 14 steps (norm: 5.16389e-07)
------------------------------------
  Starting TPA DIIS iterations ... 
------------------------------------ 
   It     Res. Norm  Remark
------------------------------------
                       Guess.
    1     6.992e-01  
    2     5.001e-01  
    3     1.803e-01  
    4     6.757e-02  
    5     1.972e-02  
    6     7.242e-03  
    7     1.167e-03  
    8     5.249e-04  
    9     1.491e-04  
   10     3.320e-05  
   11     5.919e-06  
   12     1.893e-06  
   13     1.127e-06  
   14     4.262e-07  Converged.
   ... Converged in 14 steps (norm: 4.26219e-07)
------------------------------------
  Starting TPA DIIS iterations ... 
------------------------------------ 
   It     Res. Norm  Remark
------------------------------------
                       Guess.
    1     4.811e+00  
    2     6.573e+00  
    3     1.192e+00  
    4     2.975e-01  
    5     7.757e-02  
    6     3.198e-02  
    7     9.823e-03  
    8     1.713e-03  
    9     6.417e-04  
   10     1.090e-04  
   11     3.466e-05  
   12     5.460e-06  
   13     1.793e-06  
   14     5.617e-07  Converged.
   ... Converged in 14 steps (norm: 5.61652e-07)
------------------------------------
  Starting TPA DIIS iterations ... 
------------------------------------ 
   It     Res. Norm  Remark
------------------------------------
                       Guess.
    1     4.570e+00  
    2     6.235e+00  
    3     1.138e+00  
    4     2.952e-01  
    5     7.711e-02  
    6     3.193e-02  
    7     9.668e-03  
    8     1.727e-03  
    9     6.450e-04  
   10     1.087e-04  
   11     3.476e-05  
   12     5.403e-06  
   13     1.790e-06  
   14     5.519e-07  Converged.
   ... Converged in 14 steps (norm: 5.51929e-07)
------------------------------------
  Starting TPA DIIS iterations ... 
------------------------------------ 
   It     Res. Norm  Remark
------------------------------------
                       Guess.
    1     7.040e-01  
    2     5.071e-01  
    3     1.844e-01  
    4     7.100e-02  
    5     2.030e-02  
    6     7.507e-03  
    7     1.225e-03  
    8     5.601e-04  
    9     1.604e-04  
   10     3.466e-05  
   11     6.214e-06  
   12     2.022e-06  
   13     1.234e-06  
   14     4.617e-07  Converged.
   ... Converged in 14 steps (norm: 4.61726e-07)
------------------------------------
  Starting TPA DIIS iterations ... 
------------------------------------ 
   It     Res. Norm  Remark
------------------------------------
                       Guess.
    1     5.549e+00  
    2     7.950e+00  
    3     1.399e+00  
    4     3.775e-01  
    5     1.009e-01  
    6     4.234e-02  
    7     1.292e-02  
    8     2.244e-03  
    9     8.552e-04  
   10     1.468e-04  
   11     4.782e-05  
   12     7.648e-06  
   13     2.570e-06  
   14     8.118e-07  Converged.
   ... Converged in 14 steps (norm: 8.11774e-07)
------------------------------------
  Starting TPA DIIS iterations ... 
------------------------------------ 
   It     Res. Norm  Remark
------------------------------------
                       Guess.
    1     5.269e+00  
    2     7.541e+00  
    3     1.334e+00  
    4     3.739e-01  
    5     1.003e-01  
    6     4.234e-02  
    7     1.273e-02  
    8     2.266e-03  
    9     8.598e-04  
   10     1.463e-04  
   11     4.787e-05  
   12     7.565e-06  
   13     2.554e-06  
   14     7.999e-07  Converged.
   ... Converged in 14 steps (norm: 7.99891e-07)
------------------------------------
  Starting TPA DIIS iterations ... 
------------------------------------ 
   It     Res. Norm  Remark
------------------------------------
                       Guess.
    1     7.308e-01  
    2     5.484e-01  
    3     2.087e-01  
    4     9.402e-02  
    5     2.384e-02  
    6     9.234e-03  
    7     1.622e-03  
    8     7.952e-04  
    9     2.348e-04  
   10     4.009e-05  
   11     8.117e-06  
   12     2.917e-06  
   13     2.036e-06  
   14     7.186e-07  Converged.
   ... Converged in 14 steps (norm: 7.18645e-07)
------------------------------------
  Starting TPA DIIS iterations ... 
------------------------------------ 
   It     Res. Norm  Remark
------------------------------------
                       Guess.
    1     6.063e+00  
    2     8.941e+00  
    3     1.542e+00  
    4     4.373e-01  
    5     1.183e-01  
    6     5.018e-02  
    7     1.524e-02  
    8     2.640e-03  
    9     1.017e-03  
   10     1.754e-04  
   11     5.798e-05  
   12     9.343e-06  
   13     3.190e-06  
   14     1.017e-06  
   15     3.749e-07  Converged.
   ... Converged in 15 steps (norm: 3.74894e-07)
------------------------------------
  Starting TPA DIIS iterations ... 
------------------------------------ 
   It     Res. Norm  Remark
------------------------------------
                       Guess.
    1     5.755e+00  
    2     8.480e+00  
    3     1.470e+00  
    4     4.326e-01  
    5     1.177e-01  
    6     5.023e-02  
    7     1.502e-02  
    8     2.668e-03  
    9     1.022e-03  
   10     1.749e-04  
   11     5.798e-05  
   12     9.242e-06  
   13     3.160e-06  
   14     1.005e-06  
   15     3.098e-07  Converged.
   ... Converged in 15 steps (norm: 3.09843e-07)
------------------------------------
  Starting TPA DIIS iterations ... 
------------------------------------ 
   It     Res. Norm  Remark
------------------------------------
                       Guess.
    1     7.471e-01  
    2     5.751e-01  
    3     2.251e-01  
    4     1.119e-01  
    5     2.633e-02  
    6     1.053e-02  
    7     1.934e-03  
    8     9.661e-04  
    9     2.880e-04  
   10     4.140e-05  
   11     9.557e-06  
   12     3.637e-06  
   13     2.743e-06  
   14     9.373e-07  Converged.
   ... Converged in 14 steps (norm: 9.37343e-07)
------------------------------------
  Starting TPA DIIS iterations ... 
------------------------------------ 
   It     Res. Norm  Remark
------------------------------------
                       Guess.
    1     6.563e+00  
    2     9.932e+00  
    3     1.681e+00  
    4     4.986e-01  
    5     1.361e-01  
    6     5.830e-02  
    7     1.762e-02  
    8     3.045e-03  
    9     1.183e-03  
   10     2.049e-04  
   11     6.859e-05  
   12     1.111e-05  
   13     3.852e-06  
   14     1.243e-06  
   15     4.709e-07  Converged.
   ... Converged in 15 steps (norm: 4.70859e-07)
------------------------------------
  Starting TPA DIIS iterations ... 
------------------------------------ 
   It     Res. Norm  Remark
------------------------------------
                       Guess.
    1     6.229e+00  
    2     9.420e+00  
    3     1.602e+00  
    4     4.928e-01  
    5     1.354e-01  
    6     5.839e-02  
    7     1.736e-02  
    8     3.079e-03  
    9     1.189e-03  
   10     2.043e-04  
   11     6.852e-05  
   12     1.100e-05  
   13     3.801e-06  
   14     1.234e-06  
   15     3.793e-07  Converged.
   ... Converged in 15 steps (norm: 3.79329e-07)
------------------------------------
  Starting TPA DIIS iterations ... 
------------------------------------ 
   It     Res. Norm  Remark
------------------------------------
                       Guess.
    1     7.617e-01  
    2     5.999e-01  
    3     2.406e-01  
    4     1.306e-01  
    5     2.882e-02  
    6     1.187e-02  
    7     2.267e-03  
    8     1.128e-03  
    9     3.391e-04  
   10     4.209e-05  
   11     1.108e-05  
   12     4.409e-06  
   13     3.547e-06  
   14     1.183e-06  
   15     4.196e-07  Converged.
   ... Converged in 15 steps (norm: 4.19607e-07)
------------------------------------
  Starting TPA DIIS iterations ... 
------------------------------------ 
   It     Res. Norm  Remark
------------------------------------
                       Guess.
    1     8.671e+00  
    2     1.435e+01  
    3     2.254e+00  
    4     7.842e-01  
    5     2.193e-01  
    6     9.689e-02  
    7     2.872e-02  
    8     4.920e-03  
    9     1.974e-03  
   10     3.445e-04  
   11     1.187e-04  
   12     1.961e-05  
   13     7.108e-06  
   14     2.529e-06  
   15     1.019e-06  
   16     4.565e-07  Converged.
   ... Converged in 16 steps (norm: 4.56463e-07)
------------------------------------
  Starting TPA DIIS iterations ... 
------------------------------------ 
   It     Res. Norm  Remark
------------------------------------
                       Guess.
    1     8.226e+00  
    2     1.360e+01  
    3     2.147e+00  
    4     7.719e-01  
    5     2.184e-01  
    6     9.729e-02  
    7     2.831e-02  
    8     4.984e-03  
    9     1.983e-03  
   10     3.434e-04  
   11     1.182e-04  
   12     1.953e-05  
   13     6.888e-06  
   14     2.570e-06  
   15     7.631e-07  Converged.
   ... Converged in 15 steps (norm: 7.63095e-07)
------------------------------------
  Starting TPA DIIS iterations ... 
------------------------------------ 
   It     Res. Norm  Remark
------------------------------------
                       Guess.
    1     8.117e-01  
    2     6.934e-01  
    3     3.022e-01  
    4     2.191e-01  
    5     4.013e-02  
    6     1.807e-02  
    7     3.929e-03  
    8     1.642e-03  
    9     5.359e-04  
   10     5.202e-05  
   11     1.876e-05  
   12     8.285e-06  
   13     8.078e-06  
   14     2.582e-06  
   15     9.433e-07  Converged.
   ... Converged in 15 steps (norm: 9.43301e-07)
------------------------------------
  Starting TPA DIIS iterations ... 
------------------------------------ 
   It     Res. Norm  Remark
------------------------------------
                       Guess.
    1     1.048e+01  
    2     1.842e+01  
    3     2.734e+00  
    4     1.057e+00  
    5     2.996e-01  
    6     1.350e-01  
    7     3.942e-02  
    8     6.718e-03  
    9     2.750e-03  
   10     4.805e-04  
   11     1.659e-04  
   12     2.808e-05  
   13     1.035e-05  
   14     4.122e-06  
   15     1.711e-06  
   16     8.390e-07  Converged.
   ... Converged in 16 steps (norm: 8.38963e-07)
------------------------------------
  Starting TPA DIIS iterations ... 
------------------------------------ 
   It     Res. Norm  Remark
------------------------------------
                       Guess.
    1     9.943e+00  
    2     1.746e+01  
    3     2.603e+00  
    4     1.038e+00  
    5     2.985e-01  
    6     1.358e-01  
    7     3.887e-02  
    8     6.809e-03  
    9     2.761e-03  
   10     4.789e-04  
   11     1.650e-04  
   12     2.823e-05  
   13     9.855e-06  
   14     4.279e-06  
   15     1.300e-06  
   16     1.037e-06  
   17     4.852e-07  Converged.
   ... Converged in 17 steps (norm: 4.85206e-07)
------------------------------------
  Starting TPA DIIS iterations ... 
------------------------------------ 
   It     Res. Norm  Remark
------------------------------------
                       Guess.
    1     8.449e-01  
    2     7.639e-01  
    3     3.511e-01  
    4     3.004e-01  
    5     5.073e-02  
    6     2.370e-02  
    7     5.593e-03  
    8     1.855e-03  
    9     6.867e-04  
   10     7.061e-05  
   11     2.691e-05  
   12     1.225e-05  
   13     1.332e-05  
   14     4.277e-06  
   15     1.766e-06  
   16     1.200e-06  
   17     4.231e-07  Converged.
   ... Converged in 17 steps (norm: 4.23051e-07)
------------------------------------
  Starting TPA DIIS iterations ... 
------------------------------------ 
   It     Res. Norm  Remark
------------------------------------
                       Guess.
    1     1.142e+01  
    2     2.062e+01  
    3     2.979e+00  
    4     1.206e+00  
    5     3.439e-01  
    6     1.563e-01  
    7     4.532e-02  
    8     7.706e-03  
    9     3.183e-03  
   10     5.557e-04  
   11     1.911e-04  
   12     3.291e-05  
   13     1.221e-05  
   14     5.139e-06  
   15     2.177e-06  
   16     1.099e-06  
   17     3.347e-07  Converged.
   ... Converged in 17 steps (norm: 3.34707e-07)
------------------------------------
  Starting TPA DIIS iterations ... 
------------------------------------ 
   It     Res. Norm  Remark
------------------------------------
                       Guess.
    1     1.083e+01  
    2     1.955e+01  
    3     2.835e+00  
    4     1.183e+00  
    5     3.427e-01  
    6     1.573e-01  
    7     4.470e-02  
    8     7.813e-03  
    9     3.195e-03  
   10     5.539e-04  
   11     1.901e-04  
   12     3.328e-05  
   13     1.152e-05  
   14     5.381e-06  
   15     1.708e-06  
   16     1.404e-06  
   17     6.551e-07  Converged.
   ... Converged in 17 steps (norm: 6.55133e-07)
------------------------------------
  Starting TPA DIIS iterations ... 
------------------------------------ 
   It     Res. Norm  Remark
------------------------------------
                       Guess.
    1     8.598e-01  
    2     7.978e-01  
    3     3.752e-01  
    4     3.417e-01  
    5     5.645e-02  
    6     2.658e-02  
    7     6.507e-03  
    8     1.915e-03  
    9     7.607e-04  
   10     8.180e-05  
   11     3.166e-05  
   12     1.454e-05  
   13     1.654e-05  
   14     5.346e-06  
   15     2.379e-06  
   16     1.569e-06  
   17     5.729e-07  Converged.
   ... Converged in 17 steps (norm: 5.72854e-07)
------------------------------------
  Starting TPA DIIS iterations ... 
------------------------------------ 
   It     Res. Norm  Remark
------------------------------------
                       Guess.
    1     1.240e+01  
    2     2.298e+01  
    3     3.231e+00  
    4     1.366e+00  
    5     3.919e-01  
    6     1.796e-01  
    7     5.172e-02  
    8     8.775e-03  
    9     3.655e-03  
   10     6.372e-04  
   11     2.180e-04  
   12     3.829e-05  
   13     1.434e-05  
   14     6.344e-06  
   15     2.758e-06  
   16     1.415e-06  
   17     4.250e-07  Converged.
   ... Converged in 17 steps (norm: 4.25013e-07)
------------------------------------
  Starting TPA DIIS iterations ... 
------------------------------------ 
   It     Res. Norm  Remark
------------------------------------
                       Guess.
    1     1.176e+01  
    2     2.179e+01  
    3     3.075e+00  
    4     1.338e+00  
    5     3.906e-01  
    6     1.808e-01  
    7     5.102e-02  
    8     8.899e-03  
    9     3.668e-03  
   10     6.352e-04  
   11     2.170e-04  
   12     3.897e-05  
   13     1.340e-05  
   14     6.692e-06  
   15     2.254e-06  
   16     1.867e-06  
   17     8.504e-07  Converged.
   ... Converged in 17 steps (norm: 8.50355e-07)
------------------------------------
  Starting TPA DIIS iterations ... 
------------------------------------ 
   It     Res. Norm  Remark
------------------------------------
                       Guess.
    1     8.740e-01  
    2     8.317e-01  
    3     3.997e-01  
    4     3.828e-01  
    5     6.255e-02  
    6     2.948e-02  
    7     7.484e-03  
    8     1.960e-03  
    9     8.358e-04  
   10     9.393e-05  
   11     3.699e-05  
   12     1.713e-05  
   13     2.031e-05  
   14     6.607e-06  
   15     3.174e-06  
   16     2.006e-06  
   17     7.534e-07  Converged.
   ... Converged in 17 steps (norm: 7.53434e-07)
------------------------------------
  Two-photon absorbption ...  CPU 123.51 s  wall 31.41 s
  Transition density matrix of state singlet_A_1 printed to ASCII file 'State_singlet_A_1_Transition.txt'
  Transition density matrix of state singlet_A_2 printed to ASCII file 'State_singlet_A_2_Transition.txt'
  Transition density matrix of state singlet_A_3 printed to ASCII file 'State_singlet_A_3_Transition.txt'
  Transition density matrix of state singlet_A_4 printed to ASCII file 'State_singlet_A_4_Transition.txt'
  Transition density matrix of state singlet_A_5 printed to ASCII file 'State_singlet_A_5_Transition.txt'
  Transition density matrix of state singlet_A_6 printed to ASCII file 'State_singlet_A_6_Transition.txt'
  Transition density matrix of state singlet_A_7 printed to ASCII file 'State_singlet_A_7_Transition.txt'
  Transition density matrix of state singlet_A_8 printed to ASCII file 'State_singlet_A_8_Transition.txt'
  Transition density matrix of state singlet_A_9 printed to ASCII file 'State_singlet_A_9_Transition.txt'
  Transition density matrix of state singlet_A_10 printed to ASCII file 'State_singlet_A_10_Transition.txt'
  Transition properties ...  CPU 0.13 s  wall 0.38 s
  Difference density matrix of state singlet_A_1 printed to ASCII file 'State_singlet_A_1_Difference.txt'
  Total density matrix of state singlet_A_1 printed to ASCII file 'State_singlet_A_1_Total.txt'
  Difference density matrix of state singlet_A_2 printed to ASCII file 'State_singlet_A_2_Difference.txt'
  Total density matrix of state singlet_A_2 printed to ASCII file 'State_singlet_A_2_Total.txt'
  Difference density matrix of state singlet_A_3 printed to ASCII file 'State_singlet_A_3_Difference.txt'
  Total density matrix of state singlet_A_3 printed to ASCII file 'State_singlet_A_3_Total.txt'
  Difference density matrix of state singlet_A_4 printed to ASCII file 'State_singlet_A_4_Difference.txt'
  Total density matrix of state singlet_A_4 printed to ASCII file 'State_singlet_A_4_Total.txt'
  Difference density matrix of state singlet_A_5 printed to ASCII file 'State_singlet_A_5_Difference.txt'
  Total density matrix of state singlet_A_5 printed to ASCII file 'State_singlet_A_5_Total.txt'
  Difference density matrix of state singlet_A_6 printed to ASCII file 'State_singlet_A_6_Difference.txt'
  Total density matrix of state singlet_A_6 printed to ASCII file 'State_singlet_A_6_Total.txt'
  Difference density matrix of state singlet_A_7 printed to ASCII file 'State_singlet_A_7_Difference.txt'
  Total density matrix of state singlet_A_7 printed to ASCII file 'State_singlet_A_7_Total.txt'
  Difference density matrix of state singlet_A_8 printed to ASCII file 'State_singlet_A_8_Difference.txt'
  Total density matrix of state singlet_A_8 printed to ASCII file 'State_singlet_A_8_Total.txt'
  Difference density matrix of state singlet_A_9 printed to ASCII file 'State_singlet_A_9_Difference.txt'
  Total density matrix of state singlet_A_9 printed to ASCII file 'State_singlet_A_9_Total.txt'
  Difference density matrix of state singlet_A_10 printed to ASCII file 'State_singlet_A_10_Difference.txt'
  Total density matrix of state singlet_A_10 printed to ASCII file 'State_singlet_A_10_Total.txt'
  Properties ...  CPU 0.53 s  wall 0.50 s
  ISR TDMS ...  CPU 25.17 s  wall 7.12 s
  ISR transition properties ...  CPU 0.60 s  wall 0.18 s
  Sum-over-states TPA ...  CPU 0.00 s  wall 0.00 s

--------------------------------------------------------------------------------
                   State-averaged natural transition orbitals
--------------------------------------------------------------------------------
--------------------------------------------------------------------------------
  SA-NTO decomposition ...  CPU 0.01 s  wall 0.02 s

--------------------------------------------------------------------------------
                             Excited State Summary
--------------------------------------------------------------------------------
--------------------------------------------------------------------------------

  Excited state 1 (singlet, A)                                     [converged]
  ----------------------------------------------------------------------------
  Term symbol:  2 (1) A                                     R^2 =  6.70377e-13

  Total energy:                                            -77.9985451446 a.u.
  Excitation energy:                                               8.736746 eV

  Osc. strength:                                                      0.445583
  Trans. dip. moment [a.u.]:           [   1.046014,   -0.993721,   -0.009204]
  <i|r^2|0> [a.u.]:                    [   6.169785,   -0.249284,   -0.000306]
  Two-photon absorption cross-section (SoS) [a.u.]:                   0.001290
  Two-photon absorption matrix (SoS) [a.u.]:
                                       |    0.009387   -0.003317   -0.000538 |
                                       |   -0.003317    0.000607   -0.000314 |
                                       |   -0.000538   -0.000314    0.007558 |
  Two-photon absorption cross-section [a.u.]:                         0.000909
  Two-photon absorption matrix [a.u.]:
                                       |    0.002158   -0.004640    0.000664 |
                                       |   -0.004640   -0.011363    0.001593 |
                                       |    0.000664    0.001593    0.006343 |

  Dip. moment [a.u.]:                  [  -0.001010,    0.000627,    0.000627]
  Total dipole [Debye]:                                               0.003417
  <r^2> [a.u.]:                        [ 176.184966,   35.645059,   11.866793]
  Total <r^2> [a.u.]:                                               223.696818

  V1^2 = 0.9715, V2^2 = 0.0285

  Important amplitudes:
      occ i     occ j     vir a      vir b          v   
    -----------------------------------------------------
     8 (A) A              9 (A) A                 0.6811
     6 (A) A             14 (A) A                -0.0623
     4 (A) A             10 (A) A                -0.0606
     7 (A) A             16 (A) A                 0.0571
     5 (A) A             13 (A) A                -0.0513
     6 (A) A             23 (A) A                -0.0485
     8 (A) A             20 (A) A                 0.0349
     6 (A) A             19 (A) A                -0.0309
     3 (A) A             12 (A) A                 0.0281
     5 (A) A             22 (A) A                 0.0215
     7 (A) A             11 (A) A                 0.0207
     4 (A) A             24 (A) A                -0.0187
     3 (A) A             26 (A) A                -0.0185
     8 (A) A   8 (A) B   17 (A) A   20 (A) B     -0.0184
     8 (A) A   8 (A) B    9 (A) A   28 (A) B     -0.0168
     6 (A) A             26 (A) A                -0.0164
     7 (A) A             21 (A) A                 0.0147
     3 (A) A             14 (A) A                -0.0139
     6 (A) A             12 (A) A                -0.0131
     3 (A) A   4 (A) B    9 (A) A    9 (A) B      0.0129
     3 (A) A             19 (A) A                -0.0119
     8 (A) A   8 (A) B   18 (A) A   19 (A) B      0.0113
     7 (A) A             32 (A) A                 0.0095
     7 (A) A             36 (A) A                 0.0086
     3 (A) A             23 (A) A                -0.0080
     8 (A) A   8 (A) B   25 (A) A   29 (A) B      0.0076
     6 (A) A             35 (A) A                -0.0072
     6 (A) A             40 (A) A                -0.0068
     3 (A) A   6 (A) B    9 (A) A   28 (A) B     -0.0065
     6 (A) A   8 (A) A   19 (A) A   28 (A) A     -0.0061
     5 (A) A   7 (A) B    9 (A) A    9 (A) B     -0.0060
     5 (A) A   8 (A) B   11 (A) A   20 (A) B     -0.0059
     7 (A) A   8 (A) B   13 (A) A   20 (A) B      0.0059
     5 (A) A   8 (A) B   16 (A) A    9 (A) B     -0.0059
     5 (A) A   8 (A) B   11 (A) A    9 (A) B      0.0059
     3 (A) A   5 (A) B    9 (A) A   25 (A) B     -0.0058
     3 (A) A             40 (A) A                -0.0057
     7 (A) A   8 (A) B   22 (A) A   20 (A) B     -0.0057
     6 (A) A   8 (A) A    9 (A) A   18 (A) A     -0.0057
     8 (A) A   8 (A) B   19 (A) A   30 (A) B      0.0056
    -----------------------------------------------------

  Density matrix analysis:
  ------------------------
  NOs
    Occupation of frontier NOs:
       0.9495   1.0217
    Number of electrons: 16.000000
    Number of unpaired electrons: n_u =  2.31333, n_u,nl =  2.03262
    NO participation ratio (PR_NO):  2.863616
  
  
  Mulliken Population Analysis
  Atom      Charge (e)              h+              e-           Del q
  --------------------------------------------------------------------
   1 H        0.058746        0.020278       -0.012535        0.007742
   2 C       -0.115809        0.490931       -0.506122       -0.015191
   3 H        0.058245        0.020194       -0.012591        0.007603
   4 C       -0.116947        0.490678       -0.506374       -0.015696
   5 H        0.057580        0.020235       -0.012526        0.007709
   6 H        0.058184        0.020340       -0.012507        0.007833
  --------------------------------------------------------------------
  Sum:       -0.000000        1.062655       -1.062655        0.000000
  
  Multipole moment analysis of the density matrix
    Molecular charge:                      -0.000000
    Number of electrons:                   16.000000
      Center of electronic charge [Ang]: [ -1.560855,  -0.065623,   0.001957]
    Total nuclear charge:                  16.000000
      Center of nuclear charge [Ang]:    [ -1.560889,  -0.065602,   0.001978]
    Dipole moment [D]:                     0.003417
      Cartesian components [D]:          [ -0.002568,   0.001594,   0.001593]
    RMS size of the density [Ang]:         1.214295
      Cartesian components [Ang]:        [  0.804538,   0.787112,   0.455726]
  
  Exciton analysis of the difference density matrix
    <r_h> [Ang]:                  [ -1.560317,  -0.065834,   0.001715]
    <r_e> [Ang]:                  [ -1.560364,  -0.065669,   0.001661]
    |<r_e - r_h>| [Ang]:            0.000180
    Hole size [Ang]:                1.285450
      Cartesian components [Ang]: [  0.728528,   0.712628,   0.783448]
    Electron size [Ang]:            1.463167
      Cartesian components [Ang]: [  0.853994,   0.830483,   0.849618]

  Transition density matrix analysis:
  -----------------------------------
  
  CT numbers (Mulliken)
    omega =     0.9535
    <Phe> =    -0.1607
  
  Exciton analysis of the transition density matrix
    Trans. dipole moment [D]:             1.833633
      Cartesian components [D]:         [  1.329352,  -1.262893,  -0.011697]
    <r_h> [Ang]:                        [ -1.560083,  -0.065997,   0.001767]
    <r_e> [Ang]:                        [ -1.560397,  -0.065659,   0.001620]
    |<r_e - r_h>| [Ang]:                  0.000484
    Hole size [Ang]:                      1.214141
      Cartesian components [Ang]:       [  0.649611,   0.636409,   0.804442]
    Electron size [Ang]:                  1.486034
      Cartesian components [Ang]:       [  0.864456,   0.839378,   0.869746]
    RMS electron-hole separation [Ang]:   1.936781
      Cartesian components [Ang]:       [  1.106795,   1.075214,   1.170488]
    Covariance(r_h, r_e) [Ang^2]:        -0.034343
    Correlation coefficient:             -0.019035
    Center-of-mass size [Ang]:            0.950493
      Cartesian components [Ang]:       [  0.527627,   0.515524,   0.599402]

  Decomposition into state-averaged NTOs
    H- 0 -> L+ 0: -0.6699 ( 89.8%)
    H- 2 -> L+ 5: -0.0836 (  1.4%)
                   omega =  95.4%
  ----------------------------------------------------------------------------


  Excited state 2 (singlet, A)                                     [converged]
  ----------------------------------------------------------------------------
  Term symbol:  3 (1) A                                     R^2 =  3.11934e-13

  Total energy:                                            -77.9869706155 a.u.
  Excitation energy:                                               9.051705 eV

  Osc. strength:                                                      0.000014
  Trans. dip. moment [a.u.]:           [  -0.003737,    0.004625,   -0.005474]
  <i|r^2|0> [a.u.]:                    [   0.042767,    0.086793,   -0.150415]
  Two-photon absorption cross-section (SoS) [a.u.]:                   4.842234
  Two-photon absorption matrix (SoS) [a.u.]:
                                       |    0.052732    0.058479   -0.537977 |
                                       |    0.058479    0.064404   -0.549659 |
                                       |   -0.537977   -0.549659   -0.117052 |
  Two-photon absorption cross-section [a.u.]:                         0.077259
  Two-photon absorption matrix [a.u.]:
                                       |   -0.002269   -0.007078    0.062606 |
                                       |   -0.007078   -0.012534    0.074137 |
                                       |    0.062606    0.074137    0.014862 |

  Dip. moment [a.u.]:                  [  -0.004191,    0.015697,    0.001910]
  Total dipole [Debye]:                                               0.041581
  <r^2> [a.u.]:                        [ 174.565610,   33.982784,   13.172658]
  Total <r^2> [a.u.]:                                               221.721052

  V1^2 = 0.9542, V2^2 = 0.0458

  Important amplitudes:
      occ i     occ j     vir a      vir b          v   
    -----------------------------------------------------
     7 (A) A              9 (A) A                -0.6693
     8 (A) A             11 (A) A                -0.1474
     7 (A) A             20 (A) A                -0.0759
     5 (A) A   8 (A) B    9 (A) A    9 (A) B      0.0317
     8 (A) A             16 (A) A                 0.0273
     8 (A) A             21 (A) A                -0.0175
     5 (A) A             28 (A) A                 0.0151
     4 (A) A   7 (A) B    9 (A) A   19 (A) B      0.0135
     5 (A) A   7 (A) B    9 (A) A   16 (A) B     -0.0134
     8 (A) A             10 (A) A                 0.0111
     7 (A) A   8 (A) B   20 (A) A   17 (A) B      0.0105
     7 (A) A   8 (A) A    9 (A) A   28 (A) A     -0.0098
     5 (A) A   8 (A) B    9 (A) A   20 (A) B      0.0096
     4 (A) A   6 (A) B    9 (A) A   16 (A) B     -0.0091
     5 (A) A   6 (A) A    9 (A) A   23 (A) A      0.0091
     5 (A) A   6 (A) A    9 (A) A   14 (A) A      0.0089
     5 (A) A   6 (A) B    9 (A) A   19 (A) B      0.0087
     8 (A) A   7 (A) B    9 (A) A   28 (A) B      0.0085
     4 (A) A   5 (A) A    9 (A) A   10 (A) A     -0.0084
     6 (A) A   7 (A) B    9 (A) A   18 (A) B      0.0083
     5 (A) A   6 (A) B    9 (A) A   23 (A) B      0.0080
     3 (A) A   7 (A) B    9 (A) A   18 (A) B     -0.0080
     5 (A) A   7 (A) A    9 (A) A   16 (A) A     -0.0079
     4 (A) A   8 (A) B    9 (A) A   25 (A) B     -0.0077
     7 (A) A   8 (A) B   17 (A) A   20 (A) B      0.0074
     4 (A) A   7 (A) B   19 (A) A    9 (A) B      0.0074
     5 (A) A   5 (A) B    9 (A) A   13 (A) B      0.0072
     7 (A) A   8 (A) B   19 (A) A   18 (A) B     -0.0072
     5 (A) A   8 (A) A    9 (A) A   20 (A) A      0.0069
     4 (A) A   5 (A) B    9 (A) A   18 (A) B      0.0068
     7 (A) A   7 (A) B   20 (A) A   22 (A) B      0.0065
     7 (A) A   8 (A) B   17 (A) A    9 (A) B      0.0065
     5 (A) A   6 (A) B    9 (A) A   14 (A) B      0.0063
     4 (A) A   7 (A) A    9 (A) A   19 (A) A      0.0061
     4 (A) A   5 (A) B   10 (A) A    9 (A) B      0.0061
     5 (A) A             38 (A) A                 0.0060
     5 (A) A   7 (A) B   11 (A) A   20 (A) B      0.0060
     4 (A) A   7 (A) B    9 (A) A   14 (A) B     -0.0060
     4 (A) A   8 (A) A    9 (A) A   25 (A) A     -0.0057
     6 (A) A   7 (A) A   19 (A) A   28 (A) A      0.0057
    -----------------------------------------------------

  Density matrix analysis:
  ------------------------
  NOs
    Occupation of frontier NOs:
       0.9583   1.0535
    Number of electrons: 16.000000
    Number of unpaired electrons: n_u =  2.35526, n_u,nl =  2.06257
    NO participation ratio (PR_NO):  3.025633
  
  
  Mulliken Population Analysis
  Atom      Charge (e)              h+              e-           Del q
  --------------------------------------------------------------------
   1 H        0.150201        0.121733       -0.022535        0.099198
   2 C       -0.301989        0.270396       -0.471768       -0.201372
   3 H        0.150576        0.126343       -0.026409        0.099934
   4 C       -0.302530        0.273664       -0.474943       -0.201279
   5 H        0.154605        0.127120       -0.022385        0.104734
   6 H        0.149136        0.124896       -0.026111        0.098785
  --------------------------------------------------------------------
  Sum:       -0.000000        1.044152       -1.044152       -0.000000
  
  Multipole moment analysis of the density matrix
    Molecular charge:                      -0.000000
    Number of electrons:                   16.000000
      Center of electronic charge [Ang]: [ -1.560750,  -0.066121,   0.001915]
    Total nuclear charge:                  16.000000
      Center of nuclear charge [Ang]:    [ -1.560889,  -0.065602,   0.001978]
    Dipole moment [D]:                     0.041581
      Cartesian components [D]:          [ -0.010653,   0.039899,   0.004856]
    RMS size of the density [Ang]:         1.200082
      Cartesian components [Ang]:        [  0.786936,   0.768367,   0.480147]
  
  Exciton analysis of the difference density matrix
    <r_h> [Ang]:                  [ -1.568024,  -0.062519,   0.001886]
    <r_e> [Ang]:                  [ -1.566460,  -0.069989,   0.001181]
    |<r_e - r_h>| [Ang]:            0.007665
    Hole size [Ang]:                1.486418
      Cartesian components [Ang]: [  1.001979,   0.999569,   0.454245]
    Electron size [Ang]:            1.476733
      Cartesian components [Ang]: [  0.881360,   0.858726,   0.816414]

  Transition density matrix analysis:
  -----------------------------------
  
  CT numbers (Mulliken)
    omega =     0.9218
    <Phe> =    -0.0122
  
  Exciton analysis of the transition density matrix
    Trans. dipole moment [D]:             0.010271
      Cartesian components [D]:         [ -0.004750,   0.005878,  -0.006956]
    <r_h> [Ang]:                        [ -1.569012,  -0.061684,   0.001960]
    <r_e> [Ang]:                        [ -1.565918,  -0.070915,   0.001073]
    |<r_e - r_h>| [Ang]:                  0.009776
    Hole size [Ang]:                      1.515179
      Cartesian components [Ang]:       [  1.024972,   1.023813,   0.443852]
    Electron size [Ang]:                  1.473793
      Cartesian components [Ang]:       [  0.871881,   0.848075,   0.832261]
    RMS electron-hole separation [Ang]:   2.093907
      Cartesian components [Ang]:       [  1.329756,   1.314510,   0.942475]
    Covariance(r_h, r_e) [Ang^2]:         0.041740
    Correlation coefficient:              0.018692
    Center-of-mass size [Ang]:            1.066690
      Cartesian components [Ang]:       [  0.680670,   0.672123,   0.471982]

  Decomposition into state-averaged NTOs
    H- 1 -> L+ 0:  0.6617 ( 87.6%)
    H- 0 -> L+ 2:  0.1473 (  4.3%)
                   omega =  92.2%
  ----------------------------------------------------------------------------


  Excited state 3 (singlet, A)                                     [converged]
  ----------------------------------------------------------------------------
  Term symbol:  4 (1) A                                     R^2 =  6.38014e-13

  Total energy:                                            -77.9824410988 a.u.
  Excitation energy:                                               9.174960 eV

  Osc. strength:                                                      0.025299
  Trans. dip. moment [a.u.]:           [  -0.015353,   -0.020374,    0.334512]
  <i|r^2|0> [a.u.]:                    [  -0.091449,   -0.001305,   -0.004786]
  Two-photon absorption cross-section (SoS) [a.u.]:                   0.008720
  Two-photon absorption matrix (SoS) [a.u.]:
                                       |   -0.017230   -0.002980    0.023221 |
                                       |   -0.002980    0.011877    0.017728 |
                                       |    0.023221    0.017728   -0.000502 |
  Two-photon absorption cross-section [a.u.]:                         0.009135
  Two-photon absorption matrix [a.u.]:
                                       |   -0.015385   -0.002167    0.028261 |
                                       |   -0.002167    0.006749    0.013532 |
                                       |    0.028261    0.013532    0.001324 |

  Dip. moment [a.u.]:                  [   0.008345,    0.027736,    0.001351]
  Total dipole [Debye]:                                               0.073698
  <r^2> [a.u.]:                        [ 180.985191,   40.612436,   11.029464]
  Total <r^2> [a.u.]:                                               232.627091

  V1^2 = 0.9587, V2^2 = 0.0413

  Important amplitudes:
      occ i     occ j     vir a      vir b          v   
    -----------------------------------------------------
     8 (A) A             10 (A) A                -0.6890
     8 (A) A             24 (A) A                -0.0507
     8 (A) A             18 (A) A                 0.0312
     4 (A) A              9 (A) A                 0.0237
     8 (A) A   8 (A) B    9 (A) A   12 (A) B     -0.0219
     8 (A) A   8 (A) B   10 (A) A   17 (A) B     -0.0173
     8 (A) A             15 (A) A                -0.0167
     5 (A) A   8 (A) B   11 (A) A   10 (A) B     -0.0165
     7 (A) A   8 (A) B   13 (A) A   10 (A) B      0.0141
     7 (A) A              9 (A) A                -0.0115
     4 (A) A   8 (A) B   12 (A) A   10 (A) B      0.0111
     6 (A) A   8 (A) A   10 (A) A   15 (A) A      0.0110
     7 (A) A   8 (A) B   22 (A) A   10 (A) B     -0.0108
     6 (A) A   8 (A) B   15 (A) A   10 (A) B     -0.0108
     4 (A) A   8 (A) A   10 (A) A   12 (A) A     -0.0106
     7 (A) A   8 (A) A   10 (A) A   22 (A) A      0.0099
     7 (A) A   8 (A) A   10 (A) A   13 (A) A     -0.0098
     5 (A) A   8 (A) B   21 (A) A   10 (A) B     -0.0094
     5 (A) A   8 (A) A   10 (A) A   11 (A) A      0.0094
     6 (A) A   8 (A) A   10 (A) A   18 (A) A      0.0087
     6 (A) A   8 (A) B   10 (A) A   10 (A) B      0.0087
     7 (A) A   8 (A) A   12 (A) A   16 (A) A     -0.0082
     5 (A) A   8 (A) A   10 (A) A   21 (A) A      0.0080
     3 (A) A   4 (A) B   10 (A) A    9 (A) B     -0.0079
     4 (A) A   8 (A) B   19 (A) A   10 (A) B     -0.0075
     8 (A) A   8 (A) B    9 (A) A   23 (A) B     -0.0075
     8 (A) A   8 (A) B   10 (A) A   28 (A) B      0.0073
     3 (A) A   8 (A) B   10 (A) A   10 (A) B     -0.0072
     5 (A) A   8 (A) B   10 (A) A   11 (A) B     -0.0071
     3 (A) A   8 (A) A   10 (A) A   24 (A) A      0.0071
     7 (A) A   8 (A) B   16 (A) A   12 (A) B      0.0071
     3 (A) A   8 (A) B   10 (A) A   18 (A) B      0.0069
     8 (A) A   8 (A) B    9 (A) A   19 (A) B      0.0068
     6 (A) A   8 (A) B   18 (A) A   10 (A) B     -0.0066
     3 (A) A   6 (A) B   10 (A) A   28 (A) B      0.0062
     7 (A) A   8 (A) B   12 (A) A   11 (A) B     -0.0057
     6 (A) A             28 (A) A                -0.0057
     3 (A) A   5 (A) B   10 (A) A   25 (A) B      0.0056
     5 (A) A   8 (A) A   10 (A) A   16 (A) A     -0.0056
     3 (A) A   8 (A) A   10 (A) A   18 (A) A      0.0056
    -----------------------------------------------------

  Density matrix analysis:
  ------------------------
  NOs
    Occupation of frontier NOs:
       0.9817   0.9848
    Number of electrons: 16.000000
    Number of unpaired electrons: n_u =  2.28570, n_u,nl =  2.02450
    NO participation ratio (PR_NO):  2.692911
  
  
  Mulliken Population Analysis
  Atom      Charge (e)              h+              e-           Del q
  --------------------------------------------------------------------
   1 H       -0.161901        0.053994       -0.266899       -0.212905
   2 C        0.328642        0.539143       -0.109883        0.429259
   3 H       -0.168670        0.053646       -0.272958       -0.219313
   4 C        0.327396        0.536925       -0.108278        0.428647
   5 H       -0.160436        0.054112       -0.264419       -0.210307
   6 H       -0.165031        0.053866       -0.269247       -0.215382
  --------------------------------------------------------------------
  Sum:       -0.000000        1.291685       -1.291685        0.000000
  
  Multipole moment analysis of the density matrix
    Molecular charge:                      -0.000000
    Number of electrons:                   16.000000
      Center of electronic charge [Ang]: [ -1.561165,  -0.066520,   0.001933]
    Total nuclear charge:                  16.000000
      Center of nuclear charge [Ang]:    [ -1.560889,  -0.065602,   0.001978]
    Dipole moment [D]:                     0.073698
      Cartesian components [D]:          [  0.021210,   0.070497,   0.003434]
    RMS size of the density [Ang]:         1.276607
      Cartesian components [Ang]:        [  0.854592,   0.840455,   0.439354]
  
  Exciton analysis of the difference density matrix
    <r_h> [Ang]:                  [ -1.560086,  -0.066428,   0.001808]
    <r_e> [Ang]:                  [ -1.563957,  -0.077398,   0.001467]
    |<r_e - r_h>| [Ang]:            0.011638
    Hole size [Ang]:                1.410429
      Cartesian components [Ang]: [  0.834242,   0.819903,   0.788105]
    Electron size [Ang]:            2.076928
      Cartesian components [Ang]: [  1.374042,   1.377373,   0.726968]

  Transition density matrix analysis:
  -----------------------------------
  
  CT numbers (Mulliken)
    omega =     0.9259
    <Phe> =    -0.0109
  
  Exciton analysis of the transition density matrix
    Trans. dipole moment [D]:             0.426357
      Cartesian components [D]:         [ -0.019512,  -0.025892,   0.425122]
    <r_h> [Ang]:                        [ -1.559376,  -0.065481,   0.001758]
    <r_e> [Ang]:                        [ -1.564847,  -0.081419,   0.001316]
    |<r_e - r_h>| [Ang]:                  0.016856
    Hole size [Ang]:                      1.213024
      Cartesian components [Ang]:       [  0.636608,   0.623649,   0.822934]
    Electron size [Ang]:                  2.297316
      Cartesian components [Ang]:       [  1.518715,   1.524837,   0.803765]
    RMS electron-hole separation [Ang]:   2.588046
      Cartesian components [Ang]:       [  1.639260,   1.640531,   1.148680]
    Covariance(r_h, r_e) [Ang^2]:         0.025696
    Correlation coefficient:              0.009221
    Center-of-mass size [Ang]:            1.303887
      Cartesian components [Ang]:       [  0.827102,   0.827200,   0.575988]

  Decomposition into state-averaged NTOs
    H- 0 -> L+ 1: -0.6797 ( 92.4%)
                   omega =  92.6%
  ----------------------------------------------------------------------------


  Excited state 4 (singlet, A)                                     [converged]
  ----------------------------------------------------------------------------
  Term symbol:  5 (1) A                                     R^2 =  3.13471e-13

  Total energy:                                            -77.9581903055 a.u.
  Excitation energy:                                               9.834857 eV

  Osc. strength:                                                      0.000004
  Trans. dip. moment [a.u.]:           [  -0.001386,    0.001745,   -0.003427]
  <i|r^2|0> [a.u.]:                    [  -0.025484,   -0.018652,    0.036407]
  Two-photon absorption cross-section (SoS) [a.u.]:                 149.820013
  Two-photon absorption matrix (SoS) [a.u.]:
                                       |   -0.290978   -0.325158    3.006779 |
                                       |   -0.325158   -0.360184    3.043342 |
                                       |    3.006779    3.043342    0.651036 |
  Two-photon absorption cross-section [a.u.]:                        91.886023
  Two-photon absorption matrix [a.u.]:
                                       |   -0.230322   -0.254796    2.352576 |
                                       |   -0.254796   -0.279687    2.385494 |
                                       |    2.352576    2.385494    0.509898 |

  Dip. moment [a.u.]:                  [  -0.031715,   -0.021686,   -0.003535]
  Total dipole [Debye]:                                               0.098068
  <r^2> [a.u.]:                        [ 181.176818,   40.532429,   10.761774]
  Total <r^2> [a.u.]:                                               232.471021

  V1^2 = 0.9635, V2^2 = 0.0365

  Important amplitudes:
      occ i     occ j     vir a      vir b          v   
    -----------------------------------------------------
     8 (A) A             11 (A) A                 0.6699
     7 (A) A              9 (A) A                -0.1494
     8 (A) A             21 (A) A                 0.0781
     8 (A) A             16 (A) A                -0.0647
     8 (A) A   8 (A) B    9 (A) A   13 (A) B     -0.0167
     5 (A) A   8 (A) B   11 (A) A   11 (A) B      0.0156
     8 (A) A   8 (A) B   11 (A) A   17 (A) B      0.0140
     7 (A) A             20 (A) A                -0.0136
     7 (A) A   8 (A) B   13 (A) A   11 (A) B     -0.0127
     5 (A) A   8 (A) A   11 (A) A   21 (A) A     -0.0110
     4 (A) A   8 (A) B   12 (A) A   11 (A) B     -0.0110
     8 (A) A   8 (A) B    9 (A) A   22 (A) B      0.0108
     8 (A) A             12 (A) A                 0.0107
     7 (A) A   8 (A) A   11 (A) A   22 (A) A     -0.0096
     6 (A) A   8 (A) B   15 (A) A   11 (A) B      0.0090
     6 (A) A   8 (A) B   10 (A) A   11 (A) B     -0.0090
     7 (A) A   8 (A) B   22 (A) A   11 (A) B      0.0089
     3 (A) A   4 (A) B   11 (A) A    9 (A) B      0.0083
     3 (A) A   8 (A) B   11 (A) A   18 (A) B     -0.0081
     6 (A) A   8 (A) A   11 (A) A   15 (A) A     -0.0080
     7 (A) A   8 (A) A   13 (A) A   16 (A) A     -0.0078
     7 (A) A   8 (A) A   11 (A) A   13 (A) A      0.0077
     5 (A) A   8 (A) B   21 (A) A   11 (A) B      0.0071
     4 (A) A   8 (A) B   19 (A) A   11 (A) B      0.0070
     5 (A) A   8 (A) B    9 (A) A    9 (A) B      0.0067
     4 (A) A   8 (A) A   11 (A) A   12 (A) A      0.0062
     6 (A) A              9 (A) A                 0.0062
     6 (A) A   8 (A) A   11 (A) A   18 (A) A     -0.0062
     3 (A) A   6 (A) B   11 (A) A   28 (A) B     -0.0060
     6 (A) A   8 (A) B   18 (A) A   11 (A) B      0.0060
     7 (A) A   8 (A) B   16 (A) A   13 (A) B      0.0057
     3 (A) A   8 (A) A   11 (A) A   18 (A) A     -0.0056
     5 (A) A   8 (A) B   10 (A) A   10 (A) B      0.0056
     3 (A) A   8 (A) B   11 (A) A   30 (A) B     -0.0055
     3 (A) A   5 (A) B   11 (A) A   25 (A) B     -0.0055
     6 (A) A   8 (A) B   11 (A) A   10 (A) B     -0.0054
     7 (A) A   8 (A) B   12 (A) A   10 (A) B      0.0054
     8 (A) A   8 (A) B   20 (A) A   22 (A) B      0.0053
     3 (A) A   8 (A) A   11 (A) A   24 (A) A     -0.0053
     5 (A) A   8 (A) A   11 (A) A   16 (A) A      0.0048
    -----------------------------------------------------

  Density matrix analysis:
  ------------------------
  NOs
    Occupation of frontier NOs:
       0.9413   1.0273
    Number of electrons: 16.000000
    Number of unpaired electrons: n_u =  2.31903, n_u,nl =  2.04872
    NO participation ratio (PR_NO):  2.911214
  
  
  Mulliken Population Analysis
  Atom      Charge (e)              h+              e-           Del q
  --------------------------------------------------------------------
   1 H       -0.150008        0.045805       -0.246817       -0.201012
   2 C        0.275489        0.497600       -0.121494        0.376106
   3 H       -0.126165        0.046683       -0.223491       -0.176808
   4 C        0.273110        0.496923       -0.122561        0.374361
   5 H       -0.134211        0.046911       -0.230993       -0.184081
   6 H       -0.138215        0.045869       -0.234435       -0.188566
  --------------------------------------------------------------------
  Sum:       -0.000000        1.179791       -1.179791       -0.000000
  
  Multipole moment analysis of the density matrix
    Molecular charge:                      -0.000000
    Number of electrons:                   16.000000
      Center of electronic charge [Ang]: [ -1.559840,  -0.064885,   0.002095]
    Total nuclear charge:                  16.000000
      Center of nuclear charge [Ang]:    [ -1.560889,  -0.065602,   0.001978]
    Dipole moment [D]:                     0.098068
      Cartesian components [D]:          [ -0.080613,  -0.055119,  -0.008985]
    RMS size of the density [Ang]:         1.277240
      Cartesian components [Ang]:        [  0.858963,   0.839750,   0.433988]
  
  Exciton analysis of the difference density matrix
    <r_h> [Ang]:                  [ -1.559729,  -0.065028,   0.001884]
    <r_e> [Ang]:                  [ -1.546000,  -0.054872,   0.003702]
    |<r_e - r_h>| [Ang]:            0.017174
    Hole size [Ang]:                1.394613
      Cartesian components [Ang]: [  0.818446,   0.806245,   0.790607]
    Electron size [Ang]:            2.124024
      Cartesian components [Ang]: [  1.440939,   1.405374,   0.678307]

  Transition density matrix analysis:
  -----------------------------------
  
  CT numbers (Mulliken)
    omega =     0.9298
    <Phe> =    -0.0135
  
  Exciton analysis of the transition density matrix
    Trans. dipole moment [D]:             0.005196
      Cartesian components [D]:         [ -0.001762,   0.002218,  -0.004356]
    <r_h> [Ang]:                        [ -1.560622,  -0.065634,   0.001710]
    <r_e> [Ang]:                        [ -1.543371,  -0.052660,   0.004037]
    |<r_e - r_h>| [Ang]:                  0.021711
    Hole size [Ang]:                      1.227777
      Cartesian components [Ang]:       [  0.658160,   0.649460,   0.807753]
    Electron size [Ang]:                  2.262281
      Cartesian components [Ang]:       [  1.535315,   1.497136,   0.720630]
    RMS electron-hole separation [Ang]:   2.563369
      Cartesian components [Ang]:       [  1.661952,   1.624200,   1.082012]
    Covariance(r_h, r_e) [Ang^2]:         0.027481
    Correlation coefficient:              0.009894
    Center-of-mass size [Ang]:            1.292315
      Cartesian components [Ang]:       [  0.839486,   0.819844,   0.541479]

  Decomposition into state-averaged NTOs
    H- 0 -> L+ 2: -0.6652 ( 88.5%)
    H- 1 -> L+ 0:  0.1474 (  4.3%)
                   omega =  93.0%
  ----------------------------------------------------------------------------


  Excited state 5 (singlet, A)                                     [converged]
  ----------------------------------------------------------------------------
  Term symbol:  6 (1) A                                     R^2 =  5.11588e-13

  Total energy:                                            -77.9442161076 a.u.
  Excitation energy:                                              10.215114 eV

  Osc. strength:                                                      0.000000
  Trans. dip. moment [a.u.]:           [   0.000177,    0.000251,    0.000177]
  <i|r^2|0> [a.u.]:                    [   0.088274,   -0.103531,    0.016616]
  Two-photon absorption cross-section (SoS) [a.u.]:                 184.293599
  Two-photon absorption matrix (SoS) [a.u.]:
                                       |    0.327104    0.041953   -3.412297 |
                                       |    0.041953   -0.396114    3.355040 |
                                       |   -3.412297    3.355040    0.076280 |
  Two-photon absorption cross-section [a.u.]:                        84.192793
  Two-photon absorption matrix [a.u.]:
                                       |    0.222410    0.028719   -2.295995 |
                                       |    0.028719   -0.266489    2.278157 |
                                       |   -2.295995    2.278157    0.053218 |

  Dip. moment [a.u.]:                  [   0.013068,   -0.017713,   -0.000209]
  Total dipole [Debye]:                                               0.055952
  <r^2> [a.u.]:                        [ 178.650396,   38.391827,   11.900841]
  Total <r^2> [a.u.]:                                               228.943064

  V1^2 = 0.9572, V2^2 = 0.0428

  Important amplitudes:
[...]
    16   -1.479949341622e-03
    17   -1.765001033060e-03
    18   -9.143514238966e-05
    19   -3.361335481849e-03
    20    1.105086085172e-02
    21    9.392250429898e-01
    22   -2.509702016741e-04
    23    1.405578143514e-02
    24    8.212542046668e-04
    25    7.013898108788e-02
    26   -5.207847025801e-02
    27   -1.398562654038e+00
    28    9.849289240917e-02
    29   -9.184266223396e-02
    30   -1.011933759013e-03
    31    3.883644860745e-01
    32   -3.620004810317e-01
    33   -3.998824196120e-03
    34    1.569494645013e-02
    35   -1.462016232471e-03
    36   -1.808185206351e-03
    37    5.213124888024e-05
    38   -3.055063878063e-03
    39    9.282804854975e-03
    40    9.306804695040e-01
    41    2.495419584742e-04
    42   -1.393576103324e-02
    43   -8.340695108367e-04
    44    9.912567637930e-03
    45    9.426508380234e-01
    46    1.412458185416e-02
    47    4.814495618026e-04
    48    6.901675577675e-04
Sym=X
Ene= 0.233059
Spin=Alpha
Occup=0
     1    2.624144671533e-02
     2    1.237743642144e+00
     3   -1.436500599566e-02
     4   -3.815115466017e-03
     5   -8.981508785749e-04
     6    3.078490785016e-03
     7   -3.320702129255e-03
     8   -5.195367461477e-02
     9   -1.553523695932e-01
    10   -1.584390252132e-01
    11   -1.665827706938e-02
    12   -5.581800178957e-01
    13   -5.591908287945e-01
    14   -5.918141991027e-02
    15    5.660810568891e-04
    16   -6.224348432312e-05
    17   -6.683312289128e-05
    18   -1.368687315791e-04
    19   -3.497868971467e-04
    20   -2.515714776679e-02
    21   -1.161158736014e+00
    22   -2.511038492120e-03
    23   -1.352677831674e-02
    24   -9.187595553548e-04
    25   -2.375830970127e-03
    26    2.750445408753e-03
    27    3.311248670901e-02
    28   -1.533552574626e-01
    29   -1.594703109703e-01
    30   -1.688857272031e-02
    31   -5.425384925068e-01
    32   -5.569355655303e-01
    33   -5.939970020457e-02
    34   -4.438664233626e-04
    35    6.003024636711e-05
    36    1.224026819579e-05
    37    3.778991951024e-04
    38    3.106687350374e-04
    39    2.513037030813e-02
    40    1.162438083531e+00
    41   -2.474501057291e-03
    42   -1.368482625619e-02
    43   -9.431617050689e-04
    44   -2.637371704048e-02
    45   -1.215204529713e+00
    46   -1.416102529681e-02
    47   -3.711202722208e-03
    48   -8.950271222004e-04
Sym=X
Ene= 0.239328
Spin=Alpha
Occup=0
     1   -1.609348765359e-02
     2   -1.054503377343e+00
     3    1.656345437842e-02
     4    9.100178932673e-03
     5    1.333320859323e-03
     6   -8.645970324247e-02
     7    7.984969817530e-02
     8    1.589684337775e+00
     9    5.344864597593e-02
    10   -6.002392565887e-02
    11   -8.870250383568e-04
    12    2.143188373786e-01
    13   -2.333741540039e-01
    14   -3.028546688743e-03
    15   -2.251409043780e-02
    16    2.619650967516e-03
    17    2.947665354175e-03
    18   -4.278348925654e-04
    19    1.282537231602e-02
    20   -1.694367013535e-02
    21   -1.119644417180e+00
    22   -8.539744558507e-03
    23   -1.766961639840e-02
    24   -1.444592338736e-03
    25    8.641961390269e-02
    26   -7.922836931661e-02
    27   -1.596556524266e+00
    28    5.375472723019e-02
    29   -6.095804862806e-02
    30   -1.359642971870e-03
    31    2.133893582212e-01
    32   -2.432977469784e-01
    33   -5.479435933158e-03
    34    2.265318394093e-02
    35   -2.573504944050e-03
    36   -3.035065472511e-03
    37    8.781017413960e-04
    38   -1.271127127934e-02
    39    1.667231120472e-02
    40    1.132703404826e+00
    41   -8.648467224709e-03
    42   -1.796675040761e-02
    43   -1.501714009223e-03
    44    1.541957321069e-02
    45    1.049358062330e+00
    46    1.639398489560e-02
    47    9.386643516611e-03
    48    1.318814096612e-03
Sym=X
Ene= 0.303293
Spin=Alpha
Occup=0
     1   -2.083975804279e-02
     2    1.687490971068e+00
     3   -2.287897296474e-02
     4    3.157721703862e-04
     5   -1.071802601083e-03
     6   -3.625201680371e-04
     7    8.905127963081e-05
     8    9.512837616291e-03
     9   -1.334842991422e-01
    10   -1.396096344063e-01
    11   -1.455577544303e-02
    12   -1.145021605949e+00
    13   -1.191857957201e+00
    14   -1.249308623978e-01
    15   -2.326811297706e-04
    16   -1.648665402282e-03
    17    1.875032132848e-03
    18   -3.282435941189e-02
    19   -1.537980853236e-03
    20    2.013950198816e-02
    21   -1.690386478182e+00
    22    1.413159375802e-03
    23   -2.299614068222e-02
    24   -1.283594024379e-03
    25    2.533294604959e-04
    26    2.697323715338e-04
    27   -1.269566475868e-02
    28    1.348116192063e-01
    29    1.406496146869e-01
    30    1.483900486510e-02
    31    1.136234262341e+00
    32    1.200629827988e+00
    33    1.255693332481e-01
    34    1.602692215897e-04
    35   -1.620182593343e-03
    36    1.895472942766e-03
    37   -3.261776692346e-02
    38   -1.757203789758e-03
    39    1.969816294805e-02
    40   -1.693898981401e+00
    41   -1.730193820750e-03
    42    2.283882654302e-02
    43    1.292350275693e-03
    44   -1.982119329160e-02
    45    1.700927578667e+00
    46    2.314689815036e-02
    47   -4.274234675008e-04
    48    1.067904960999e-03
Sym=X
Ene= 0.462317
Spin=Alpha
Occup=0
     1   -1.167511057107e-01
     2   -7.141962014097e-01
     3   -1.572894055258e-02
     4   -1.040908044450e-02
     5   -1.353088200696e-03
     6    6.091096291842e-02
     7    1.739478362279e-02
     8   -3.596220917764e+00
     9    1.024975437245e-01
    10   -9.861655245504e-02
    11   -1.004102803166e-03
    12    2.430385815628e+00
    13   -2.307639195809e+00
    14   -2.104000950882e-02
    15    5.380427715348e-02
    16   -3.382222553657e-03
    17   -4.660127364025e-03
    18   -9.369872310042e-04
    19    1.781541829062e-02
    20   -1.217138966051e-01
    21   -7.034160746464e-01
    22    8.833061014244e-03
    23    1.631967935904e-02
    24    1.383652913186e-03
    25   -6.111718332635e-02
    26   -1.571265311086e-02
    27    3.594691337438e+00
    28    1.059389894222e-01
    29   -1.005494129433e-01
    30   -1.209914461235e-03
    31    2.425573264740e+00
    32   -2.300394217172e+00
    33   -2.199283371585e-02
    34   -5.233099560301e-02
    35    3.228243583408e-03
    36    4.476043099494e-03
    37    6.875868125695e-04
    38   -1.938686755224e-02
    39    1.120779319301e-01
    40    7.158069266849e-01
    41    8.680951917170e-03
    42    1.616032427558e-02
    43    1.374980053988e-03
    44    1.097564881363e-01
    45    7.188336246577e-01
    46   -1.537848324571e-02
    47   -9.742635136097e-03
    48   -1.324374834267e-03
Sym=X
Ene= 0.577757
Spin=Alpha
Occup=0
     1    2.445757524211e-01
     2    3.808495439101e-02
     3   -1.882653946857e-02
     4    2.579066565507e-02
     5    6.342112301941e-04
     6   -4.235206518002e-03
     7   -1.580447112100e-01
     8   -4.815817084830e-01
     9    3.000156270679e-01
    10   -2.889192778150e-01
    11   -2.929288526311e-03
    12   -7.099037877920e-01
    13    6.867877227242e-01
    14    7.242260693147e-03
    15   -5.408514432197e-03
    16    3.829963593142e-03
    17    3.691241777554e-03
    18   -4.479587563011e-03
    19    6.011399995950e-02
    20    2.557002318381e-01
    21    2.585149012051e-02
    22   -2.610758735494e-02
    23    1.650593537550e-02
    24   -2.606196108604e-04
    25   -6.046276315332e-03
    26   -1.590621047909e-01
    27   -3.954666993215e-01
    28   -2.982511315773e-01
    29    2.843209540576e-01
    30    2.696531145617e-03
    31    7.768820945729e-01
    32   -7.421427158763e-01
    33   -7.611346612780e-03
    34   -5.350708796658e-03
    35    3.886279462393e-03
    36    3.610387773515e-03
    37   -3.134701959087e-03
    38    6.007825259626e-02
    39    2.463897892168e-01
    40    6.000494744267e-02
    41    2.749200868762e-02
    42   -1.751802752411e-02
    43    2.449081372572e-04
    44    2.499902838620e-01
    45    5.957398875647e-02
    46    1.853708387075e-02
    47   -2.584348028271e-02
    48   -6.782281712563e-04
Sym=X
Ene= 0.614630
Spin=Alpha
Occup=0
     1   -5.221032902256e-01
     2    2.005367275707e-01
     3   -6.105222654182e-02
     4    3.745528527665e-02
     5   -6.966985122791e-04
     6   -5.648411033731e-04
     7   -2.609300489069e-04
     8   -6.639175530228e-03
     9   -4.088624691859e-02
    10   -3.822923449421e-02
    11   -4.254332542666e-03
    12    3.017957401036e-01
    13    2.790234433238e-01
    14    3.057616016492e-02
    15    1.744440378466e-03
    16   -7.590105335933e-03
    17    8.200345654875e-03
    18   -1.474043157415e-01
    19   -6.896069431299e-03
    20    5.065057091486e-01
    21   -2.043098469372e-01
    22    4.193948168322e-02
    23   -5.838771398309e-02
    24   -1.472973915217e-03
    25    2.221708178231e-04
    26   -1.456316133519e-03
    27    2.419216682571e-02
    28   -3.942713216930e-02
    29   -4.204652161238e-02
    30   -4.334522326465e-03
    31    2.966160059802e-01
    32    3.004677147577e-01
    33    3.228400546376e-02
    34   -9.578873585586e-04
    35    7.410118509218e-03
    36   -8.611565729922e-03
    37    1.490939190420e-01
    38    6.608955597679e-03
    39   -5.184028804873e-01
    40    2.055464000712e-01
    41    4.035460537401e-02
    42   -5.850940475175e-02
    43   -1.602040325245e-03
    44    5.196361418913e-01
    45   -2.067737071357e-01
    46   -6.129050244997e-02
    47    3.764938330165e-02
    48   -6.134927336604e-04
Sym=X
Ene= 0.689147
Spin=Alpha
Occup=0
     1    4.253307828533e-04
     2    1.588830242239e-04
     3    1.068600570722e-03
     4    1.276419448852e-03
     5   -2.100557363174e-02
     6    3.054563185146e-05
     7    3.380858009546e-04
     8    5.063034821151e-06
     9    3.152901816912e-02
    10    3.985028285576e-02
    11   -6.704108698612e-01
    12   -2.932195628713e-02
    13   -3.591513589941e-02
    14    6.136879062263e-01
    15   -1.401145560255e-03
    16    8.265400726856e-02
    17   -7.829832591756e-02
    18   -8.633349496107e-03
    19   -1.093558525267e-03
    20    4.877592016951e-04
    21   -1.116704687396e-04
    22    9.220186261058e-04
    23    1.141162094936e-03
    24   -2.093607228298e-02
    25    1.214591739721e-05
    26    5.189106812578e-04
    27   -5.297992143636e-04
    28    3.196544409762e-02
    29    3.995652692941e-02
    30   -6.700114629032e-01
    31   -2.984025290400e-02
    32   -3.613357076802e-02
    33    6.131867978820e-01
    34    1.125015044086e-03
    35   -8.278932714325e-02
    36    7.851828800586e-02
    37    8.548203579273e-03
    38    1.192771670381e-03
    39    1.756509288786e-04
    40   -6.576577920566e-04
    41    1.034517238357e-03
    42    1.411153956839e-03
    43   -2.126202907566e-02
    44    1.191543373902e-04
    45   -3.915532505696e-04
    46    8.820821655853e-04
    47    1.267572776762e-03
    48   -2.105618303235e-02
Sym=X
Ene= 0.709246
Spin=Alpha
Occup=0
     1   -4.772036680524e-01
     2    1.602276943163e-01
     3   -8.066910203513e-02
     4   -4.454150753923e-02
     5   -6.495890212086e-03
     6   -4.820891310746e-02
     7   -3.193996648768e-01
     8    5.266022883837e-01
     9    2.021443974621e-01
    10   -1.915596906197e-01
    11   -2.318729722680e-03
    12   -1.032428952161e-01
    13    8.770728635603e-02
    14    5.340333688050e-04
    15    1.944993598336e-01
    16   -2.051352495735e-02
    17   -2.403150424873e-02
    18    3.660691123316e-03
    19   -7.800230051525e-02
    20   -4.816403535592e-01
    21    1.547548260054e-01
    22    4.110031207664e-02
    23    8.218023004600e-02
    24    6.776416699526e-03
    25   -4.633820451218e-02
    26   -3.217703231134e-01
    27    4.537785750974e-01
    28   -2.036810738668e-01
    29    1.904807342607e-01
    30    1.168874251988e-03
    31    5.152027252002e-02
    32   -4.014665499840e-02
    33    1.039965086522e-03
    34    1.934298094196e-01
    35   -2.040670867005e-02
    36   -2.382715704749e-02
    37    2.321330764259e-03
    38   -7.508601895148e-02
    39   -4.700643974364e-01
    40    1.283748137765e-01
    41   -4.056364931070e-02
    42   -8.078675120894e-02
    43   -6.750887256209e-03
    44   -4.749456705505e-01
    45    1.411792751854e-01
    46    8.024017641165e-02
    47    4.416418428828e-02
    48    6.451123261630e-03
Sym=X
Ene= 0.784590
Spin=Alpha
Occup=0
     1    5.258208594521e-01
     2   -4.680444197995e-01
     3    1.105319200375e-01
     4    2.566027198363e-02
     5    6.758658945546e-03
     6    9.074550763313e-02
     7   -2.171516604283e-01
     8   -6.276258312518e-01
     9    1.103879558371e-01
    10   -1.072739954272e-01
    11   -2.112789513911e-04
    12    3.119864367197e-01
    13   -2.863448374964e-01
    14   -3.890457037768e-03
    15   -2.058728938214e-01
    16    1.748064236868e-02
    17    2.157531700728e-02
    18   -2.410438209635e-04
    19    8.475576910816e-03
    20    5.330222711907e-01
    21   -4.640309174230e-01
    22   -2.012186830909e-02
    23   -1.116553821823e-01
    24   -7.540298270926e-03
    25   -9.153210142037e-02
    26    2.112053983523e-01
    27    6.527153836709e-01
    28    1.117827842640e-01
    29   -1.061989993227e-01
    30   -1.775365590695e-03
    31    2.999681816424e-01
    32   -2.782876786205e-01
    33   -6.241801573267e-04
    34    2.085618196856e-01
    35   -1.756271307998e-02
    36   -2.237146059547e-02
    37    1.727250289579e-03
    38   -8.076847346051e-03
    39   -5.425438811059e-01
    40    4.607158161138e-01
    41   -2.039290153908e-02
    42   -1.129631831527e-01
    43   -7.741825901339e-03
    44   -5.345597126430e-01
    45    4.614910936815e-01
    46    1.101713187105e-01
    47    2.712103431899e-02
    48    6.848706063859e-03
Sym=X
Ene= 0.807959
Spin=Alpha
Occup=0
     1    5.399396107627e-04
     2   -9.784854441533e-04
     3    1.793748001959e-03
     4    2.023327555759e-03
     5   -3.379814720359e-02
     6    1.084975325441e-04
     7   -3.670941846268e-04
     8   -8.120466617408e-05
     9    3.627949239879e-02
    10    4.479417392928e-02
    11   -7.629526559372e-01
    12   -5.293948748970e-02
    13   -6.668394648367e-02
    14    1.126943867663e+00
    15    6.984126607163e-04
    16   -6.522043002790e-02
    17    6.185714480586e-02
    18    6.876777120449e-03
    19    8.581554408668e-04
    20    5.310856244885e-04
    21   -2.221628783085e-04
    22    1.682024186714e-03
    23    1.934493101811e-03
    24   -3.448085847815e-02
    25   -9.468784472874e-05
    26    5.731213543060e-05
    27    2.658071696640e-04
    28   -3.612147304618e-02
    29   -4.596753063306e-02
    30    7.632772366155e-01
    31    5.404558460162e-02
    32    6.730686665451e-02
    33   -1.127053501271e+00
    34    1.317219395575e-03
    35   -6.521529851438e-02
    36    6.180232772060e-02
    37    6.670360298574e-03
    38    9.814330304904e-04
    39   -5.331463223431e-04
    40    3.022817418452e-04
    41   -1.546972120190e-03
    42   -2.224079545313e-03
    43    3.417328376519e-02
    44   -5.354080840553e-04
    45    1.052637365657e-03
    46   -1.337335191336e-03
    47   -2.019227381011e-03
    48    3.378346247072e-02
Sym=X
Ene= 0.862273
Spin=Alpha
Occup=0
     1    1.442759408215e-02
     2   -1.097692690748e+00
     3    1.484593184804e-01
     4    5.636814771572e-02
     5    1.035735253460e-02
     6    1.023791775555e-04
     7    1.247126600799e-03
     8    1.840316517779e-04
     9   -4.077737601908e-01
    10   -4.285184076940e-01
    11   -4.441409956812e-02
    12    9.492876111788e-01
    13    9.965711622228e-01
    14    1.033747700246e-01
    15   -5.875642101219e-04
    16    1.176366056153e-02
    17   -1.351962002275e-02
    18    2.354753207589e-01
    19    9.864378377146e-03
    20   -1.510447275046e-02
    21    1.103906757992e+00
    22    5.024904218987e-02
    23    1.516340419941e-01
    24    1.137878980501e-02
    25    1.373402429009e-04
    26    2.718175802893e-03
    27   -2.210320477386e-03
    28   -4.063303421190e-01
    29   -4.287846573941e-01
    30   -4.518995432620e-02
    31    9.451156583190e-01
    32    1.001912549350e+00
    33    1.053430453578e-01
    34   -3.923274625668e-04
    35   -1.181299433798e-02
    36    1.368228581765e-02
    37   -2.370279047420e-01
    38   -1.139105103301e-02
    39    1.214283812871e-02
    40   -1.101305804137e+00
    41    4.787451675684e-02
    42    1.517428428960e-01
    43    1.140418116875e-02
    44   -1.050361408802e-02
    45    1.094948033024e+00
    46    1.486854931876e-01
    47    5.541267908057e-02
    48    1.029957885510e-02
Sym=X
Ene= 0.936007
Spin=Alpha
Occup=0
     1   -1.130971477484e-01
     2    1.273125632835e+00
     3   -1.809244638775e-01
     4    5.798706565403e-03
     5   -8.273032552889e-03
     6   -1.141113048345e-04
     7   -2.037788658579e-03
     8   -5.722041638158e-03
     9    4.702338184822e-01
    10    5.012996983475e-01
    11    5.198228500694e-02
    12   -1.455981342284e+00
    13   -1.546212795347e+00
    14   -1.606319316179e-01
    15   -7.459291920609e-04
    16   -5.777718623140e-03
    17    7.011074725889e-03
    18   -1.205342540483e-01
    19   -9.441320920920e-04
    20    1.176144570928e-01
    21   -1.289362950936e+00
    22    1.127334495549e-02
    23   -1.832177467908e-01
    24   -1.024262332566e-02
    25    2.254599372910e-04
    26    2.598507648928e-03
    27    1.255952677159e-03
    28   -4.773659721834e-01
    29   -4.950925350355e-01
    30   -5.221926360411e-02
    31    1.475282834638e+00
    32    1.524296190160e+00
    33    1.610078941884e-01
    34   -7.298621266122e-04
    35   -6.122646039602e-03
    36    7.108317768009e-03
    37   -1.215635169055e-01
    38   -7.741809299807e-03
    39    1.164027576176e-01
    40   -1.276039164362e+00
    41   -1.503585863508e-02
    42    1.813218721027e-01
    43    1.015167830456e-02
    44   -1.167087919142e-01
    45    1.293638569472e+00
    46    1.830659729795e-01
    47   -4.869336010544e-03
    48    8.393748271570e-03
Sym=X
Ene= 0.972634
Spin=Alpha
Occup=0
     1   -6.398117010983e-02
     2    9.389236407399e-01
     3   -9.279520223594e-02
     4   -9.886636188476e-02
     5   -1.028684589024e-02
     6    2.530385765010e-02
     7    2.606266497729e-01
     8    5.047986099327e-01
     9    4.844523315775e-01
    10   -4.519956136070e-01
    11   -3.645925008973e-03
    12   -1.508746863439e+00
    13    1.396821097664e+00
    14    1.073553799575e-02
    15   -5.359273616585e-02
    16   -1.293424724683e-02
    17   -9.722296792696e-03
    18    1.326872545151e-02
    19   -3.020088289725e-01
    20   -6.380443795809e-02
    21    9.062206541013e-01
    22    9.560374314510e-02
    23    9.301246054127e-02
    24    1.004077400784e-02
    25   -2.498465824826e-02
    26   -2.325715056858e-01
    27   -5.514104955438e-01
    28    4.740296261731e-01
    29   -4.574545315010e-01
    30   -5.100227073493e-03
    31   -1.470748715768e+00
    32    1.429523654763e+00
    33    1.623376367162e-02
    34    5.182102310170e-02
    35    1.265158309158e-02
    36    9.872642148672e-03
    37   -1.576534774550e-02
    38    2.976263468947e-01
    39    6.261598573806e-02
    40   -9.193247166969e-01
    41    9.358423301208e-02
    42    9.443136532051e-02
    43    1.017366843017e-02
    44    6.649681974232e-02
    45   -8.967162721577e-01
    46   -8.719053083816e-02
    47   -9.781263240289e-02
    48   -9.852742706921e-03
[5D]

======= END OF MOLDEN-FORMATTED INPUT FILE =======


        *************************************************************
        *                                                           *
        *  Thank you very much for using Q-Chem.  Have a nice day.  *
        *                                                           *
        *************************************************************


