                  Welcome to Q-Chem
     A Quantum Leap Into The Future Of Chemistry


 Q-Chem 5.4 (devel), Q-Chem, Inc., Pleasanton, CA (2021)

 E. Epifanovsky,  A. T. B. Gilbert,  Xintian Feng,  Joonho Lee,  Yuezhi Mao,  
 N. Mardirossian,  P. Pokhilko,  A. White,  M. Wormit,  M. P. Coons,  
 A. L. Dempwolff,  Zhengting Gan,  D. Hait,  P. R. Horn,  L. D. Jacobson,  
 I. Kaliman,  J. Kussmann,  A. W. Lange,  Ka Un Lao,  D. S. Levine,  Jie Liu,  
 S. C. McKenzie,  A. F. Morrison,  K. Nanda,  F. Plasser,  D. R. Rehn,  
 M. L. Vidal,  Zhi-Qiang You,  Ying Zhu,  B. Alam,  B. Albrecht,  
 A. Aldossary,  E. Alguire,  J. H. Andersen,  D. Barton,  K. Begam,  A. Behn,  
 Y. A. Bernard,  E. J. Berquist,  H. Burton,  A. Carreras,  K. Carter-Fenk,  
 R. Chakraborty,  A. D. Chien,  K. D. Closser,  V. Cofer-Shabica,  
 S. Dasgupta,  Jia Deng,  M. de Wergifosse,  M. Diedenhofen,  Hainam Do,  
 S. Ehlert,  Po-Tung Fang,  S. Fatehi,  Qingguo Feng,  T. Friedhoff,  
 J. Gayvert,  Qinghui Ge,  G. Gidofalvi,  M. Goldey,  J. Gomes,  
 C. Gonzalez-Espinoza,  S. Gulania,  A. Gunina,  M. W. D. Hanson-Heine,  
 P. H. P. Harbach,  A. W. Hauser,  M. F. Herbst,  M. Hernandez Vera,  
 M. Hodecker,  Z. C. Holden,  S. Houck,  Xunkun Huang,  Kerwin Hui,  
 B. C. Huynh,  M. Ivanov,  Hyunjun Ji,  Hanjie Jiang,  B. Kaduk,  S. Kaehler,  
 K. Khistyaev,  Jaehoon Kim,  P. Klunzinger,  Z. Koczor-Benda,  
 Joong Hoon Koh,  D. Kosenkov,  L. Koulias,  T. Kowalczyk,  C. M. Krauter,  
 K. Kue,  A. Kunitsa,  T. Kus,  A. Landau,  K. V. Lawler,  D. Lefrancois,  
 S. Lehtola,  Rain Li,  Yi-Pei Li,  Jiashu Liang,  M. Liebenthal,  
 Hung-Hsuan Lin,  You-Sheng Lin,  Fenglai Liu,  Kuan-Yu Liu,  
 M. Loipersberger,  A. Luenser,  A. Manjanath,  P. Manohar,  E. Mansoor,  
 S. F. Manzer,  Shan-Ping Mao,  A. V. Marenich,  T. Markovich,  S. Mason,  
 S. A. Maurer,  P. F. McLaughlin,  M. F. S. J. Menger,  J.-M. Mewes,  
 S. A. Mewes,  P. Morgante,  J. W. Mullinax,  K. J. Oosterbaan,  G. Paran,  
 Alexander C. Paul,  Suranjan K. Paul,  F. Pavosevic,  Zheng Pei,  S. Prager,  
 E. I. Proynov,  E. Ramos,  B. Rana,  A. E. Rask,  A. Rettig,  R. M. Richard,  
 F. Rob,  E. Rossomme,  T. Scheele,  M. Scheurer,  M. Schneider,  
 N. Sergueev,  S. M. Sharada,  W. Skomorowski,  D. W. Small,  C. J. Stein,  
 Yu-Chuan Su,  E. J. Sundstrom,  Zhen Tao,  J. Thirman,  T. Tsuchimochi,  
 N. M. Tubman,  S. P. Veccham,  O. Vydrov,  J. Wenzel,  J. Witte,  A. Yamada,  
 Kun Yao,  S. Yeganeh,  S. R. Yost,  A. Zech,  Igor Ying Zhang,  Xing Zhang,  
 Yu Zhang,  D. Zuev,  A. Aspuru-Guzik,  A. T. Bell,  N. A. Besley,  
 K. B. Bravaya,  B. R. Brooks,  D. Casanova,  Jeng-Da Chai,  S. Coriani,  
 C. J. Cramer,  A. E. DePrince, III,  R. A. DiStasio Jr.,  A. Dreuw,  
 B. D. Dunietz,  T. R. Furlani,  W. A. Goddard III,  S. Grimme,  
 S. Hammes-Schiffer,  T. Head-Gordon,  W. J. Hehre,  Chao-Ping Hsu,  
 T.-C. Jagau,  Yousung Jung,  A. Klamt,  Jing Kong,  D. S. Lambrecht,  
 WanZhen Liang,  N. J. Mayhall,  C. W. McCurdy,  J. B. Neaton,  
 C. Ochsenfeld,  J. A. Parkhill,  R. Peverati,  V. A. Rassolov,  Yihan Shao,  
 L. V. Slipchenko,  T. Stauch,  R. P. Steele,  J. E. Subotnik,  
 A. J. W. Thom,  A. Tkatchenko,  D. G. Truhlar,  T. Van Voorhis,  
 T. A. Wesolowski,  K. B. Whaley,  H. L. Woodcock III,  P. M. Zimmerman,  
 S. Faraji,  P. M. W. Gill,  M. Head-Gordon,  J. M. Herbert,  A. I. Krylov

 Additional authors for Version 5.4.1: 
 S. Kotaru,  Shaozhi Li,  Xiangyuan Li,  F. Matz,  A. Molle,  Haisheng Ren,  
 Yingli Su,  Hung-Yi Tsai,  C. Utku,  Fang Wang

 Contributors to earlier versions of Q-Chem not listed above: 
 R. D. Adamson,  B. Austin,  R. Baer,  J. Baker,  G. J. O. Beran,  
 K. Brandhorst,  S. T. Brown,  E. F. C. Byrd,  A. K. Chakraborty,  
 G. K. L. Chan,  Chun-Min Chang,  Yunqing Chen,  C.-L. Cheng,  
 Siu Hung Chien,  D. M. Chipman,  D. L. Crittenden,  H. Dachsel,  
 R. J. Doerksen,  A. D. Dutoi,  R. G. Edgar,  J. Fosso-Tande,  
 L. Fusti-Molnar,  D. Ghosh,  A. Ghysels,  A. Golubeva-Zadorozhnaya,  
 J. Gonthier,  M. S. Gordon,  S. R. Gwaltney,  G. Hawkins,  J. E. Herr,  
 A. Heyden,  S. Hirata,  E. G. Hohenstein,  G. Kedziora,  F. J. Keil,  
 C. Kelley,  Jihan Kim,  R. A. King,  R. Z. Khaliullin,  P. P. Korambath,  
 W. Kurlancheek,  A. Laurent,  A. M. Lee,  M. S. Lee,  S. V. Levchenko,  
 Ching Yeh Lin,  D. Liotard,  E. Livshits,  R. C. Lochan,  I. Lotan,  
 L. A. Martinez-Martinez,  P. E. Maslen,  N. Nair,  D. P. O'Neill,  
 D. Neuhauser,  E. Neuscamman,  C. M. Oana,  R. Olivares-Amaya,  R. Olson,  
 T. M. Perrine,  B. Peters,  P. A. Pieniazek,  A. Prociuk,  Y. M. Rhee,  
 J. Ritchie,  M. A. Rohrdanz,  E. Rosta,  N. J. Russ,  H. F. Schaefer III,  
 M. W. Schmidt,  N. E. Schultz,  S. Sharma,  N. Shenvi,  C. D. Sherrill,  
 A. C. Simmonett,  A. Sodt,  T. Stein,  D. Stuck,  K. S. Thanthiriwatte,  
 V. Vanovschi,  L. Vogt,  Tao Wang,  A. Warshel,  M. A. Watson,  
 C. F. Williams,  Q. Wu,  X. Xu,  Jun Yang,  W. Zhang,  Yan Zhao

 Please cite Q-Chem as follows:
 Y. Shao et al., Mol. Phys. 113, 184-215 (2015)
 DOI: 10.1080/00268976.2014.952696

 Q-Chem 5.4.1 for Intel X86 EM64T Linux

 Parts of Q-Chem use Armadillo 9.800.1 (Horizon Scraper).
 http://arma.sourceforge.net/

 Q-Chem begins on Tue Nov 15 20:57:12 2022  

 Host: cpu197.baobab
0

     Scratch files written to /scratch/fum/qchem17324//
 Processing $rem in /home/share/wesolowski/qc5.aug2021.FDE/config/preferences:
 Processing $rem in /home/fum/.qchemrc:

 Checking the input file for inconsistencies... 	...done.

--------------------------------------------------------------
User input:
--------------------------------------------------------------
$comment
generated from CCJob.Templates
$end

$rem
sym_ignore = true
method = adc(2)
ee_states = 10
basis = cc-pVDZ
mem_static = 1024
mem_total = 40000
adc_davidson_maxiter = 900
adc_davidson_conv = 6
adc_print = 3
adc_prop_es = true
adc_prop_es2es = true
adc_prop_tpa = true
molden_format = True
state_analysis = true
print_orbitals = 15
gen_scfman = false
fde_export_density = true
$end

$molecule
0 1
H -0.0298278765   -0.2392097827   0.0686489606
C -1.0715972949   -0.5192748755   0.0026448224
H -1.3082644670   -1.5717591607   -0.0707276926
C -2.0386341180   0.3976884087    0.0111254933
H -1.8087616575   1.4509188338    0.0854456828
H -3.0809772930   0.1199318580    -0.0543381042
$end
--------------------------------------------------------------
 ----------------------------------------------------------------
             Standard Nuclear Orientation (Angstroms)
    I     Atom           X                Y                Z
 ----------------------------------------------------------------
    1      H      -0.0298278765    -0.2392097827     0.0686489606
    2      C      -1.0715972949    -0.5192748755     0.0026448224
    3      H      -1.3082644670    -1.5717591607    -0.0707276926
    4      C      -2.0386341180     0.3976884087     0.0111254933
    5      H      -1.8087616575     1.4509188338     0.0854456828
    6      H      -3.0809772930     0.1199318580    -0.0543381042
 ----------------------------------------------------------------
 Nuclear Repulsion Energy =          33.42365112 hartrees
 There are        8 alpha and        8 beta electrons
 Requested basis set is cc-pVDZ
 There are 24 shells and 48 basis functions
 Total memory of 40000 MB is distributed as follows: 
   MEM_STATIC is set to 1024 MB
   QALLOC/CCMAN JOB total memory use is  38976 MB
 Warning: actual memory use might exceed 40000 MB

 Total QAlloc Memory Limit  40000 MB
 Mega-Array Size      1001 MB
 MEM_STATIC part      1024 MB

                       Distance Matrix (Angstroms)
             H (  1)   C (  2)   H (  3)   C (  4)   H (  5)
   C (  2)  1.080776
   H (  3)  1.851895  1.081258
   C (  4)  2.108139  1.332687  2.102109
   H (  5)  2.453859  2.105215  3.067812  1.080583
   H (  6)  3.074674  2.109370  2.450428  1.080700  1.846510

 A cutoff of  1.0D-11 yielded    300 shell pairs
 There are      1220 function pairs (      1329 Cartesian)
 Smallest overlap matrix eigenvalue = 4.80E-03

 Scale SEOQF with 1.000000e-01/1.000000e-01/1.000000e+00

 Standard Electronic Orientation quadrupole field applied
 Nucleus-field energy     =     0.0000000021 hartrees
 Guess from superposition of atomic densities
 Warning:  Energy on first SCF cycle will be non-variational
 SAD guess density has 16.000000 electrons
 A restricted Hartree-Fock SCF calculation will be
 performed using Pulay DIIS extrapolation
 SCF converges when DIIS error is below 1.0E-08
 using 10 threads for integral computing
 -------------------------------------------------------
 OpenMP Integral computing Module                
 Release: version 1.0, May 2013, Q-Chem Inc. Pittsburgh 
 -------------------------------------------------------
 ---------------------------------------
  Cycle       Energy         DIIS Error
 ---------------------------------------
    1     -78.4388294344      1.01E-01
    2     -78.0176886269      7.21E-03
    3     -78.0383208038      1.84E-03
    4     -78.0398037409      5.73E-04
    5     -78.0399253712      5.79E-05
    6     -78.0399272468      9.33E-06
    7     -78.0399273075      2.25E-06
    8     -78.0399273103      9.13E-07
    9     -78.0399273106      9.13E-08
   10     -78.0399273106      1.04E-08
   11     -78.0399273106      2.33E-09 Convergence criterion met
 ---------------------------------------
 SCF time:  CPU 2.03 s  wall 2.24 s
 SCF   energy in the final basis set = -78.03992731
 Total energy in the final basis set = -78.03992731
Exporting Density Matrix to file 'Densmat_SCF.txt'.
Export successful
================================================================================
|                                                                              |
|                                 A D C  M A N                                 |
|                                                                              |
 ------------------------------------------------------------------------------ 
|                                                                              |
| Components:                                                                  |
|                                                                              |
| - libvmm - 1.3-trunk                                                         |
|   Authors:                                                                   |
|   Evgeny Epifanovsky, Ilya Kaliman                                           |
|                                                                              |
| - libtensor - 2.5-trunk                                                      |
|   Authors:                                                                   |
|   Evgeny Epifanovsky, Michael Wormit, Dmitry Zuev, Sam Manzer,               |
|   Ilya Kaliman                                                               |
|                                                                              |
| - libwfa - 1.1-trunk                                                         |
|   Authors:                                                                   |
|   Felix Plasser, Stefanie Mewes (Baeppler), Benjamin Thomitzni,              |
|   Michael Wormit, Feng Chen, Anna I. Krylov, Pavel Pokhilko                  |
|                                                                              |
| - libadc - 1.1-trunk                                                         |
|   Authors:                                                                   |
|   Michael Wormit, Adrian L. Dempwolff, Philipp H. P. Harbach,                |
|   Caroline Krauter, Dirk Rehn, Matthias Schneider, Jan Wenzel                |
|                                                                              |
| - adcman - 2.6-trunk                                                         |
|   Authors:                                                                   |
|   Michael Wormit, Adrian L. Dempwolff, Philipp H. P. Harbach,                |
|   Caroline Krauter, Daniel Lefrancois, Jan-Michael Mewes, Dirk Rehn,         |
|   Matthias Schneider, Jan Wenzel, Andreas Dreuw                              |
|                                                                              |
| Authors of earlier versions of ADCMAN:                                       |
| Andreas Dreuw, Jan Hendrik Starcke, Dirk Rehn, Michael Wormit                |
|                                                                              |
================================================================================

 Created directory /scratch/fum/qchem17324/plots
  Import QC data ...  CPU 0.00 s  wall 0.01 s

 Alpha MOs, Restricted
 -- Occupied --                  
-11.235 -11.233  -1.032  -0.790  -0.641  -0.582  -0.505  -0.374
  1 A     2 A     3 A     4 A     5 A     6 A     7 A     8 A                  
 -- Virtual --                   
  0.168   0.204   0.233   0.239   0.303   0.462   0.578   0.615
  9 A    10 A    11 A    12 A    13 A    14 A    15 A    16 A                  
  0.689   0.709   0.785   0.808   0.862   0.936   0.972   1.010
 17 A    18 A    19 A    20 A    21 A    22 A    23 A    24 A                  
  1.130   1.235   1.254   1.266   1.293   1.601   1.727   1.750
 25 A    26 A    27 A    28 A    29 A    30 A    31 A    32 A                  
  1.819   1.859   1.867   1.922   1.977   1.978   2.221   2.258
 33 A    34 A    35 A    36 A    37 A    38 A    39 A    40 A                  
  2.376   2.454   2.506   2.634   2.721   2.822   3.140   3.399
 41 A    42 A    43 A    44 A    45 A    46 A    47 A    48 A                  

 Beta MOs, Restricted
 -- Occupied --                  
-11.235 -11.233  -1.032  -0.790  -0.641  -0.582  -0.505  -0.374
  1 A     2 A     3 A     4 A     5 A     6 A     7 A     8 A                  
 -- Virtual --                   
  0.168   0.204   0.233   0.239   0.303   0.462   0.578   0.615
  9 A    10 A    11 A    12 A    13 A    14 A    15 A    16 A                  
  0.689   0.709   0.785   0.808   0.862   0.936   0.972   1.010
 17 A    18 A    19 A    20 A    21 A    22 A    23 A    24 A                  
  1.130   1.235   1.254   1.266   1.293   1.601   1.727   1.750
 25 A    26 A    27 A    28 A    29 A    30 A    31 A    32 A                  
  1.819   1.859   1.867   1.922   1.977   1.978   2.221   2.258
 33 A    34 A    35 A    36 A    37 A    38 A    39 A    40 A                  
  2.376   2.454   2.506   2.634   2.721   2.822   3.140   3.399
 41 A    42 A    43 A    44 A    45 A    46 A    47 A    48 A                  
  Import AO data ...  CPU 0.00 s  wall 0.32 s
  Using point group: C1
  Irreducible representations in point group: A
  Molecular orbitals: 
  Occupied MOs:
  Block   0:   1 (  A) A   2 (  A) A   3 (  A) A   4 (  A) A   5 (  A) A
                  -11.24      -11.23      -1.032     -0.7898     -0.6411
               6 (  A) A   7 (  A) A   8 (  A) A
                 -0.5819     -0.5046      -0.374
  Block   1:   1 (  A) B   2 (  A) B   3 (  A) B   4 (  A) B   5 (  A) B
                  -11.24      -11.23      -1.032     -0.7898     -0.6411
               6 (  A) B   7 (  A) B   8 (  A) B
                 -0.5819     -0.5046      -0.374
  Virtual MOs:
  Block   0:   9 (  A) A  10 (  A) A  11 (  A) A  12 (  A) A  13 (  A) A
                  0.1684      0.2037       0.233      0.2394      0.3033
              14 (  A) A  15 (  A) A  16 (  A) A  17 (  A) A  18 (  A) A
                   0.462      0.5775      0.6152      0.6892      0.7089
              19 (  A) A  20 (  A) A  21 (  A) A  22 (  A) A
                  0.7845       0.808      0.8623      0.9359
  Block   1:  23 (  A) A  24 (  A) A  25 (  A) A  26 (  A) A  27 (  A) A
                  0.9725        1.01        1.13       1.235       1.254
              28 (  A) A  29 (  A) A  30 (  A) A  31 (  A) A  32 (  A) A
                   1.266       1.293       1.601       1.727        1.75
              33 (  A) A  34 (  A) A  35 (  A) A  36 (  A) A
                   1.819       1.859       1.867       1.922
  Block   2:  37 (  A) A  38 (  A) A  39 (  A) A  40 (  A) A  41 (  A) A
                   1.977       1.978       2.221       2.258       2.376
              42 (  A) A  43 (  A) A  44 (  A) A  45 (  A) A  46 (  A) A
                   2.454       2.506       2.634       2.721       2.822
              47 (  A) A  48 (  A) A
                    3.14       3.399
  Block   3:   9 (  A) B  10 (  A) B  11 (  A) B  12 (  A) B  13 (  A) B
                  0.1684      0.2037       0.233      0.2394      0.3033
              14 (  A) B  15 (  A) B  16 (  A) B  17 (  A) B  18 (  A) B
                   0.462      0.5775      0.6152      0.6892      0.7089
              19 (  A) B  20 (  A) B  21 (  A) B  22 (  A) B
                  0.7845       0.808      0.8623      0.9359
  Block   4:  23 (  A) B  24 (  A) B  25 (  A) B  26 (  A) B  27 (  A) B
                  0.9725        1.01        1.13       1.235       1.254
              28 (  A) B  29 (  A) B  30 (  A) B  31 (  A) B  32 (  A) B
                   1.266       1.293       1.601       1.727        1.75
              33 (  A) B  34 (  A) B  35 (  A) B  36 (  A) B
                   1.819       1.859       1.867       1.922
  Block   5:  37 (  A) B  38 (  A) B  39 (  A) B  40 (  A) B  41 (  A) B
                   1.977       1.978       2.221       2.258       2.376
              42 (  A) B  43 (  A) B  44 (  A) B  45 (  A) B  46 (  A) B
                   2.454       2.506       2.634       2.721       2.822
              47 (  A) B  48 (  A) B
                    3.14       3.399
  Import MO data ...  CPU 0.01 s  wall 0.65 s
  Import HF data ...  CPU 0.09 s  wall 0.19 s
  Import 2e integrals ...  CPU 1.80 s  wall 0.46 s

--------------------------------------------------------------------------------
                                   HF Summary                                   
--------------------------------------------------------------------------------
  Energy:                                                  -78.0399273106 a.u.
  Dip. moment [a.u.]:                  [  -0.000711,    0.000675,    0.000462]
  Total dipole [Debye]:                                               0.002755
  <r^2> [a.u.]:                        [ 174.429834,   34.882717,   11.628517]
  Total <r^2> [a.u.]:                                               220.941068
--------------------------------------------------------------------------------
  HF properties ...  CPU 0.01 s  wall 0.06 s
  MP(1) calculation ...  CPU 0.01 s  wall 0.10 s
  N^6 prerequesite intermediates ...  CPU 0.51 s  wall 0.24 s
Exporting MP density matrix to file 'Densmat_MP.txt'.
Export successful
Exporting MP density matrix to file 'Densmat_MP.txt'.
Export successful

--------------------------------------------------------------------------------
                                 MP(2) Summary                                  
--------------------------------------------------------------------------------
  MP energy contribution:                                   -0.2797043212 a.u.
  Total energy:                                            -78.3196316318 a.u.
  Dip. moment [a.u.]:                  [  -0.000697,    0.000572,    0.000450]
  Total dipole [Debye]:                                               0.002563
  <r^2> [a.u.]:                        [ 174.476548,   34.923310,   11.460357]
  Total <r^2> [a.u.]:                                               220.860215

  Density matrix analysis:
  ------------------------
  NOs
    Occupation of frontier NOs:
       0.0453   1.9383
    Number of electrons: 16.000000
    Number of unpaired electrons: n_u =  0.40342, n_u,nl =  0.04508
    NO participation ratio (PR_NO): 13.857556
  
  
  Mulliken Population Analysis
  Atom      Charge (e)              h+              e-           Del q
  --------------------------------------------------------------------
   1 H        0.050950        0.014031       -0.011202        0.002829
   2 C       -0.100753        0.093224       -0.098846       -0.005622
   3 H        0.050543        0.014074       -0.011191        0.002883
   4 C       -0.101425        0.092981       -0.098899       -0.005919
   5 H        0.050130        0.014122       -0.011184        0.002937
   6 H        0.050555        0.014083       -0.011192        0.002891
  --------------------------------------------------------------------
  Sum:        0.000000        0.242514       -0.242514        0.000000
  
  Multipole moment analysis of the density matrix
    Molecular charge:                      -0.000000
    Number of electrons:                   16.000000
      Center of electronic charge [Ang]: [ -1.555553,  -0.060621,   0.006963]
    Total nuclear charge:                  16.000000
      Center of nuclear charge [Ang]:    [ -1.555576,  -0.060602,   0.006978]
    Dipole moment [D]:                     0.002563
      Cartesian components [D]:          [ -0.001773,   0.001454,   0.001145]
    RMS size of the density [Ang]:         1.200824
      Cartesian components [Ang]:        [  0.796181,   0.779452,   0.447804]
  
  Exciton analysis of the difference density matrix
    <r_h> [Ang]:                  [ -1.555417,  -0.060883,   0.006881]
    <r_e> [Ang]:                  [ -1.555447,  -0.060658,   0.006906]
    |<r_e - r_h>| [Ang]:            0.000228
    Hole size [Ang]:                1.393698
      Cartesian components [Ang]: [  0.846654,   0.834148,   0.727851]
    Electron size [Ang]:            1.359767
      Cartesian components [Ang]: [  0.877878,   0.861802,   0.579306]
--------------------------------------------------------------------------------
  MP(2) calculation ...  CPU 0.25 s  wall 0.24 s
  Start ADC(2)-s ...  CPU 0.01 s  wall 0.03 s
  ADC(2) intermediates ...  CPU 0.02 s  wall 0.01 s
  Starting Davidson for singlet states of irrep A ... 
--------------------------------------------------------------------------------
   It NVec Conv  Avg. Norm  Max. Norm  Conv. states           Remark
--------------------------------------------------------------------------------
        10    0  1.330e-01  4.687e-01  0.4119 n n n n n n n n Guess.
    1   20    0  2.303e-02  1.109e-01  0.3263 n n n n n n n n 
    2   30    0  5.845e-03  2.549e-02  0.3215 n n n n n n n n 
    3   40    0  2.000e-03  1.368e-02  0.3211 n n n n n n n n 
    4   50    0  6.252e-04  4.698e-03  0.3211 n n n n n n n n 
    5   20    0  2.736e-04  2.019e-03  0.3211 n n n n n n n n Subspace collapsed.
    6   30    0  1.751e-04  1.557e-03  0.3211 n n n n n n n n 
    7   40    0  9.997e-05  7.378e-04  0.3211 n n n n n n n n 
    8   50    0  9.972e-05  9.434e-04  0.3211 n n n n n n n n 
    9   20    2  6.929e-05  6.656e-04  0.3211 n y n y n n n n Subspace collapsed.
   10   30    4  9.310e-05  9.132e-04  0.3211 n y y y y n n n 
   11   40    5  9.060e-05  9.026e-04  0.3211 n y y y y y n n 
   12   50    6  7.913e-05  7.907e-04  0.3211 y y y y y y n n 
   13   20    6  4.050e-05  4.047e-04  0.3211 y y y y y y n n Subspace collapsed.
   14   30    6  2.963e-05  2.959e-04  0.3211 y y y y y y n n 
   15   40    6  1.649e-05  1.646e-04  0.3211 y y y y y y n n 
   16   50    6  1.958e-05  1.958e-04  0.3211 y y y y y y n n 
   17   20    7  1.050e-05  1.050e-04  0.3211 y y y y y y n y Subspace collapsed.
   18   30    7  1.667e-05  1.667e-04  0.3211 y y y y y y n y 
   19   40    8  1.574e-05  1.574e-04  0.3211 y y y y y y y y 
   20   50    9  1.620e-05  1.620e-04  0.3211 y y y y y y y y 
   21   20    9  6.270e-06  6.270e-05  0.3211 y y y y y y y y Subspace collapsed.
   22   30    9  5.486e-06  5.486e-05  0.3211 y y y y y y y y 
   23   39    9  2.847e-06  2.847e-05  0.3211 y y y y y y y y 
   24   40    9  2.854e-06  2.854e-05  0.3211 y y y y y y y y 
   25   48    9  3.260e-06  3.260e-05  0.3211 y y y y y y y y 
   26   50    9  3.287e-06  3.287e-05  0.3211 y y y y y y y y 
   27   15    9  1.706e-06  1.706e-05  0.3211 y y y y y y y y Subspace collapsed.
   28   20    9  2.982e-06  2.982e-05  0.3211 y y y y y y y y 
   29   24    9  2.678e-06  2.678e-05  0.3211 y y y y y y y y 
   30   28    9  2.876e-06  2.876e-05  0.3211 y y y y y y y y 
   31   32    9  1.539e-06  1.539e-05  0.3211 y y y y y y y y 
   32   36    9  8.507e-07  8.507e-06  0.3211 y y y y y y y y 
   33   40    9  4.378e-07  4.378e-06  0.3211 y y y y y y y y 
   34   44    9  2.568e-07  2.568e-06  0.3211 y y y y y y y y 
   35   44    9  2.568e-07  2.568e-06  0.3211 y y y y y y y y 
   36   50    9  2.557e-07  2.557e-06  0.3211 y y y y y y y y 
   37   14    9  1.104e-07  1.104e-06  0.3211 y y y y y y y y Subspace collapsed.
   38   18    9  1.194e-07  1.194e-06  0.3211 y y y y y y y y 
   39   22   10  5.175e-08  5.175e-07  0.3211 y y y y y y y y Converged.
--------------------------------------------------------------------------------
  Davidson Summary: 
 ------------------------------------------------------------
  State  0: excitation energy =   0.3211 a.u.   (converged)
  State  1: excitation energy =   0.3327 a.u.   (converged)
  State  2: excitation energy =   0.3370 a.u.   (converged)
  State  3: excitation energy =   0.3614 a.u.   (converged)
  State  4: excitation energy =   0.3753 a.u.   (converged)
  State  5: excitation energy =   0.3872 a.u.   (converged)
  State  6: excitation energy =   0.4247 a.u.   (converged)
  State  7: excitation energy =   0.4471 a.u.   (converged)
  State  8: excitation energy =   0.4563 a.u.   (converged)
  State  9: excitation energy =   0.4647 a.u.   (converged)
 ------------------------------------------------------------

  Singlet states of irrep A ...  CPU 169.04 s  wall 58.29 s
  TDMs ...  CPU 1.48 s  wall 0.56 s
  SDMs ...  CPU 4.54 s  wall 1.36 s
  Starting TPA DIIS iterations ... 
------------------------------------ 
   It     Res. Norm  Remark
------------------------------------
                       Guess.
    1     4.406e+00  
    2     5.841e+00  
    3     1.077e+00  
    4     2.567e-01  
    5     6.575e-02  
    6     2.675e-02  
    7     8.239e-03  
    8     1.440e-03  
    9     5.342e-04  
   10     8.996e-05  
   11     2.819e-05  
   12     4.378e-06  
   13     1.415e-06  
   14     4.351e-07  Converged.
   ... Converged in 14 steps (norm: 4.35087e-07)
------------------------------------
  Starting TPA DIIS iterations ... 
------------------------------------ 
   It     Res. Norm  Remark
------------------------------------
                       Guess.
    1     4.184e+00  
    2     5.541e+00  
    3     1.029e+00  
    4     2.555e-01  
    5     6.535e-02  
    6     2.672e-02  
    7     8.116e-03  
    8     1.454e-03  
    9     5.373e-04  
   10     8.987e-05  
   11     2.838e-05  
   12     4.340e-06  
   13     1.424e-06  
   14     4.285e-07  Converged.
   ... Converged in 14 steps (norm: 4.28506e-07)
------------------------------------
  Starting TPA DIIS iterations ... 
------------------------------------ 
   It     Res. Norm  Remark
------------------------------------
                       Guess.
    1     6.879e-01  
    2     4.830e-01  
    3     1.705e-01  
    4     5.999e-02  
    5     1.834e-02  
    6     6.637e-03  
    7     1.037e-03  
    8     4.477e-04  
    9     1.235e-04  
   10     2.999e-05  
   11     4.947e-06  
   12     1.535e-06  
   13     7.827e-07  Converged.
   ... Converged in 13 steps (norm: 7.82655e-07)
------------------------------------
  Starting TPA DIIS iterations ... 
------------------------------------ 
   It     Res. Norm  Remark
------------------------------------
                       Guess.
    1     4.693e+00  
    2     6.357e+00  
    3     1.158e+00  
    4     2.852e-01  
    5     7.408e-02  
    6     3.039e-02  
    7     9.345e-03  
    8     1.630e-03  
    9     6.094e-04  
   10     1.032e-04  
   11     3.267e-05  
   12     5.116e-06  
   13     1.666e-06  
   14     5.131e-07  Converged.
   ... Converged in 14 steps (norm: 5.13079e-07)
------------------------------------
  Starting TPA DIIS iterations ... 
------------------------------------ 
   It     Res. Norm  Remark
------------------------------------
                       Guess.
    1     4.456e+00  
    2     6.030e+00  
    3     1.107e+00  
    4     2.837e-01  
    5     7.364e-02  
    6     3.039e-02  
    7     9.208e-03  
    8     1.648e-03  
    9     6.130e-04  
   10     1.031e-04  
   11     3.286e-05  
   12     5.070e-06  
   13     1.675e-06  
   14     5.054e-07  Converged.
   ... Converged in 14 steps (norm: 5.05365e-07)
------------------------------------
  Starting TPA DIIS iterations ... 
------------------------------------ 
   It     Res. Norm  Remark
------------------------------------
                       Guess.
    1     7.000e-01  
    2     5.004e-01  
    3     1.803e-01  
    4     6.787e-02  
    5     1.976e-02  
    6     7.254e-03  
    7     1.170e-03  
    8     5.278e-04  
    9     1.494e-04  
   10     3.444e-05  
   11     5.591e-06  
   12     1.807e-06  
   13     9.809e-07  Converged.
   ... Converged in 13 steps (norm: 9.80853e-07)
------------------------------------
  Starting TPA DIIS iterations ... 
------------------------------------ 
   It     Res. Norm  Remark
------------------------------------
                       Guess.
    1     4.806e+00  
    2     6.563e+00  
    3     1.190e+00  
    4     2.968e-01  
    5     7.746e-02  
    6     3.188e-02  
    7     9.793e-03  
    8     1.708e-03  
    9     6.401e-04  
   10     1.086e-04  
   11     3.452e-05  
   12     5.421e-06  
   13     1.771e-06  
   14     5.455e-07  Converged.
   ... Converged in 14 steps (norm: 5.45519e-07)
------------------------------------
  Starting TPA DIIS iterations ... 
------------------------------------ 
   It     Res. Norm  Remark
------------------------------------
                       Guess.
    1     4.564e+00  
    2     6.225e+00  
    3     1.137e+00  
    4     2.952e-01  
    5     7.700e-02  
    6     3.188e-02  
    7     9.651e-03  
    8     1.726e-03  
    9     6.439e-04  
   10     1.085e-04  
   11     3.471e-05  
   12     5.371e-06  
   13     1.780e-06  
   14     5.374e-07  Converged.
   ... Converged in 14 steps (norm: 5.37391e-07)
------------------------------------
  Starting TPA DIIS iterations ... 
------------------------------------ 
   It     Res. Norm  Remark
------------------------------------
                       Guess.
    1     7.045e-01  
    2     5.071e-01  
    3     1.842e-01  
    4     7.112e-02  
    5     2.030e-02  
    6     7.504e-03  
    7     1.226e-03  
    8     5.613e-04  
    9     1.602e-04  
   10     3.592e-05  
   11     5.846e-06  
   12     1.922e-06  
   13     1.068e-06  
   14     3.717e-07  Converged.
   ... Converged in 14 steps (norm: 3.71747e-07)
------------------------------------
  Starting TPA DIIS iterations ... 
------------------------------------ 
   It     Res. Norm  Remark
------------------------------------
                       Guess.
    1     5.546e+00  
    2     7.943e+00  
    3     1.398e+00  
    4     3.769e-01  
    5     1.008e-01  
    6     4.225e-02  
    7     1.290e-02  
    8     2.240e-03  
    9     8.541e-04  
   10     1.464e-04  
   11     4.767e-05  
   12     7.598e-06  
   13     2.537e-06  
   14     7.822e-07  Converged.
   ... Converged in 14 steps (norm: 7.8223e-07)
------------------------------------
  Starting TPA DIIS iterations ... 
------------------------------------ 
   It     Res. Norm  Remark
------------------------------------
                       Guess.
    1     5.264e+00  
    2     7.533e+00  
    3     1.334e+00  
    4     3.741e-01  
    5     1.003e-01  
    6     4.233e-02  
    7     1.272e-02  
    8     2.268e-03  
    9     8.592e-04  
   10     1.463e-04  
   11     4.785e-05  
   12     7.520e-06  
   13     2.541e-06  
   14     7.723e-07  Converged.
   ... Converged in 14 steps (norm: 7.72316e-07)
------------------------------------
  Starting TPA DIIS iterations ... 
------------------------------------ 
   It     Res. Norm  Remark
------------------------------------
                       Guess.
    1     7.314e-01  
    2     5.485e-01  
    3     2.086e-01  
    4     9.429e-02  
    5     2.385e-02  
    6     9.240e-03  
    7     1.623e-03  
    8     7.995e-04  
    9     2.357e-04  
   10     4.173e-05  
   11     7.550e-06  
   12     2.765e-06  
   13     1.762e-06  
   14     5.512e-07  Converged.
   ... Converged in 14 steps (norm: 5.51151e-07)
------------------------------------
  Starting TPA DIIS iterations ... 
------------------------------------ 
   It     Res. Norm  Remark
------------------------------------
                       Guess.
    1     6.057e+00  
    2     8.929e+00  
    3     1.540e+00  
    4     4.363e-01  
    5     1.181e-01  
    6     5.004e-02  
    7     1.520e-02  
    8     2.633e-03  
    9     1.015e-03  
   10     1.748e-04  
   11     5.776e-05  
   12     9.268e-06  
   13     3.141e-06  
   14     9.718e-07  Converged.
   ... Converged in 14 steps (norm: 9.71763e-07)
------------------------------------
  Starting TPA DIIS iterations ... 
------------------------------------ 
   It     Res. Norm  Remark
------------------------------------
                       Guess.
    1     5.748e+00  
    2     8.467e+00  
    3     1.470e+00  
    4     4.326e-01  
    5     1.175e-01  
    6     5.018e-02  
    7     1.500e-02  
    8     2.668e-03  
    9     1.020e-03  
   10     1.747e-04  
   11     5.790e-05  
   12     9.169e-06  
   13     3.139e-06  
   14     9.621e-07  Converged.
   ... Converged in 14 steps (norm: 9.62141e-07)
------------------------------------
  Starting TPA DIIS iterations ... 
------------------------------------ 
   It     Res. Norm  Remark
------------------------------------
                       Guess.
    1     7.477e-01  
    2     5.751e-01  
    3     2.249e-01  
    4     1.121e-01  
    5     2.634e-02  
    6     1.054e-02  
    7     1.935e-03  
    8     9.718e-04  
    9     2.893e-04  
   10     4.297e-05  
   11     8.796e-06  
   12     3.435e-06  
   13     2.364e-06  
   14     6.923e-07  Converged.
   ... Converged in 14 steps (norm: 6.92328e-07)
------------------------------------
  Starting TPA DIIS iterations ... 
------------------------------------ 
   It     Res. Norm  Remark
------------------------------------
                       Guess.
    1     6.557e+00  
    2     9.918e+00  
    3     1.678e+00  
    4     4.975e-01  
    5     1.359e-01  
    6     5.812e-02  
    7     1.757e-02  
    8     3.037e-03  
    9     1.181e-03  
   10     2.042e-04  
   11     6.832e-05  
   12     1.102e-05  
   13     3.787e-06  
   14     1.180e-06  
   15     4.315e-07  Converged.
   ... Converged in 15 steps (norm: 4.31525e-07)
------------------------------------
  Starting TPA DIIS iterations ... 
------------------------------------ 
   It     Res. Norm  Remark
------------------------------------
                       Guess.
    1     6.221e+00  
    2     9.405e+00  
    3     1.601e+00  
    4     4.927e-01  
    5     1.353e-01  
    6     5.833e-02  
    7     1.734e-02  
    8     3.079e-03  
    9     1.188e-03  
   10     2.041e-04  
   11     6.840e-05  
   12     1.090e-05  
   13     3.773e-06  
   14     1.172e-06  
   15     3.667e-07  Converged.
   ... Converged in 15 steps (norm: 3.66679e-07)
------------------------------------
  Starting TPA DIIS iterations ... 
------------------------------------ 
   It     Res. Norm  Remark
------------------------------------
                       Guess.
    1     7.622e-01  
    2     5.999e-01  
    3     2.404e-01  
    4     1.308e-01  
    5     2.883e-02  
    6     1.188e-02  
    7     2.269e-03  
    8     1.136e-03  
    9     3.408e-04  
   10     4.342e-05  
   11     1.010e-05  
   12     4.153e-06  
   13     3.044e-06  
   14     8.431e-07  Converged.
   ... Converged in 14 steps (norm: 8.43127e-07)
------------------------------------
  Starting TPA DIIS iterations ... 
------------------------------------ 
   It     Res. Norm  Remark
------------------------------------
                       Guess.
    1     8.664e+00  
    2     1.433e+01  
    3     2.251e+00  
    4     7.826e-01  
    5     2.191e-01  
    6     9.662e-02  
    7     2.865e-02  
    8     4.910e-03  
    9     1.971e-03  
   10     3.434e-04  
   11     1.183e-04  
   12     1.940e-05  
   13     6.935e-06  
   14     2.333e-06  
   15     9.062e-07  Converged.
   ... Converged in 15 steps (norm: 9.06165e-07)
------------------------------------
  Starting TPA DIIS iterations ... 
------------------------------------ 
   It     Res. Norm  Remark
------------------------------------
                       Guess.
    1     8.216e+00  
    2     1.359e+01  
    3     2.146e+00  
    4     7.721e-01  
    5     2.182e-01  
    6     9.724e-02  
    7     2.829e-02  
    8     4.985e-03  
    9     1.980e-03  
   10     3.431e-04  
   11     1.179e-04  
   12     1.924e-05  
   13     6.810e-06  
   14     2.364e-06  
   15     7.066e-07  Converged.
   ... Converged in 15 steps (norm: 7.06569e-07)
------------------------------------
  Starting TPA DIIS iterations ... 
------------------------------------ 
   It     Res. Norm  Remark
------------------------------------
                       Guess.
    1     8.123e-01  
    2     6.935e-01  
    3     3.020e-01  
    4     2.196e-01  
    5     4.015e-02  
    6     1.810e-02  
    7     3.936e-03  
    8     1.659e-03  
    9     5.391e-04  
   10     5.166e-05  
   11     1.651e-05  
   12     7.688e-06  
   13     6.755e-06  
   14     1.605e-06  
   15     5.815e-07  Converged.
   ... Converged in 15 steps (norm: 5.8147e-07)
------------------------------------
  Starting TPA DIIS iterations ... 
------------------------------------ 
   It     Res. Norm  Remark
------------------------------------
                       Guess.
    1     1.049e+01  
    2     1.843e+01  
    3     2.734e+00  
    4     1.057e+00  
    5     2.999e-01  
    6     1.349e-01  
    7     3.940e-02  
    8     6.718e-03  
    9     2.753e-03  
   10     4.799e-04  
   11     1.656e-04  
   12     2.775e-05  
   13     1.003e-05  
   14     3.737e-06  
   15     1.504e-06  
   16     6.850e-07  Converged.
   ... Converged in 16 steps (norm: 6.8497e-07)
------------------------------------
  Starting TPA DIIS iterations ... 
------------------------------------ 
   It     Res. Norm  Remark
------------------------------------
                       Guess.
    1     9.944e+00  
    2     1.747e+01  
    3     2.606e+00  
    4     1.040e+00  
    5     2.988e-01  
    6     1.360e-01  
    7     3.893e-02  
    8     6.825e-03  
    9     2.764e-03  
   10     4.793e-04  
   11     1.648e-04  
   12     2.771e-05  
   13     9.720e-06  
   14     3.848e-06  
   15     1.139e-06  
   16     8.196e-07  Converged.
   ... Converged in 16 steps (norm: 8.19604e-07)
------------------------------------
  Starting TPA DIIS iterations ... 
------------------------------------ 
   It     Res. Norm  Remark
------------------------------------
                       Guess.
    1     8.459e-01  
    2     7.645e-01  
    3     3.512e-01  
    4     3.015e-01  
    5     5.085e-02  
    6     2.380e-02  
    7     5.621e-03  
    8     1.875e-03  
    9     6.913e-04  
   10     6.925e-05  
   11     2.315e-05  
   12     1.123e-05  
   13     1.091e-05  
   14     2.428e-06  
   15     8.918e-07  Converged.
   ... Converged in 15 steps (norm: 8.91808e-07)
------------------------------------
  Starting TPA DIIS iterations ... 
------------------------------------ 
   It     Res. Norm  Remark
------------------------------------
                       Guess.
    1     1.143e+01  
    2     2.063e+01  
    3     2.978e+00  
    4     1.206e+00  
    5     3.442e-01  
    6     1.562e-01  
    7     4.529e-02  
    8     7.705e-03  
    9     3.186e-03  
   10     5.549e-04  
   11     1.908e-04  
   12     3.245e-05  
   13     1.178e-05  
   14     4.613e-06  
   15     1.907e-06  
   16     8.970e-07  Converged.
   ... Converged in 16 steps (norm: 8.96967e-07)
------------------------------------
  Starting TPA DIIS iterations ... 
------------------------------------ 
   It     Res. Norm  Remark
------------------------------------
                       Guess.
    1     1.083e+01  
    2     1.956e+01  
    3     2.838e+00  
    4     1.185e+00  
    5     3.430e-01  
    6     1.575e-01  
    7     4.475e-02  
    8     7.830e-03  
    9     3.197e-03  
   10     5.541e-04  
   11     1.898e-04  
   12     3.254e-05  
   13     1.133e-05  
   14     4.781e-06  
   15     1.456e-06  
   16     1.107e-06  
   17     5.429e-07  Converged.
   ... Converged in 17 steps (norm: 5.42887e-07)
------------------------------------
  Starting TPA DIIS iterations ... 
------------------------------------ 
   It     Res. Norm  Remark
------------------------------------
                       Guess.
    1     8.608e-01  
    2     7.984e-01  
    3     3.753e-01  
    4     3.426e-01  
    5     5.657e-02  
    6     2.670e-02  
    7     6.539e-03  
    8     1.933e-03  
    9     7.653e-04  
   10     7.998e-05  
   11     2.692e-05  
   12     1.324e-05  
   13     1.339e-05  
   14     2.923e-06  
   15     1.109e-06  
   16     8.154e-07  Converged.
   ... Converged in 16 steps (norm: 8.1537e-07)
------------------------------------
  Starting TPA DIIS iterations ... 
------------------------------------ 
   It     Res. Norm  Remark
------------------------------------
                       Guess.
    1     1.240e+01  
    2     2.297e+01  
    3     3.228e+00  
    4     1.364e+00  
    5     3.917e-01  
    6     1.792e-01  
    7     5.162e-02  
    8     8.764e-03  
    9     3.654e-03  
   10     6.355e-04  
   11     2.173e-04  
   12     3.762e-05  
   13     1.374e-05  
   14     5.633e-06  
   15     2.411e-06  
   16     1.154e-06  
   17     4.349e-07  Converged.
   ... Converged in 17 steps (norm: 4.34939e-07)
------------------------------------
  Starting TPA DIIS iterations ... 
------------------------------------ 
   It     Res. Norm  Remark
------------------------------------
                       Guess.
    1     1.175e+01  
    2     2.177e+01  
    3     3.075e+00  
    4     1.339e+00  
    5     3.905e-01  
    6     1.809e-01  
    7     5.101e-02  
    8     8.907e-03  
    9     3.665e-03  
   10     6.345e-04  
   11     2.162e-04  
   12     3.792e-05  
   13     1.312e-05  
   14     5.868e-06  
   15     1.876e-06  
   16     1.467e-06  
   17     7.168e-07  Converged.
   ... Converged in 17 steps (norm: 7.16781e-07)
------------------------------------
  Starting TPA DIIS iterations ... 
------------------------------------ 
   It     Res. Norm  Remark
------------------------------------
                       Guess.
    1     8.749e-01  
    2     8.320e-01  
    3     3.996e-01  
    4     3.833e-01  
    5     6.263e-02  
    6     2.959e-02  
    7     7.513e-03  
    8     1.976e-03  
    9     8.397e-04  
   10     9.156e-05  
   11     3.107e-05  
   12     1.548e-05  
   13     1.621e-05  
   14     3.503e-06  
   15     1.397e-06  
   16     1.051e-06  
   17     4.752e-07  Converged.
   ... Converged in 17 steps (norm: 4.75163e-07)
------------------------------------
  Two-photon absorbption ...  CPU 150.92 s  wall 39.24 s
  Transition properties ...  CPU 0.10 s  wall 0.27 s
  Properties ...  CPU 0.18 s  wall 0.43 s
  ISR TDMS ...  CPU 23.09 s  wall 7.18 s
  ISR transition properties ...  CPU 0.18 s  wall 0.08 s
  Sum-over-states TPA ...  CPU 0.00 s  wall 0.00 s

--------------------------------------------------------------------------------
                   State-averaged natural transition orbitals
--------------------------------------------------------------------------------
--------------------------------------------------------------------------------
  SA-NTO decomposition ...  CPU 0.01 s  wall 0.02 s

--------------------------------------------------------------------------------
                             Excited State Summary
--------------------------------------------------------------------------------
--------------------------------------------------------------------------------

  Excited state 1 (singlet, A)                                     [converged]
  ----------------------------------------------------------------------------
  Term symbol:  2 (1) A                                     R^2 =  4.53550e-13

  Total energy:                                            -77.9985479162 a.u.
  Excitation energy:                                               8.737132 eV

  Osc. strength:                                                      0.445645
  Trans. dip. moment [a.u.]:           [   1.045599,   -0.994258,   -0.009270]
  <i|r^2|0> [a.u.]:                    [   6.146533,   -0.229191,   -0.000062]
  Two-photon absorption cross-section (SoS) [a.u.]:                   0.000480
  Two-photon absorption matrix (SoS) [a.u.]:
                                       |    0.005457   -0.001644   -0.000411 |
                                       |   -0.001644    0.001338   -0.000030 |
                                       |   -0.000411   -0.000030    0.004435 |
  Two-photon absorption cross-section [a.u.]:                         0.000305
  Two-photon absorption matrix [a.u.]:
                                       |    0.000187   -0.002783    0.000458 |
                                       |   -0.002783   -0.006261    0.001583 |
                                       |    0.000458    0.001583    0.003638 |

  Dip. moment [a.u.]:                  [  -0.000615,    0.000381,    0.000550]
  Total dipole [Debye]:                                               0.002311
  <r^2> [a.u.]:                        [ 175.230897,   35.613336,   11.870254]
  Total <r^2> [a.u.]:                                               222.714487

  V1^2 = 0.9715, V2^2 = 0.0285

  Important amplitudes:
      occ i     occ j     vir a      vir b          v   
    -----------------------------------------------------
     8 (A) A              9 (A) A                 0.6811
     6 (A) A             14 (A) A                -0.0623
     4 (A) A             10 (A) A                -0.0607
     7 (A) A             16 (A) A                 0.0570
     5 (A) A             13 (A) A                -0.0513
     6 (A) A             23 (A) A                -0.0486
     8 (A) A             20 (A) A                 0.0350
     6 (A) A             19 (A) A                -0.0309
     3 (A) A             12 (A) A                 0.0281
     5 (A) A             22 (A) A                 0.0215
     7 (A) A             11 (A) A                 0.0209
     4 (A) A             24 (A) A                -0.0187
     3 (A) A             26 (A) A                -0.0185
     8 (A) A   8 (A) B   17 (A) A   20 (A) B     -0.0184
     8 (A) A   8 (A) B    9 (A) A   28 (A) B     -0.0168
     6 (A) A             26 (A) A                -0.0163
     7 (A) A             21 (A) A                 0.0148
     3 (A) A             14 (A) A                -0.0139
     6 (A) A             12 (A) A                -0.0132
     3 (A) A   4 (A) B    9 (A) A    9 (A) B      0.0129
     3 (A) A             19 (A) A                -0.0119
     8 (A) A   8 (A) B   18 (A) A   19 (A) B      0.0113
     7 (A) A             32 (A) A                 0.0096
     7 (A) A             36 (A) A                 0.0086
     3 (A) A             23 (A) A                -0.0080
     8 (A) A   8 (A) B   25 (A) A   29 (A) B      0.0076
     6 (A) A             35 (A) A                -0.0072
     6 (A) A             40 (A) A                -0.0068
     3 (A) A   6 (A) B    9 (A) A   28 (A) B     -0.0065
     6 (A) A   8 (A) A   19 (A) A   28 (A) A     -0.0061
     5 (A) A   7 (A) B    9 (A) A    9 (A) B     -0.0060
     5 (A) A   8 (A) B   11 (A) A   20 (A) B     -0.0059
     7 (A) A   8 (A) B   13 (A) A   20 (A) B      0.0059
     5 (A) A   8 (A) B   16 (A) A    9 (A) B     -0.0059
     5 (A) A   8 (A) B   11 (A) A    9 (A) B      0.0059
     3 (A) A   5 (A) B    9 (A) A   25 (A) B     -0.0058
     3 (A) A             40 (A) A                -0.0057
     7 (A) A   8 (A) B   22 (A) A   20 (A) B     -0.0057
     6 (A) A   8 (A) A    9 (A) A   18 (A) A     -0.0057
     8 (A) A   8 (A) B   19 (A) A   30 (A) B      0.0056
    -----------------------------------------------------

  Density matrix analysis:
  ------------------------
  NOs
    Occupation of frontier NOs:
       0.9495   1.0217
    Number of electrons: 16.000000
    Number of unpaired electrons: n_u =  2.31339, n_u,nl =  2.03264
    NO participation ratio (PR_NO):  2.863935
  
  
  Mulliken Population Analysis
  Atom      Charge (e)              h+              e-           Del q
  --------------------------------------------------------------------
   1 H        0.058698        0.020286       -0.012538        0.007747
   2 C       -0.115973        0.490892       -0.506112       -0.015220
   3 H        0.058120        0.020174       -0.012597        0.007577
   4 C       -0.116983        0.490729       -0.506287       -0.015558
   5 H        0.057777        0.020203       -0.012556        0.007647
   6 H        0.058362        0.020323       -0.012516        0.007807
  --------------------------------------------------------------------
  Sum:        0.000000        1.062607       -1.062607        0.000000
  
  Multipole moment analysis of the density matrix
    Molecular charge:                      0.000000
    Number of electrons:                   16.000000
      Center of electronic charge [Ang]: [ -1.555556,  -0.060615,   0.006960]
    Total nuclear charge:                  16.000000
      Center of nuclear charge [Ang]:    [ -1.555576,  -0.060602,   0.006978]
    Dipole moment [D]:                     0.002311
      Cartesian components [D]:          [ -0.001564,   0.000969,   0.001399]
    RMS size of the density [Ang]:         1.214259
      Cartesian components [Ang]:        [  0.804425,   0.787161,   0.455744]
  
  Exciton analysis of the difference density matrix
    <r_h> [Ang]:                  [ -1.555225,  -0.060787,   0.006741]
    <r_e> [Ang]:                  [ -1.555266,  -0.060692,   0.006691]
    |<r_e - r_h>| [Ang]:            0.000115
    Hole size [Ang]:                1.285435
      Cartesian components [Ang]: [  0.728464,   0.712642,   0.783471]
    Electron size [Ang]:            1.463176
      Cartesian components [Ang]: [  0.854006,   0.830489,   0.849616]

  Transition density matrix analysis:
  -----------------------------------
  
  CT numbers (Mulliken)
    omega =     0.9535
    <Phe> =    -0.1607
  
  Exciton analysis of the transition density matrix
    Trans. dipole moment [D]:             1.833722
      Cartesian components [D]:         [  1.328823,  -1.263576,  -0.011782]
    <r_h> [Ang]:                        [ -1.555075,  -0.060909,   0.006785]
    <r_e> [Ang]:                        [ -1.555285,  -0.060681,   0.006656]
    |<r_e - r_h>| [Ang]:                  0.000336
    Hole size [Ang]:                      1.214148
      Cartesian components [Ang]:       [  0.649589,   0.636434,   0.804451]
    Electron size [Ang]:                  1.486027
      Cartesian components [Ang]:       [  0.864449,   0.839385,   0.869733]
    RMS electron-hole separation [Ang]:   1.936700
      Cartesian components [Ang]:       [  1.106745,   1.075133,   1.170475]
    Covariance(r_h, r_e) [Ang^2]:        -0.034189
    Correlation coefficient:             -0.018949
    Center-of-mass size [Ang]:            0.950533
      Cartesian components [Ang]:       [  0.527634,   0.515587,   0.599404]

  Decomposition into state-averaged NTOs
    H- 0 -> L+ 0:  0.6699 ( 89.8%)
    H- 2 -> L+ 5:  0.0836 (  1.4%)
                   omega =  95.4%
  ----------------------------------------------------------------------------


  Excited state 2 (singlet, A)                                     [converged]
  ----------------------------------------------------------------------------
  Term symbol:  3 (1) A                                     R^2 =  3.48456e-13

  Total energy:                                            -77.9868865630 a.u.
  Excitation energy:                                               9.054454 eV

  Osc. strength:                                                      0.000006
  Trans. dip. moment [a.u.]:           [   0.002922,   -0.003480,    0.002493]
  <i|r^2|0> [a.u.]:                    [  -0.047140,   -0.086961,    0.150411]
  Two-photon absorption cross-section (SoS) [a.u.]:                   4.890574
  Two-photon absorption matrix (SoS) [a.u.]:
                                       |   -0.052608   -0.058692    0.540212 |
                                       |   -0.058692   -0.065006    0.552847 |
                                       |    0.540212    0.552847    0.117569 |
  Two-photon absorption cross-section [a.u.]:                         0.077118
  Two-photon absorption matrix [a.u.]:
                                       |    0.002570    0.007036   -0.058782 |
                                       |    0.007036    0.012251   -0.077114 |
                                       |   -0.058782   -0.077114   -0.014833 |

  Dip. moment [a.u.]:                  [  -0.004108,    0.009480,    0.001397]
  Total dipole [Debye]:                                               0.026500
  <r^2> [a.u.]:                        [ 173.629046,   33.935201,   13.175530]
  Total <r^2> [a.u.]:                                               220.739777

  V1^2 = 0.9542, V2^2 = 0.0458

  Important amplitudes:
      occ i     occ j     vir a      vir b          v   
    -----------------------------------------------------
     7 (A) A              9 (A) A                 0.6692
     8 (A) A             11 (A) A                 0.1482
     7 (A) A             20 (A) A                 0.0759
     5 (A) A   8 (A) B    9 (A) A    9 (A) B     -0.0316
     8 (A) A             16 (A) A                -0.0273
     8 (A) A             21 (A) A                 0.0176
     5 (A) A             28 (A) A                -0.0151
     4 (A) A   7 (A) B    9 (A) A   19 (A) B     -0.0135
     5 (A) A   7 (A) B    9 (A) A   16 (A) B      0.0134
     7 (A) A   8 (A) B   20 (A) A   17 (A) B     -0.0105
     7 (A) A   8 (A) A    9 (A) A   28 (A) A      0.0098
     5 (A) A   8 (A) B    9 (A) A   20 (A) B     -0.0096
     4 (A) A   6 (A) B    9 (A) A   16 (A) B      0.0091
     5 (A) A   6 (A) A    9 (A) A   23 (A) A     -0.0091
     5 (A) A   6 (A) A    9 (A) A   14 (A) A     -0.0089
     5 (A) A   6 (A) B    9 (A) A   19 (A) B     -0.0087
     8 (A) A   7 (A) B    9 (A) A   28 (A) B     -0.0085
     4 (A) A   5 (A) A    9 (A) A   10 (A) A      0.0085
     6 (A) A   7 (A) B    9 (A) A   18 (A) B     -0.0083
     5 (A) A   6 (A) B    9 (A) A   23 (A) B     -0.0080
     3 (A) A   7 (A) B    9 (A) A   18 (A) B      0.0080
     5 (A) A   7 (A) A    9 (A) A   16 (A) A      0.0079
     4 (A) A   8 (A) B    9 (A) A   25 (A) B      0.0077
     7 (A) A   8 (A) B   17 (A) A   20 (A) B     -0.0074
     4 (A) A   7 (A) B   19 (A) A    9 (A) B     -0.0074
     5 (A) A   5 (A) B    9 (A) A   13 (A) B     -0.0072
     7 (A) A   8 (A) B   19 (A) A   18 (A) B      0.0072
     5 (A) A   8 (A) A    9 (A) A   20 (A) A     -0.0069
     4 (A) A   5 (A) B    9 (A) A   18 (A) B     -0.0068
     7 (A) A   7 (A) B   20 (A) A   22 (A) B     -0.0065
     7 (A) A   8 (A) B   17 (A) A    9 (A) B     -0.0065
     5 (A) A   6 (A) B    9 (A) A   14 (A) B     -0.0063
     4 (A) A   7 (A) A    9 (A) A   19 (A) A     -0.0061
     4 (A) A   5 (A) B   10 (A) A    9 (A) B     -0.0061
     5 (A) A             38 (A) A                -0.0060
     5 (A) A   7 (A) B   11 (A) A   20 (A) B     -0.0060
     4 (A) A   7 (A) B    9 (A) A   14 (A) B      0.0060
     4 (A) A   8 (A) A    9 (A) A   25 (A) A      0.0057
     6 (A) A   7 (A) A   19 (A) A   28 (A) A     -0.0057
     5 (A) A   7 (A) A   11 (A) A   20 (A) A     -0.0053
    -----------------------------------------------------

  Density matrix analysis:
  ------------------------
  NOs
    Occupation of frontier NOs:
       0.9580   1.0537
    Number of electrons: 16.000000
    Number of unpaired electrons: n_u =  2.35532, n_u,nl =  2.06275
    NO participation ratio (PR_NO):  3.027296
  
  
  Mulliken Population Analysis
  Atom      Charge (e)              h+              e-           Del q
  --------------------------------------------------------------------
   1 H        0.148975        0.121551       -0.023526        0.098025
   2 C       -0.301937        0.270861       -0.472045       -0.201184
   3 H        0.152126        0.127082       -0.025499        0.101583
   4 C       -0.302513        0.273131       -0.474219       -0.201088
   5 H        0.154484        0.127935       -0.023580        0.104355
   6 H        0.148864        0.123456       -0.025147        0.098309
  --------------------------------------------------------------------
  Sum:        0.000000        1.044016       -1.044016        0.000000
  
  Multipole moment analysis of the density matrix
    Molecular charge:                      0.000000
    Number of electrons:                   16.000000
      Center of electronic charge [Ang]: [ -1.555440,  -0.060916,   0.006932]
    Total nuclear charge:                  16.000000
      Center of nuclear charge [Ang]:    [ -1.555576,  -0.060602,   0.006978]
    Dipole moment [D]:                     0.026500
      Cartesian components [D]:          [ -0.010442,   0.024096,   0.003550]
    RMS size of the density [Ang]:         1.200078
      Cartesian components [Ang]:        [  0.787034,   0.768255,   0.480153]
  
  Exciton analysis of the difference density matrix
    <r_h> [Ang]:                  [ -1.560072,  -0.057962,   0.006978]
    <r_e> [Ang]:                  [ -1.558343,  -0.062477,   0.006499]
    |<r_e - r_h>| [Ang]:            0.004859
    Hole size [Ang]:                1.486312
      Cartesian components [Ang]: [  0.999319,   1.002004,   0.454390]
    Electron size [Ang]:            1.477048
      Cartesian components [Ang]: [  0.881312,   0.859323,   0.816410]

  Transition density matrix analysis:
  -----------------------------------
  
  CT numbers (Mulliken)
    omega =     0.9218
    <Phe> =    -0.0121
  
  Exciton analysis of the transition density matrix
    Trans. dipole moment [D]:             0.006586
      Cartesian components [D]:         [  0.003713,  -0.004422,   0.003168]
    <r_h> [Ang]:                        [ -1.560736,  -0.057369,   0.007044]
    <r_e> [Ang]:                        [ -1.557928,  -0.063072,   0.006414]
    |<r_e - r_h>| [Ang]:                  0.006388
    Hole size [Ang]:                      1.514975
      Cartesian components [Ang]:       [  1.021952,   1.026465,   0.443998]
    Electron size [Ang]:                  1.474116
      Cartesian components [Ang]:       [  0.871921,   0.848628,   0.832227]
    RMS electron-hole separation [Ang]:   2.093989
      Cartesian components [Ang]:       [  1.327495,   1.316897,   0.942513]
    Covariance(r_h, r_e) [Ang^2]:         0.041709
    Correlation coefficient:              0.018676
    Center-of-mass size [Ang]:            1.066722
      Cartesian components [Ang]:       [  0.679527,   0.673316,   0.472002]

  Decomposition into state-averaged NTOs
    H- 1 -> L+ 0:  0.6616 ( 87.5%)
    H- 0 -> L+ 2:  0.1481 (  4.4%)
                   omega =  92.2%
  ----------------------------------------------------------------------------


  Excited state 3 (singlet, A)                                     [converged]
  ----------------------------------------------------------------------------
  Term symbol:  4 (1) A                                     R^2 =  1.61662e-13

  Total energy:                                            -77.9826124229 a.u.
  Excitation energy:                                               9.170759 eV

  Osc. strength:                                                      0.025190
  Trans. dip. moment [a.u.]:           [  -0.015352,   -0.020284,    0.333865]
  <i|r^2|0> [a.u.]:                    [  -0.091182,   -0.002064,   -0.009949]
  Two-photon absorption cross-section (SoS) [a.u.]:                   0.002557
  Two-photon absorption matrix (SoS) [a.u.]:
                                       |   -0.012690   -0.001565    0.011270 |
                                       |   -0.001565    0.009860    0.007206 |
                                       |    0.011270    0.007206   -0.002287 |
  Two-photon absorption cross-section [a.u.]:                         0.002585
  Two-photon absorption matrix [a.u.]:
                                       |   -0.011398   -0.000878    0.014442 |
                                       |   -0.000878    0.005656    0.004726 |
                                       |    0.014442    0.004726   -0.000666 |

  Dip. moment [a.u.]:                  [   0.002529,    0.012659,    0.000264]
  Total dipole [Debye]:                                               0.032818
  <r^2> [a.u.]:                        [ 179.988210,   40.572106,   11.030544]
  Total <r^2> [a.u.]:                                               231.590860

  V1^2 = 0.9587, V2^2 = 0.0413

  Important amplitudes:
      occ i     occ j     vir a      vir b          v   
    -----------------------------------------------------
     8 (A) A             10 (A) A                -0.6891
     8 (A) A             24 (A) A                -0.0507
     8 (A) A             18 (A) A                 0.0312
     4 (A) A              9 (A) A                 0.0238
     8 (A) A   8 (A) B    9 (A) A   12 (A) B     -0.0219
     8 (A) A   8 (A) B   10 (A) A   17 (A) B     -0.0173
     8 (A) A             15 (A) A                -0.0169
     5 (A) A   8 (A) B   11 (A) A   10 (A) B     -0.0165
     7 (A) A   8 (A) B   13 (A) A   10 (A) B      0.0141
     4 (A) A   8 (A) B   12 (A) A   10 (A) B      0.0111
     6 (A) A   8 (A) A   10 (A) A   15 (A) A      0.0110
     7 (A) A   8 (A) B   22 (A) A   10 (A) B     -0.0108
     6 (A) A   8 (A) B   15 (A) A   10 (A) B     -0.0108
     4 (A) A   8 (A) A   10 (A) A   12 (A) A     -0.0106
     7 (A) A   8 (A) A   10 (A) A   22 (A) A      0.0099
     7 (A) A   8 (A) A   10 (A) A   13 (A) A     -0.0097
     5 (A) A   8 (A) B   21 (A) A   10 (A) B     -0.0094
     5 (A) A   8 (A) A   10 (A) A   11 (A) A      0.0094
     6 (A) A   8 (A) A   10 (A) A   18 (A) A      0.0088
     6 (A) A   8 (A) B   10 (A) A   10 (A) B      0.0087
     7 (A) A   8 (A) A   12 (A) A   16 (A) A     -0.0082
     5 (A) A   8 (A) A   10 (A) A   21 (A) A      0.0080
     3 (A) A   4 (A) B   10 (A) A    9 (A) B     -0.0079
     4 (A) A   8 (A) B   19 (A) A   10 (A) B     -0.0075
     8 (A) A   8 (A) B    9 (A) A   23 (A) B     -0.0075
     8 (A) A   8 (A) B   10 (A) A   28 (A) B      0.0073
     3 (A) A   8 (A) B   10 (A) A   10 (A) B     -0.0072
     5 (A) A   8 (A) B   10 (A) A   11 (A) B     -0.0071
     3 (A) A   8 (A) A   10 (A) A   24 (A) A      0.0071
     7 (A) A   8 (A) B   16 (A) A   12 (A) B      0.0070
     3 (A) A   8 (A) B   10 (A) A   18 (A) B      0.0069
     8 (A) A   8 (A) B    9 (A) A   19 (A) B      0.0068
     6 (A) A   8 (A) B   18 (A) A   10 (A) B     -0.0067
     3 (A) A   6 (A) B   10 (A) A   28 (A) B      0.0062
     7 (A) A   8 (A) B   12 (A) A   11 (A) B     -0.0058
     6 (A) A             28 (A) A                -0.0057
     3 (A) A   5 (A) B   10 (A) A   25 (A) B      0.0056
     5 (A) A   8 (A) A   10 (A) A   16 (A) A     -0.0056
     3 (A) A   8 (A) A   10 (A) A   18 (A) A      0.0056
     4 (A) A   8 (A) A   10 (A) A   23 (A) A     -0.0055
    -----------------------------------------------------

  Density matrix analysis:
  ------------------------
  NOs
    Occupation of frontier NOs:
       0.9815   0.9850
    Number of electrons: 16.000000
    Number of unpaired electrons: n_u =  2.28531, n_u,nl =  2.02442
    NO participation ratio (PR_NO):  2.692042
  
  
  Mulliken Population Analysis
  Atom      Charge (e)              h+              e-           Del q
  --------------------------------------------------------------------
   1 H       -0.162473        0.053900       -0.267323       -0.213423
   2 C        0.327707        0.538836       -0.110377        0.428459
   3 H       -0.166163        0.053736       -0.270442       -0.216706
   4 C        0.326777        0.537585       -0.109382        0.428203
   5 H       -0.162373        0.053981       -0.266484       -0.212503
   6 H       -0.163475        0.053868       -0.267898       -0.214030
  --------------------------------------------------------------------
  Sum:        0.000000        1.291907       -1.291907       -0.000000
  
  Multipole moment analysis of the density matrix
    Molecular charge:                      0.000000
    Number of electrons:                   16.000000
      Center of electronic charge [Ang]: [ -1.555660,  -0.061021,   0.006969]
    Total nuclear charge:                  16.000000
      Center of nuclear charge [Ang]:    [ -1.555576,  -0.060602,   0.006978]
    Dipole moment [D]:                     0.032818
      Cartesian components [D]:          [  0.006428,   0.032176,   0.000671]
    RMS size of the density [Ang]:         1.276481
      Cartesian components [Ang]:        [  0.854422,   0.840453,   0.439324]
  
  Exciton analysis of the difference density matrix
    <r_h> [Ang]:                  [ -1.555103,  -0.061049,   0.006835]
    <r_e> [Ang]:                  [ -1.556425,  -0.066000,   0.006911]
    |<r_e - r_h>| [Ang]:            0.005125
    Hole size [Ang]:                1.410252
      Cartesian components [Ang]: [  0.833993,   0.819813,   0.788144]
    Electron size [Ang]:            2.076054
      Cartesian components [Ang]: [  1.373360,   1.376908,   0.726640]

  Transition density matrix analysis:
  -----------------------------------
  
  CT numbers (Mulliken)
    omega =     0.9259
    <Phe> =    -0.0109
  
  Exciton analysis of the transition density matrix
    Trans. dipole moment [D]:             0.425530
      Cartesian components [D]:         [ -0.019510,  -0.025778,   0.424301]
    <r_h> [Ang]:                        [ -1.554735,  -0.060681,   0.006751]
    <r_e> [Ang]:                        [ -1.556617,  -0.067858,   0.006906]
    |<r_e - r_h>| [Ang]:                  0.007422
    Hole size [Ang]:                      1.212945
      Cartesian components [Ang]:       [  0.636470,   0.623531,   0.823013]
    Electron size [Ang]:                  2.296455
      Cartesian components [Ang]:       [  1.518007,   1.524457,   0.803363]
    RMS electron-hole separation [Ang]:   2.587207
      Cartesian components [Ang]:       [  1.638546,   1.640077,   1.148459]
    Covariance(r_h, r_e) [Ang^2]:         0.025678
    Correlation coefficient:              0.009218
    Center-of-mass size [Ang]:            1.303485
      Cartesian components [Ang]:       [  0.826748,   0.827000,   0.575875]

  Decomposition into state-averaged NTOs
    H- 0 -> L+ 1:  0.6798 ( 92.4%)
                   omega =  92.6%
  ----------------------------------------------------------------------------


  Excited state 4 (singlet, A)                                     [converged]
  ----------------------------------------------------------------------------
  Term symbol:  5 (1) A                                     R^2 =  1.27281e-13

  Total energy:                                            -77.9582624037 a.u.
  Excitation energy:                                               9.833357 eV

  Osc. strength:                                                      0.000001
  Trans. dip. moment [a.u.]:           [  -0.001119,    0.001277,   -0.001428]
  <i|r^2|0> [a.u.]:                    [  -0.024146,   -0.018413,    0.036299]
  Two-photon absorption cross-section (SoS) [a.u.]:                 149.606783
  Two-photon absorption matrix (SoS) [a.u.]:
                                       |   -0.290820   -0.324751    3.013328 |
                                       |   -0.324751   -0.359121    3.032711 |
                                       |    3.013328    3.032711    0.649809 |
  Two-photon absorption cross-section [a.u.]:                        91.883955
  Two-photon absorption matrix [a.u.]:
                                       |   -0.229663   -0.254581    2.356435 |
                                       |   -0.254581   -0.279852    2.381730 |
                                       |    2.356435    2.381730    0.509367 |

  Dip. moment [a.u.]:                  [  -0.014321,   -0.008726,   -0.001847]
  Total dipole [Debye]:                                               0.042882
  <r^2> [a.u.]:                        [ 180.331972,   40.489995,   10.767642]
  Total <r^2> [a.u.]:                                               231.589610

  V1^2 = 0.9635, V2^2 = 0.0365

  Important amplitudes:
      occ i     occ j     vir a      vir b          v   
    -----------------------------------------------------
     8 (A) A             11 (A) A                 0.6697
     7 (A) A              9 (A) A                -0.1502
     8 (A) A             21 (A) A                 0.0781
     8 (A) A             16 (A) A                -0.0646
     8 (A) A   8 (A) B    9 (A) A   13 (A) B     -0.0167
     5 (A) A   8 (A) B   11 (A) A   11 (A) B      0.0155
     8 (A) A   8 (A) B   11 (A) A   17 (A) B      0.0140
     7 (A) A             20 (A) A                -0.0137
     7 (A) A   8 (A) B   13 (A) A   11 (A) B     -0.0127
     8 (A) A             12 (A) A                 0.0116
     5 (A) A   8 (A) A   11 (A) A   21 (A) A     -0.0110
     4 (A) A   8 (A) B   12 (A) A   11 (A) B     -0.0110
     8 (A) A   8 (A) B    9 (A) A   22 (A) B      0.0107
     7 (A) A   8 (A) A   11 (A) A   22 (A) A     -0.0096
     6 (A) A   8 (A) B   15 (A) A   11 (A) B      0.0090
     6 (A) A   8 (A) B   10 (A) A   11 (A) B     -0.0090
     7 (A) A   8 (A) B   22 (A) A   11 (A) B      0.0089
     3 (A) A   4 (A) B   11 (A) A    9 (A) B      0.0083
     3 (A) A   8 (A) B   11 (A) A   18 (A) B     -0.0081
     6 (A) A   8 (A) A   11 (A) A   15 (A) A     -0.0080
     7 (A) A   8 (A) A   13 (A) A   16 (A) A     -0.0078
     7 (A) A   8 (A) A   11 (A) A   13 (A) A      0.0077
     6 (A) A              9 (A) A                 0.0076
     5 (A) A   8 (A) B   21 (A) A   11 (A) B      0.0071
     4 (A) A   8 (A) B   19 (A) A   11 (A) B      0.0070
     5 (A) A   8 (A) B    9 (A) A    9 (A) B      0.0068
     4 (A) A   8 (A) A   11 (A) A   12 (A) A      0.0062
     6 (A) A   8 (A) A   11 (A) A   18 (A) A     -0.0062
     3 (A) A   6 (A) B   11 (A) A   28 (A) B     -0.0060
     6 (A) A   8 (A) B   18 (A) A   11 (A) B      0.0060
     7 (A) A   8 (A) B   16 (A) A   13 (A) B      0.0057
     3 (A) A   8 (A) A   11 (A) A   18 (A) A     -0.0056
     5 (A) A   8 (A) B   10 (A) A   10 (A) B      0.0056
     3 (A) A   8 (A) B   11 (A) A   30 (A) B     -0.0055
     3 (A) A   5 (A) B   11 (A) A   25 (A) B     -0.0055
     6 (A) A   8 (A) B   11 (A) A   10 (A) B     -0.0054
     7 (A) A   8 (A) B   12 (A) A   10 (A) B      0.0054
     8 (A) A   8 (A) B   20 (A) A   22 (A) B      0.0053
     3 (A) A   8 (A) A   11 (A) A   24 (A) A     -0.0053
     5 (A) A   8 (A) A   11 (A) A   16 (A) A      0.0048
    -----------------------------------------------------

  Density matrix analysis:
  ------------------------
  NOs
    Occupation of frontier NOs:
       0.9407   1.0278
    Number of electrons: 16.000000
    Number of unpaired electrons: n_u =  2.31914, n_u,nl =  2.04909
    NO participation ratio (PR_NO):  2.914291
  
  
  Mulliken Population Analysis
  Atom      Charge (e)              h+              e-           Del q
  --------------------------------------------------------------------
   1 H       -0.147158        0.045768       -0.243876       -0.198108
   2 C        0.274970        0.497167       -0.121443        0.375723
   3 H       -0.128066        0.046938       -0.225546       -0.178608
   4 C        0.273204        0.496826       -0.122197        0.374630
   5 H       -0.131168        0.047071       -0.228368       -0.181297
   6 H       -0.141784        0.045828       -0.238167       -0.192339
  --------------------------------------------------------------------
  Sum:        0.000000        1.179597       -1.179597        0.000000
  
  Multipole moment analysis of the density matrix
    Molecular charge:                      0.000000
    Number of electrons:                   16.000000
      Center of electronic charge [Ang]: [ -1.555103,  -0.060314,   0.007039]
    Total nuclear charge:                  16.000000
      Center of nuclear charge [Ang]:    [ -1.555576,  -0.060602,   0.006978]
    Dipole moment [D]:                     0.042882
      Cartesian components [D]:          [ -0.036400,  -0.022179,  -0.004696]
    RMS size of the density [Ang]:         1.277184
      Cartesian components [Ang]:        [  0.858945,   0.839648,   0.434055]
  
  Exciton analysis of the difference density matrix
    <r_h> [Ang]:                  [ -1.555041,  -0.060375,   0.006857]
    <r_e> [Ang]:                  [ -1.548930,  -0.056204,   0.007888]
    |<r_e - r_h>| [Ang]:            0.007471
    Hole size [Ang]:                1.394828
      Cartesian components [Ang]: [  0.818263,   0.806861,   0.790547]
    Electron size [Ang]:            2.124164
      Cartesian components [Ang]: [  1.441722,   1.404637,   0.678604]

  Transition density matrix analysis:
  -----------------------------------
  
  CT numbers (Mulliken)
    omega =     0.9298
    <Phe> =    -0.0135
  
  Exciton analysis of the transition density matrix
    Trans. dipole moment [D]:             0.002820
      Cartesian components [D]:         [ -0.001422,   0.001623,  -0.001815]
    <r_h> [Ang]:                        [ -1.555426,  -0.060638,   0.006739]
    <r_e> [Ang]:                        [ -1.547806,  -0.055245,   0.008067]
    |<r_e - r_h>| [Ang]:                  0.009429
    Hole size [Ang]:                      1.227938
      Cartesian components [Ang]:       [  0.657836,   0.650270,   0.807610]
    Electron size [Ang]:                  2.262258
      Cartesian components [Ang]:       [  1.536071,   1.496192,   0.720905]
    RMS electron-hole separation [Ang]:   2.563364
      Cartesian components [Ang]:       [  1.662467,   1.623613,   1.082090]
    Covariance(r_h, r_e) [Ang^2]:         0.027449
    Correlation coefficient:              0.009881
    Center-of-mass size [Ang]:            1.292337
      Cartesian components [Ang]:       [  0.839760,   0.819572,   0.541516]

  Decomposition into state-averaged NTOs
    H- 0 -> L+ 2:  0.6650 ( 88.5%)
    H- 1 -> L+ 0: -0.1482 (  4.4%)
                   omega =  93.0%
  ----------------------------------------------------------------------------


  Excited state 5 (singlet, A)                                     [converged]
  ----------------------------------------------------------------------------
  Term symbol:  6 (1) A                                     R^2 =  7.88887e-14

  Total energy:                                            -77.9443424940 a.u.
  Excitation energy:                                              10.212137 eV

  Osc. strength:                                                      0.000000
  Trans. dip. moment [a.u.]:           [  -0.000134,   -0.000175,   -0.000300]
  <i|r^2|0> [a.u.]:                    [  -0.088467,    0.103630,   -0.016196]
  Two-photon absorption cross-section (SoS) [a.u.]:                 178.375112
  Two-photon absorption matrix (SoS) [a.u.]:
                                       |   -0.320419   -0.040684    3.350608 |
                                       |   -0.040684    0.390495   -3.307291 |
                                       |    3.350608   -3.307291   -0.076126 |
  Two-photon absorption cross-section [a.u.]:                        79.888214
  Two-photon absorption matrix [a.u.]:
                                       |   -0.215092   -0.026997    2.228777 |
                                       |   -0.026997    0.260871   -2.226938 |
                                       |    2.228777   -2.226938   -0.053375 |

  Dip. moment [a.u.]:                  [   0.007855,   -0.010117,   -0.000013]
  Total dipole [Debye]:                                               0.032555
  <r^2> [a.u.]:                        [ 177.538027,   38.288722,   11.930834]
  Total <r^2> [a.u.]:                                               227.757583

  V1^2 = 0.9573, V2^2 = 0.0427

  Important amplitudes:
      occ i     occ j     vir a      vir b          v   
    -----------------------------------------------------
     8 (A) A             12 (A) A                -0.4939
     6 (A) A              9 (A) A                 0.4756
     6 (A) A             20 (A) A                 0.0649
     8 (A) A             19 (A) A                 0.0481
     3 (A) A              9 (A) A                 0.0260
     8 (A) A             23 (A) A                -0.0256
     4 (A) A   8 (A) B    9 (A) A    9 (A) B     -0.0179
     8 (A) A   8 (A) B    9 (A) A   10 (A) B     -0.0176
     8 (A) A             26 (A) A                 0.0153
     5 (A) A   8 (A) B   11 (A) A   12 (A) B     -0.0126
     8 (A) A   8 (A) B   12 (A) A   17 (A) B     -0.0116
     3 (A) A             20 (A) A                 0.0113
     7 (A) A   8 (A) B   13 (A) A   12 (A) B      0.0111
     4 (A) A   8 (A) B   12 (A) A   12 (A) B      0.0106
     5 (A) A   8 (A) A   11 (A) A   12 (A) A     -0.0092
     6 (A) A   8 (A) A    9 (A) A   17 (A) A      0.0089
     6 (A) A   8 (A) B   15 (A) A   12 (A) B     -0.0088
     4 (A) A   6 (A) B    9 (A) A   19 (A) B     -0.0085
     4 (A) A             28 (A) A                -0.0081
     7 (A) A   8 (A) B   22 (A) A   12 (A) B     -0.0080
     4 (A) A   7 (A) B    9 (A) A   16 (A) B      0.0079
     6 (A) A   8 (A) A   12 (A) A   15 (A) A      0.0078
     6 (A) A   8 (A) B   10 (A) A   12 (A) B      0.0077
     7 (A) A   8 (A) A   12 (A) A   22 (A) A      0.0074
     4 (A) A   8 (A) B    9 (A) A   20 (A) B     -0.0073
     6 (A) A   8 (A) B   20 (A) A   17 (A) B     -0.0069
     8 (A) A             14 (A) A                 0.0068
     5 (A) A   8 (A) A   12 (A) A   21 (A) A      0.0065
     8 (A) A   6 (A) B    9 (A) A   28 (A) B     -0.0064
     4 (A) A   6 (A) A    9 (A) A   19 (A) A     -0.0064
     7 (A) A   8 (A) A   12 (A) A   13 (A) A     -0.0062
     5 (A) A   8 (A) B   21 (A) A   12 (A) B     -0.0062
     6 (A) A   8 (A) B   18 (A) A   12 (A) B     -0.0062
     7 (A) A             25 (A) A                -0.0061
     8 (A) A   8 (A) B    9 (A) A   24 (A) B     -0.0061
     4 (A) A   6 (A) B    9 (A) A   23 (A) B     -0.0061
     6 (A) A   8 (A) B   19 (A) A   18 (A) B      0.0059
     8 (A) A   8 (A) B    9 (A) A   18 (A) B      0.0059
     6 (A) A   8 (A) B   17 (A) A   20 (A) B     -0.0059
     3 (A) A   6 (A) B    9 (A) A   18 (A) B      0.0058
    -----------------------------------------------------

  Density matrix analysis:
  ------------------------
  NOs
    Occupation of frontier NOs:
       0.5132   1.4506
    Number of electrons: 16.000000
    Number of unpaired electrons: n_u =  2.33250, n_u,nl =  2.35489
    NO participation ratio (PR_NO):  5.107099
  
  
  Mulliken Population Analysis
  Atom      Charge (e)              h+              e-           Del q
  --------------------------------------------------------------------
   1 H       -0.020321        0.063493       -0.134764       -0.071272
   2 C        0.059382        0.443193       -0.283058        0.160135
   3 H       -0.036640        0.059177       -0.146359       -0.087182
   4 C        0.060407        0.443705       -0.281873        0.161832
[...]
    16   -1.477792438685e-03
    17   -1.758907414445e-03
    18   -1.029144069123e-04
    19   -3.319653003306e-03
    20    1.081920266786e-02
    21    9.351322159889e-01
    22   -2.685418232894e-04
    23    1.398943657456e-02
    24    8.162759815395e-04
    25    7.025217524908e-02
    26   -5.225479859952e-02
    27   -1.399009472335e+00
    28    9.791282538888e-02
    29   -9.268355745115e-02
    30   -1.055614804776e-03
    31    3.848987393677e-01
    32   -3.625708744008e-01
    33   -4.056367783640e-03
    34    1.563016138232e-02
    35   -1.466528497237e-03
    36   -1.791786584939e-03
    37   -4.630442708211e-05
    38   -3.133000302126e-03
    39    9.870870957005e-03
    40    9.320030959401e-01
    41    2.426157633800e-04
    42   -1.392949015588e-02
    43   -8.304042576353e-04
    44    1.008108036003e-02
    45    9.398300399221e-01
    46    1.412127637684e-02
    47    3.732462199824e-04
    48    6.838352446040e-04
Sym=X
Ene= 0.232965
Spin=Alpha
Occup=0
     1    2.618196643007e-02
     2    1.234583096878e+00
     3   -1.432901564745e-02
     4   -3.824849015100e-03
     5   -8.986345410414e-04
     6    3.083019088540e-03
     7   -3.489330708516e-03
     8   -4.889672554413e-02
     9   -1.548846190068e-01
    10   -1.585600315811e-01
    11   -1.666113669204e-02
    12   -5.566605245696e-01
    13   -5.580670688701e-01
    14   -5.912540253909e-02
    15    5.346729703041e-04
    16   -6.613127218944e-05
    17   -5.921536384791e-05
    18   -2.105597739552e-04
    19   -3.540960985488e-04
    20   -2.504822369978e-02
    21   -1.159853883054e+00
    22   -2.491023213523e-03
    23   -1.356085512712e-02
    24   -9.202237177745e-04
    25   -2.773099550516e-03
    26    3.226540338334e-03
    27    4.070625176697e-02
    28   -1.539577580714e-01
    29   -1.590136409442e-01
    30   -1.684373184002e-02
    31   -5.480590093887e-01
    32   -5.553930381592e-01
    33   -5.938679055756e-02
    34   -4.915542005699e-04
    35    6.738415376241e-05
    36    2.300241743387e-05
    37    3.833330259649e-04
    38    3.453900006788e-04
    39    2.505141708737e-02
    40    1.158132367755e+00
    41   -2.458137551221e-03
    42   -1.362046005736e-02
    43   -9.350788592226e-04
    44   -2.622768248588e-02
    45   -1.222481504997e+00
    46   -1.423776125248e-02
    47   -3.767878535593e-03
    48   -9.003794426018e-04
Sym=X
Ene= 0.239410
Spin=Alpha
Occup=0
     1   -1.597922877541e-02
     2   -1.050715431473e+00
     3    1.651490577364e-02
     4    9.101877502882e-03
     5    1.329810624425e-03
     6   -8.650239892402e-02
     7    7.973806094968e-02
     8    1.593042588029e+00
     9    5.311894785918e-02
    10   -6.069663076640e-02
    11   -9.562359720450e-04
    12    2.108603820426e-01
    13   -2.359766892455e-01
    14   -3.416819935702e-03
    15   -2.254925154998e-02
    16    2.618075151081e-03
    17    2.958830778157e-03
    18   -5.120093371841e-04
    19    1.286672473993e-02
    20   -1.701308456841e-02
    21   -1.125244699476e+00
    22   -8.541755941365e-03
    23   -1.777449882421e-02
    24   -1.451025862268e-03
    25    8.643543186964e-02
    26   -7.930375515997e-02
    27   -1.596173006683e+00
    28    5.333213071172e-02
    29   -6.122832028480e-02
    30   -1.355007270956e-03
    31    2.110077019366e-01
    32   -2.410885255971e-01
    33   -5.299326535271e-03
    34    2.261360425408e-02
    35   -2.581896489967e-03
    36   -3.018183121495e-03
    37    7.257492115897e-04
    38   -1.278916483830e-02
    39    1.682754417713e-02
    40    1.131140296609e+00
    41   -8.624708218750e-03
    42   -1.790385953054e-02
    43   -1.491997160175e-03
    44    1.562121312991e-02
    45    1.048312198184e+00
    46    1.642970741509e-02
    47    9.267897329247e-03
    48    1.314373202097e-03
Sym=X
Ene= 0.303261
Spin=Alpha
Occup=0
     1   -2.076337261183e-02
     2    1.691370023776e+00
     3   -2.291277627869e-02
     4    2.764118885708e-04
     5   -1.075072945108e-03
     6   -2.071927362831e-04
     7    1.786555105543e-04
     8    2.114298085117e-03
     9   -1.338953625203e-01
    10   -1.395764007990e-01
    11   -1.457886886451e-02
    12   -1.144228118108e+00
    13   -1.193742056986e+00
    14   -1.249585363028e-01
    15   -1.264392983085e-04
    16   -1.649428051055e-03
    17    1.853899869470e-03
    18   -3.265965341877e-02
    19   -1.581491831387e-03
    20    1.996642078522e-02
    21   -1.689924257431e+00
    22    1.428165245153e-03
    23   -2.290783103124e-02
    24   -1.279015853144e-03
    25    8.509490980500e-05
    26    2.649078011119e-04
    27   -8.691555572100e-03
    28    1.346992262691e-01
    29    1.402617645523e-01
    30    1.477962356610e-02
    31    1.139891007162e+00
    32    1.197632584069e+00
    33    1.253956394705e-01
    34    6.921637547904e-05
    35   -1.607764184755e-03
    36    1.891908641452e-03
    37   -3.250838893090e-02
    38   -1.690963986568e-03
    39    1.957881440859e-02
    40   -1.692170837735e+00
    41   -1.615507084055e-03
    42    2.283847568481e-02
    43    1.293749448772e-03
    44   -2.012381795388e-02
    45    1.698659688261e+00
    46    2.304729008047e-02
    47   -3.606447153253e-04
    48    1.066587990432e-03
Sym=X
Ene= 0.462048
Spin=Alpha
Occup=0
     1   -1.155495269271e-01
     2   -7.144400841398e-01
     3   -1.567298408013e-02
     4   -1.032761498639e-02
     5   -1.346850402091e-03
     6    6.080388816867e-02
     7    1.737414793584e-02
     8   -3.592026074621e+00
     9    1.030141136598e-01
    10   -9.900501686201e-02
    11   -9.937675959384e-04
    12    2.426211365470e+00
    13   -2.303197189437e+00
    14   -2.102651538552e-02
    15    5.365694365570e-02
    16   -3.357635488837e-03
    17   -4.643878001262e-03
    18   -7.696123135032e-04
    19    1.800390991594e-02
    20   -1.211836481460e-01
    21   -7.023124893631e-01
    22    8.721832768089e-03
    23    1.637951132297e-02
    24    1.382454000232e-03
    25   -6.094719098215e-02
    26   -1.627120238298e-02
    27    3.591488514065e+00
    28    1.051650060266e-01
    29   -1.004267960204e-01
    30   -1.199190536376e-03
    31    2.422884399697e+00
    32   -2.298432652038e+00
    33   -2.191317915358e-02
    34   -5.270567941976e-02
    35    3.271463434749e-03
    36    4.522712157719e-03
    37    6.585145856493e-04
    38   -1.903924551145e-02
    39    1.152035893533e-01
    40    7.092077076981e-01
    41    8.580229280838e-03
    42    1.625075979982e-02
    43    1.373140580055e-03
    44    1.107848864898e-01
    45    7.181652644996e-01
    46   -1.545606178026e-02
    47   -9.942197140045e-03
    48   -1.336078683752e-03
Sym=X
Ene= 0.577503
Spin=Alpha
Occup=0
     1    2.469824907049e-01
     2    4.091927425343e-02
     3   -1.846916826379e-02
     4    2.570507553128e-02
     5    6.457409984207e-04
     6   -4.449750731849e-03
     7   -1.571840187413e-01
     8   -4.662755503031e-01
     9    2.987933125139e-01
    10   -2.879319998721e-01
    11   -2.922208940854e-03
    12   -7.196849852959e-01
    13    6.962033249664e-01
    14    7.296476341581e-03
    15   -5.881319394053e-03
    16    3.876912966802e-03
    17    3.738012707804e-03
    18   -4.365199636254e-03
    19    6.023338534581e-02
    20    2.553578137496e-01
    21    2.920167386637e-02
    22   -2.642452551024e-02
    23    1.645768202060e-02
    24   -2.785826357006e-04
    25   -5.637516045767e-03
    26   -1.578824257082e-01
    27   -4.095150382112e-01
    28   -2.973687373475e-01
    29    2.852114319936e-01
    30    2.794088773328e-03
    31    7.627313241252e-01
    32   -7.331583840756e-01
    33   -7.678126775772e-03
    34   -5.864733484025e-03
    35    3.900877597795e-03
    36    3.705171596067e-03
    37   -3.772560777229e-03
    38    6.018962733052e-02
    39    2.507529248738e-01
    40    5.000776901622e-02
    41    2.722204344168e-02
    42   -1.701090257469e-02
    43    2.649080589388e-04
    44    2.490742236062e-01
    45    5.614805394229e-02
    46    1.842946359616e-02
    47   -2.587691237406e-02
    48   -6.813952482385e-04
Sym=X
Ene= 0.615152
Spin=Alpha
Occup=0
     1   -5.222631738057e-01
     2    2.000783244603e-01
     3   -6.135306824926e-02
     4    3.762276486431e-02
     5   -6.975619274995e-04
     6   -5.909194206126e-04
     7    1.090003154742e-04
     8   -1.663056866377e-02
     9   -4.040198432583e-02
    10   -3.853340381506e-02
    11   -4.236518950636e-03
    12    3.049566114747e-01
    13    2.791233892816e-01
    14    3.078716970811e-02
    15    1.884561785670e-03
    16   -7.592979290002e-03
    17    8.240068661063e-03
    18   -1.479814464770e-01
    19   -6.442761039695e-03
    20    5.081356276706e-01
    21   -2.049550516326e-01
    22    4.178434134464e-02
    23   -5.845833538362e-02
    24   -1.481646075903e-03
    25    4.155143245891e-04
    26   -1.006033817613e-03
    27    2.460326795962e-02
    28   -3.999213569805e-02
    29   -4.028743346939e-02
    30   -4.263241234783e-03
    31    3.037261882015e-01
    32    2.898320424528e-01
    33    3.187880631596e-02
    34   -1.459771211476e-03
    35    7.447449840767e-03
    36   -8.546011543668e-03
    37    1.491356338849e-01
    38    6.315381453114e-03
    39   -5.148615909272e-01
    40    2.072187077985e-01
    41    4.092506300613e-02
    42   -5.858551030990e-02
    43   -1.573253351873e-03
    44    5.218940918726e-01
    45   -2.041460115059e-01
    46   -6.147656805832e-02
    47    3.760326634861e-02
    48   -6.341639414724e-04
Sym=X
Ene= 0.689151
Spin=Alpha
Occup=0
     1    3.684809187188e-04
     2    1.144192546970e-04
     3    1.061321363865e-03
     4    1.273171785130e-03
     5   -2.100678180749e-02
     6    2.618773129991e-05
     7    2.967572431712e-04
     8   -1.958266764837e-06
     9    3.155974719503e-02
    10    3.982032811936e-02
    11   -6.703582779542e-01
    12   -2.927736854935e-02
    13   -3.598297244166e-02
    14    6.135906887104e-01
    15   -1.382857328193e-03
    16    8.267474479355e-02
    17   -7.832426236446e-02
    18   -8.615602881492e-03
    19   -1.106014387130e-03
    20    4.135520917491e-04
    21   -9.282478811058e-05
    22    9.337898504416e-04
    23    1.154225893116e-03
    24   -2.093506155287e-02
    25    1.053584669567e-05
    26    4.480124200099e-04
    27   -4.505971912941e-04
    28    3.191446395884e-02
    29    3.989060503249e-02
    30   -6.701166748074e-01
    31   -2.969214121418e-02
    32   -3.613710269048e-02
    33    6.132428957176e-01
    34    1.141462996445e-03
    35   -8.275163160422e-02
    36    7.846248027668e-02
    37    8.547298166880e-03
    38    1.193132241861e-03
    39    1.544695151057e-04
    40   -5.493266554337e-04
    41    1.019713060858e-03
    42    1.376254197068e-03
    43   -2.106460197807e-02
    44    1.087943683386e-04
    45   -3.450092122482e-04
    46    8.959067721532e-04
    47    1.260951390699e-03
    48   -2.105188560669e-02
Sym=X
Ene= 0.708904
Spin=Alpha
Occup=0
     1   -4.756714414132e-01
     2    1.583557997149e-01
     3   -8.072798020463e-02
     4   -4.426670551471e-02
     5   -6.475963306052e-03
     6   -4.781872230509e-02
     7   -3.199566158981e-01
     8    5.095418122308e-01
     9    2.036536678933e-01
    10   -1.923015790909e-01
    11   -2.213512600265e-03
    12   -9.789725366332e-02
    13    8.130019021356e-02
    14    3.868168427524e-04
    15    1.940709424768e-01
    16   -2.046764737143e-02
    17   -2.391944839465e-02
    18    3.128008458311e-03
    19   -7.744494490843e-02
    20   -4.784079731369e-01
    21    1.501978798293e-01
    22    4.096286045690e-02
    23    8.170946667329e-02
    24    6.746552714423e-03
    25   -4.671099940687e-02
    26   -3.211060032059e-01
    27    4.629516590609e-01
    28   -2.042353301949e-01
    29    1.918456344765e-01
    30    1.282373841474e-03
    31    6.501584237962e-02
    32   -5.153823965982e-02
    33    8.629037500531e-04
    34    1.936159153376e-01
    35   -2.042062282843e-02
    36   -2.383950231433e-02
    37    2.418823380166e-03
    38   -7.556893433350e-02
    39   -4.723018266690e-01
    40    1.351375248881e-01
    41   -4.066180025287e-02
    42   -8.098701263480e-02
    43   -6.756932492410e-03
    44   -4.743468432246e-01
    45    1.462503943054e-01
    46    8.051097070141e-02
    47    4.399756836884e-02
    48    6.444002641179e-03
Sym=X
Ene= 0.784543
Spin=Alpha
Occup=0
     1    5.264836053251e-01
     2   -4.689854467875e-01
     3    1.102723291946e-01
     4    2.599877634338e-02
     5    6.766873491666e-03
     6    9.096068185989e-02
     7   -2.158330552363e-01
     8   -6.419280429639e-01
     9    1.105516017553e-01
    10   -1.060750411403e-01
    11   -2.420838831772e-04
    12    3.174809814070e-01
    13   -2.928914609447e-01
    14   -3.807132957604e-03
    15   -2.062935654059e-01
    16    1.752469706882e-02
    17    2.171184806524e-02
    18   -1.087405857078e-03
    19    9.218536221258e-03
    20    5.360864857632e-01
    21   -4.683070642127e-01
    22   -2.026952318429e-02
    23   -1.122888306969e-01
    24   -7.586872641377e-03
    25   -9.138752401569e-02
    26    2.129007797211e-01
    27    6.564823171732e-01
    28    1.116162050684e-01
    29   -1.055932785867e-01
    30   -1.653325153342e-03
    31    3.097453327713e-01
    32   -2.879222097378e-01
    33   -9.385150566849e-04
    34    2.077004477142e-01
    35   -1.752446388803e-02
    36   -2.225513238559e-02
    37    1.818110439577e-03
    38   -8.862124306327e-03
    39   -5.417956840805e-01
    40    4.665919455182e-01
    41   -2.049151789982e-02
    42   -1.129011764275e-01
    43   -7.725561056998e-03
    44   -5.315416920594e-01
    45    4.648485625060e-01
    46    1.100278577414e-01
    47    2.678634237729e-02
    48    6.812476168811e-03
Sym=X
Ene= 0.807969
Spin=Alpha
Occup=0
     1    4.721537857835e-04
     2   -8.198054213714e-04
     3    1.766672676619e-03
     4    2.016839797646e-03
     5   -3.380311193849e-02
     6    9.519993303507e-05
     7   -3.165948547262e-04
     8   -8.699572092520e-05
     9    3.627749832512e-02
    10    4.485141572578e-02
    11   -7.630200598150e-01
    12   -5.300867086184e-02
    13   -6.671061288627e-02
    14    1.126986396888e+00
    15    7.353287134139e-04
    16   -6.522313983624e-02
    17    6.186949460384e-02
    18    6.846485055484e-03
    19    8.667178911868e-04
    20    4.714071131986e-04
    21   -2.435024321187e-04
    22    1.673124011152e-03
    23    1.940186173271e-03
    24   -3.448614265458e-02
    25   -8.362839806229e-05
    26    5.911776178781e-05
    27    2.341467490193e-04
    28   -3.608101037614e-02
    29   -4.581565606785e-02
    30    7.632281326585e-01
    31    5.389895244904e-02
    32    6.713886054519e-02
    33   -1.127025920762e+00
    34    1.277887670334e-03
    35   -6.523373502273e-02
    36    6.181895031269e-02
    37    6.690571338198e-03
    38    9.748581777842e-04
    39   -4.701617797233e-04
    40    3.157852641098e-04
    41   -1.562853770557e-03
    42   -2.207254518052e-03
    43    3.424977362376e-02
    44   -4.702330427010e-04
    45    8.816787226496e-04
    46   -1.373225752429e-03
    47   -2.016290354375e-03
    48    3.375545405224e-02
Sym=X
Ene= 0.862258
Spin=Alpha
Occup=0
     1    1.356215693881e-02
     2   -1.095999692014e+00
     3    1.484203371600e-01
     4    5.642073813571e-02
     5    1.036004703693e-02
     6    1.955647833608e-04
     7   -2.603698246187e-04
     8    1.676363667607e-03
     9   -4.068787926589e-01
    10   -4.289923206933e-01
    11   -4.445934224324e-02
    12    9.477750352356e-01
    13    9.987841944342e-01
    14    1.035612427204e-01
    15   -7.370864813394e-04
    16    1.174312806037e-02
    17   -1.349475701019e-02
    18    2.353222726368e-01
    19    9.465415066154e-03
    20   -1.366080048264e-02
    21    1.103327924750e+00
    22    5.035613205663e-02
    23    1.513724412824e-01
    24    1.136196076269e-02
    25   -9.369987664948e-05
    26    1.888112103755e-03
    27   -2.421573796148e-03
    28   -4.065717757964e-01
    29   -4.295746679070e-01
    30   -4.511279967154e-02
    31    9.467342485907e-01
    32    1.002426665930e+00
    33    1.051463857939e-01
    34    3.330334605354e-04
    35   -1.177598858028e-02
    36    1.360092936428e-02
    37   -2.364138481286e-01
    38   -1.021587727108e-02
    39    1.192682617472e-02
    40   -1.102360651569e+00
    41    4.893868043063e-02
    42    1.515994141582e-01
    43    1.141667968243e-02
    44   -1.142643386363e-02
    45    1.094904086241e+00
    46    1.487252696145e-01
    47    5.567490854471e-02
    48    1.031478295230e-02
Sym=X
Ene= 0.935937
Spin=Alpha
Occup=0
     1   -1.133784641103e-01
     2    1.278584235867e+00
     3   -1.811463385443e-01
     4    5.479343120157e-03
     5   -8.297157444780e-03
     6   -3.743318511526e-05
     7   -2.933057906533e-03
     8   -8.718639370558e-04
     9    4.724346105178e-01
    10    4.998025985625e-01
    11    5.198421490079e-02
    12   -1.464416687606e+00
    13   -1.541561599810e+00
    14   -1.607076608214e-01
    15   -8.483009698862e-04
    16   -5.818304851867e-03
    17    6.980306194828e-03
    18   -1.203283148506e-01
    19   -2.042147717153e-03
    20    1.172681998054e-01
    21   -1.287488831119e+00
    22    1.149824185220e-02
    23   -1.829969593213e-01
    24   -1.022754799558e-02
    25    7.204072525367e-05
    26   -8.754339852486e-04
    27    2.009760139836e-03
    28   -4.751390909667e-01
    29   -4.969474094611e-01
    30   -5.214974427428e-02
    31    1.471245997444e+00
    32    1.530723396734e+00
    33    1.609773463284e-01
    34   -6.859234120592e-04
    35   -5.920569807498e-03
    36    7.146557817313e-03
    37   -1.207046133000e-01
    38   -5.066478312172e-03
    39    1.167728492688e-01
    40   -1.280845431636e+00
    41   -1.349253618462e-02
    42    1.819672054374e-01
    43    1.023862061899e-02
    44   -1.153180452674e-01
    45    1.287071061635e+00
    46    1.820011839549e-01
    47   -5.376763386174e-03
    48    8.304800219367e-03
Sym=X
Ene= 0.972458
Spin=Alpha
Occup=0
     1   -6.451813431750e-02
     2    9.287017331228e-01
     3   -9.129614048171e-02
     4   -9.853113835278e-02
     5   -1.018941729101e-02
     6    2.533366400458e-02
     7    2.537854312149e-01
     8    5.172858455530e-01
     9    4.819879603435e-01
    10   -4.537734639465e-01
    11   -3.883234958967e-03
    12   -1.497958463396e+00
    13    1.404811224303e+00
    14    1.176842954324e-02
    15   -5.384046152843e-02
    16   -1.288378681948e-02
    17   -9.665708980621e-03
    18    1.328293237587e-02
    19   -3.016447463967e-01
    20   -6.259115451091e-02
    21    9.077509033599e-01
    22    9.533154353748e-02
    23    9.277629639378e-02
    24    1.000786473117e-02
    25   -2.514755067663e-02
    26   -2.370907366120e-01
    27   -5.450107620737e-01
    28    4.771564062944e-01
    29   -4.557647691972e-01
    30   -4.785882580000e-03
    31   -1.481186138930e+00
    32    1.418860901806e+00
    33    1.492901995574e-02
    34    5.276631673663e-02
    35    1.272179757681e-02
    36    9.736763392211e-03
    37   -1.433278060303e-02
    38    2.989624872039e-01
    39    6.220577513739e-02
    40   -9.111610635836e-01
    41    9.417929681326e-02
    42    9.308753239745e-02
    43    1.009679770383e-02
    44    6.590154641831e-02
    45   -9.081744292347e-01
    46   -8.857363063542e-02
    47   -9.782902995099e-02
    48   -9.923772099662e-03
[5D]

======= END OF MOLDEN-FORMATTED INPUT FILE =======


        *************************************************************
        *                                                           *
        *  Thank you very much for using Q-Chem.  Have a nice day.  *
        *                                                           *
        *************************************************************


