                  Welcome to Q-Chem
     A Quantum Leap Into The Future Of Chemistry


 Q-Chem 5.4 (devel), Q-Chem, Inc., Pleasanton, CA (2021)

 E. Epifanovsky,  A. T. B. Gilbert,  Xintian Feng,  Joonho Lee,  Yuezhi Mao,  
 N. Mardirossian,  P. Pokhilko,  A. White,  M. Wormit,  M. P. Coons,  
 A. L. Dempwolff,  Zhengting Gan,  D. Hait,  P. R. Horn,  L. D. Jacobson,  
 I. Kaliman,  J. Kussmann,  A. W. Lange,  Ka Un Lao,  D. S. Levine,  Jie Liu,  
 S. C. McKenzie,  A. F. Morrison,  K. Nanda,  F. Plasser,  D. R. Rehn,  
 M. L. Vidal,  Zhi-Qiang You,  Ying Zhu,  B. Alam,  B. Albrecht,  
 A. Aldossary,  E. Alguire,  J. H. Andersen,  D. Barton,  K. Begam,  A. Behn,  
 Y. A. Bernard,  E. J. Berquist,  H. Burton,  A. Carreras,  K. Carter-Fenk,  
 R. Chakraborty,  A. D. Chien,  K. D. Closser,  V. Cofer-Shabica,  
 S. Dasgupta,  Jia Deng,  M. de Wergifosse,  M. Diedenhofen,  Hainam Do,  
 S. Ehlert,  Po-Tung Fang,  S. Fatehi,  Qingguo Feng,  T. Friedhoff,  
 J. Gayvert,  Qinghui Ge,  G. Gidofalvi,  M. Goldey,  J. Gomes,  
 C. Gonzalez-Espinoza,  S. Gulania,  A. Gunina,  M. W. D. Hanson-Heine,  
 P. H. P. Harbach,  A. W. Hauser,  M. F. Herbst,  M. Hernandez Vera,  
 M. Hodecker,  Z. C. Holden,  S. Houck,  Xunkun Huang,  Kerwin Hui,  
 B. C. Huynh,  M. Ivanov,  Hyunjun Ji,  Hanjie Jiang,  B. Kaduk,  S. Kaehler,  
 K. Khistyaev,  Jaehoon Kim,  P. Klunzinger,  Z. Koczor-Benda,  
 Joong Hoon Koh,  D. Kosenkov,  L. Koulias,  T. Kowalczyk,  C. M. Krauter,  
 K. Kue,  A. Kunitsa,  T. Kus,  A. Landau,  K. V. Lawler,  D. Lefrancois,  
 S. Lehtola,  Rain Li,  Yi-Pei Li,  Jiashu Liang,  M. Liebenthal,  
 Hung-Hsuan Lin,  You-Sheng Lin,  Fenglai Liu,  Kuan-Yu Liu,  
 M. Loipersberger,  A. Luenser,  A. Manjanath,  P. Manohar,  E. Mansoor,  
 S. F. Manzer,  Shan-Ping Mao,  A. V. Marenich,  T. Markovich,  S. Mason,  
 S. A. Maurer,  P. F. McLaughlin,  M. F. S. J. Menger,  J.-M. Mewes,  
 S. A. Mewes,  P. Morgante,  J. W. Mullinax,  K. J. Oosterbaan,  G. Paran,  
 Alexander C. Paul,  Suranjan K. Paul,  F. Pavosevic,  Zheng Pei,  S. Prager,  
 E. I. Proynov,  E. Ramos,  B. Rana,  A. E. Rask,  A. Rettig,  R. M. Richard,  
 F. Rob,  E. Rossomme,  T. Scheele,  M. Scheurer,  M. Schneider,  
 N. Sergueev,  S. M. Sharada,  W. Skomorowski,  D. W. Small,  C. J. Stein,  
 Yu-Chuan Su,  E. J. Sundstrom,  Zhen Tao,  J. Thirman,  T. Tsuchimochi,  
 N. M. Tubman,  S. P. Veccham,  O. Vydrov,  J. Wenzel,  J. Witte,  A. Yamada,  
 Kun Yao,  S. Yeganeh,  S. R. Yost,  A. Zech,  Igor Ying Zhang,  Xing Zhang,  
 Yu Zhang,  D. Zuev,  A. Aspuru-Guzik,  A. T. Bell,  N. A. Besley,  
 K. B. Bravaya,  B. R. Brooks,  D. Casanova,  Jeng-Da Chai,  S. Coriani,  
 C. J. Cramer,  A. E. DePrince, III,  R. A. DiStasio Jr.,  A. Dreuw,  
 B. D. Dunietz,  T. R. Furlani,  W. A. Goddard III,  S. Grimme,  
 S. Hammes-Schiffer,  T. Head-Gordon,  W. J. Hehre,  Chao-Ping Hsu,  
 T.-C. Jagau,  Yousung Jung,  A. Klamt,  Jing Kong,  D. S. Lambrecht,  
 WanZhen Liang,  N. J. Mayhall,  C. W. McCurdy,  J. B. Neaton,  
 C. Ochsenfeld,  J. A. Parkhill,  R. Peverati,  V. A. Rassolov,  Yihan Shao,  
 L. V. Slipchenko,  T. Stauch,  R. P. Steele,  J. E. Subotnik,  
 A. J. W. Thom,  A. Tkatchenko,  D. G. Truhlar,  T. Van Voorhis,  
 T. A. Wesolowski,  K. B. Whaley,  H. L. Woodcock III,  P. M. Zimmerman,  
 S. Faraji,  P. M. W. Gill,  M. Head-Gordon,  J. M. Herbert,  A. I. Krylov

 Additional authors for Version 5.4.1: 
 S. Kotaru,  Shaozhi Li,  Xiangyuan Li,  F. Matz,  A. Molle,  Haisheng Ren,  
 Yingli Su,  Hung-Yi Tsai,  C. Utku,  Fang Wang

 Contributors to earlier versions of Q-Chem not listed above: 
 R. D. Adamson,  B. Austin,  R. Baer,  J. Baker,  G. J. O. Beran,  
 K. Brandhorst,  S. T. Brown,  E. F. C. Byrd,  A. K. Chakraborty,  
 G. K. L. Chan,  Chun-Min Chang,  Yunqing Chen,  C.-L. Cheng,  
 Siu Hung Chien,  D. M. Chipman,  D. L. Crittenden,  H. Dachsel,  
 R. J. Doerksen,  A. D. Dutoi,  R. G. Edgar,  J. Fosso-Tande,  
 L. Fusti-Molnar,  D. Ghosh,  A. Ghysels,  A. Golubeva-Zadorozhnaya,  
 J. Gonthier,  M. S. Gordon,  S. R. Gwaltney,  G. Hawkins,  J. E. Herr,  
 A. Heyden,  S. Hirata,  E. G. Hohenstein,  G. Kedziora,  F. J. Keil,  
 C. Kelley,  Jihan Kim,  R. A. King,  R. Z. Khaliullin,  P. P. Korambath,  
 W. Kurlancheek,  A. Laurent,  A. M. Lee,  M. S. Lee,  S. V. Levchenko,  
 Ching Yeh Lin,  D. Liotard,  E. Livshits,  R. C. Lochan,  I. Lotan,  
 L. A. Martinez-Martinez,  P. E. Maslen,  N. Nair,  D. P. O'Neill,  
 D. Neuhauser,  E. Neuscamman,  C. M. Oana,  R. Olivares-Amaya,  R. Olson,  
 T. M. Perrine,  B. Peters,  P. A. Pieniazek,  A. Prociuk,  Y. M. Rhee,  
 J. Ritchie,  M. A. Rohrdanz,  E. Rosta,  N. J. Russ,  H. F. Schaefer III,  
 M. W. Schmidt,  N. E. Schultz,  S. Sharma,  N. Shenvi,  C. D. Sherrill,  
 A. C. Simmonett,  A. Sodt,  T. Stein,  D. Stuck,  K. S. Thanthiriwatte,  
 V. Vanovschi,  L. Vogt,  Tao Wang,  A. Warshel,  M. A. Watson,  
 C. F. Williams,  Q. Wu,  X. Xu,  Jun Yang,  W. Zhang,  Yan Zhao

 Please cite Q-Chem as follows:
 Y. Shao et al., Mol. Phys. 113, 184-215 (2015)
 DOI: 10.1080/00268976.2014.952696

 Q-Chem 5.4.1 for Intel X86 EM64T Linux

 Parts of Q-Chem use Armadillo 9.800.1 (Horizon Scraper).
 http://arma.sourceforge.net/

 Q-Chem begins on Thu Nov 17 15:39:40 2022  

 Host: cpu196.baobab
0

     Scratch files written to /scratch/fum/qchem12631//
 Processing $rem in /home/share/wesolowski/qc5.aug2021.FDE/config/preferences:
 Processing $rem in /home/fum/.qchemrc:

 Checking the input file for inconsistencies... 	...done.

--------------------------------------------------------------
User input:
--------------------------------------------------------------
$comment
generated from CCJob.Templates
$end

$rem
sym_ignore = true
method = adc(2)
ee_states = 10
basis = cc-pVDZ
mem_static = 1024
mem_total = 40000
adc_davidson_maxiter = 900
adc_davidson_conv = 6
adc_print = 3
adc_prop_es = true
adc_prop_es2es = true
adc_prop_tpa = true
molden_format = True
state_analysis = true
print_orbitals = 15
gen_scfman = false
fde_export_density = true
fde_details = 3
$end

$molecule
0 1
H -0.0348278765 -0.2442097827 0.0636489606
C -1.0765972949 -0.5242748755 -0.0023551776
H -1.303264467 -1.5767591607 -0.0757276926
C -2.043634118 0.3926884087 0.0061254933
H -1.8137616575 1.4459188338 0.0804456828
H -3.085977293 0.114931858 -0.0593381042                     
$end
--------------------------------------------------------------
 ----------------------------------------------------------------
             Standard Nuclear Orientation (Angstroms)
    I     Atom           X                Y                Z
 ----------------------------------------------------------------
    1      H      -0.0348278765    -0.2442097827     0.0636489606
    2      C      -1.0765972949    -0.5242748755    -0.0023551776
    3      H      -1.3032644670    -1.5767591607    -0.0757276926
    4      C      -2.0436341180     0.3926884087     0.0061254933
    5      H      -1.8137616575     1.4459188338     0.0804456828
    6      H      -3.0859772930     0.1149318580    -0.0593381042
 ----------------------------------------------------------------
 Nuclear Repulsion Energy =          33.42731778 hartrees
 There are        8 alpha and        8 beta electrons
 Requested basis set is cc-pVDZ
 There are 24 shells and 48 basis functions
 Total memory of 40000 MB is distributed as follows: 
   MEM_STATIC is set to 1024 MB
   QALLOC/CCMAN JOB total memory use is  38976 MB
 Warning: actual memory use might exceed 40000 MB

 Total QAlloc Memory Limit  40000 MB
 Mega-Array Size      1001 MB
 MEM_STATIC part      1024 MB

                       Distance Matrix (Angstroms)
             H (  1)   C (  2)   H (  3)   C (  4)   H (  5)
   C (  2)  1.080776
   H (  3)  1.845005  1.079113
   C (  4)  2.108139  1.332687  2.105605
   H (  5)  2.453859  2.105215  3.069459  1.080583
   H (  6)  3.074674  2.109370  2.457672  1.080700  1.846510

 A cutoff of  1.0D-11 yielded    300 shell pairs
 There are      1220 function pairs (      1329 Cartesian)
 Smallest overlap matrix eigenvalue = 4.80E-03

 Scale SEOQF with 1.000000e-01/1.000000e-01/1.000000e+00

 Standard Electronic Orientation quadrupole field applied
 Nucleus-field energy     =     0.0000000022 hartrees
 Guess from superposition of atomic densities
 Warning:  Energy on first SCF cycle will be non-variational
 SAD guess density has 16.000000 electrons
 A restricted Hartree-Fock SCF calculation will be
 performed using Pulay DIIS extrapolation
 SCF converges when DIIS error is below 1.0E-08
 using 10 threads for integral computing
 -------------------------------------------------------
 OpenMP Integral computing Module                
 Release: version 1.0, May 2013, Q-Chem Inc. Pittsburgh 
 -------------------------------------------------------
 ---------------------------------------
  Cycle       Energy         DIIS Error
 ---------------------------------------
    1     -78.4400149962      1.01E-01
    2     -78.0177009358      7.21E-03
    3     -78.0383349334      1.84E-03
    4     -78.0398176974      5.72E-04
    5     -78.0399391146      5.80E-05
    6     -78.0399409927      9.26E-06
    7     -78.0399410532      2.07E-06
    8     -78.0399410559      6.40E-07
    9     -78.0399410561      1.03E-07
   10     -78.0399410561      1.19E-08
   11     -78.0399410561      3.25E-09 Convergence criterion met
 ---------------------------------------
 SCF time:  CPU 1.56 s  wall 2.29 s
 SCF   energy in the final basis set = -78.03994106
 Total energy in the final basis set = -78.03994106
Exporting Density Matrix to file 'Densmat_SCF.txt'.
Export successful
================================================================================
|                                                                              |
|                                 A D C  M A N                                 |
|                                                                              |
 ------------------------------------------------------------------------------ 
|                                                                              |
| Components:                                                                  |
|                                                                              |
| - libvmm - 1.3-trunk                                                         |
|   Authors:                                                                   |
|   Evgeny Epifanovsky, Ilya Kaliman                                           |
|                                                                              |
| - libtensor - 2.5-trunk                                                      |
|   Authors:                                                                   |
|   Evgeny Epifanovsky, Michael Wormit, Dmitry Zuev, Sam Manzer,               |
|   Ilya Kaliman                                                               |
|                                                                              |
| - libwfa - 1.1-trunk                                                         |
|   Authors:                                                                   |
|   Felix Plasser, Stefanie Mewes (Baeppler), Benjamin Thomitzni,              |
|   Michael Wormit, Feng Chen, Anna I. Krylov, Pavel Pokhilko                  |
|                                                                              |
| - libadc - 1.1-trunk                                                         |
|   Authors:                                                                   |
|   Michael Wormit, Adrian L. Dempwolff, Philipp H. P. Harbach,                |
|   Caroline Krauter, Dirk Rehn, Matthias Schneider, Jan Wenzel                |
|                                                                              |
| - adcman - 2.6-trunk                                                         |
|   Authors:                                                                   |
|   Michael Wormit, Adrian L. Dempwolff, Philipp H. P. Harbach,                |
|   Caroline Krauter, Daniel Lefrancois, Jan-Michael Mewes, Dirk Rehn,         |
|   Matthias Schneider, Jan Wenzel, Andreas Dreuw                              |
|                                                                              |
| Authors of earlier versions of ADCMAN:                                       |
| Andreas Dreuw, Jan Hendrik Starcke, Dirk Rehn, Michael Wormit                |
|                                                                              |
================================================================================

 Created directory /scratch/fum/qchem12631/plots
  Import QC data ...  CPU 0.00 s  wall 0.00 s

 Alpha MOs, Restricted
 -- Occupied --                  
-11.235 -11.233  -1.032  -0.790  -0.641  -0.583  -0.504  -0.374
  1 A     2 A     3 A     4 A     5 A     6 A     7 A     8 A                  
 -- Virtual --                   
  0.168   0.204   0.233   0.239   0.303   0.463   0.578   0.614
  9 A    10 A    11 A    12 A    13 A    14 A    15 A    16 A                  
  0.689   0.710   0.785   0.808   0.862   0.936   0.973   1.010
 17 A    18 A    19 A    20 A    21 A    22 A    23 A    24 A                  
  1.131   1.235   1.252   1.265   1.294   1.602   1.731   1.752
 25 A    26 A    27 A    28 A    29 A    30 A    31 A    32 A                  
  1.819   1.858   1.867   1.920   1.976   1.980   2.224   2.257
 33 A    34 A    35 A    36 A    37 A    38 A    39 A    40 A                  
  2.375   2.454   2.510   2.638   2.721   2.824   3.138   3.402
 41 A    42 A    43 A    44 A    45 A    46 A    47 A    48 A                  

 Beta MOs, Restricted
 -- Occupied --                  
-11.235 -11.233  -1.032  -0.790  -0.641  -0.583  -0.504  -0.374
  1 A     2 A     3 A     4 A     5 A     6 A     7 A     8 A                  
 -- Virtual --                   
  0.168   0.204   0.233   0.239   0.303   0.463   0.578   0.614
  9 A    10 A    11 A    12 A    13 A    14 A    15 A    16 A                  
  0.689   0.710   0.785   0.808   0.862   0.936   0.973   1.010
 17 A    18 A    19 A    20 A    21 A    22 A    23 A    24 A                  
  1.131   1.235   1.252   1.265   1.294   1.602   1.731   1.752
 25 A    26 A    27 A    28 A    29 A    30 A    31 A    32 A                  
  1.819   1.858   1.867   1.920   1.976   1.980   2.224   2.257
 33 A    34 A    35 A    36 A    37 A    38 A    39 A    40 A                  
  2.375   2.454   2.510   2.638   2.721   2.824   3.138   3.402
 41 A    42 A    43 A    44 A    45 A    46 A    47 A    48 A                  
  Import AO data ...  CPU 0.00 s  wall 0.01 s
  Using point group: C1
  Irreducible representations in point group: A
  Molecular orbitals: 
  Occupied MOs:
  Block   0:   1 (  A) A   2 (  A) A   3 (  A) A   4 (  A) A   5 (  A) A
                  -11.24      -11.23      -1.032     -0.7904     -0.6408
               6 (  A) A   7 (  A) A   8 (  A) A
                 -0.5826     -0.5045      -0.374
  Block   1:   1 (  A) B   2 (  A) B   3 (  A) B   4 (  A) B   5 (  A) B
                  -11.24      -11.23      -1.032     -0.7904     -0.6408
               6 (  A) B   7 (  A) B   8 (  A) B
                 -0.5826     -0.5045      -0.374
  Virtual MOs:
  Block   0:   9 (  A) A  10 (  A) A  11 (  A) A  12 (  A) A  13 (  A) A
                  0.1683      0.2038      0.2332      0.2393      0.3033
              14 (  A) A  15 (  A) A  16 (  A) A  17 (  A) A  18 (  A) A
                  0.4626       0.578      0.6141      0.6891      0.7096
              19 (  A) A  20 (  A) A  21 (  A) A  22 (  A) A
                  0.7846       0.808      0.8623      0.9361
  Block   1:  23 (  A) A  24 (  A) A  25 (  A) A  26 (  A) A  27 (  A) A
                  0.9728        1.01       1.131       1.235       1.252
              28 (  A) A  29 (  A) A  30 (  A) A  31 (  A) A  32 (  A) A
                   1.265       1.294       1.602       1.731       1.752
              33 (  A) A  34 (  A) A  35 (  A) A  36 (  A) A
                   1.819       1.858       1.867        1.92
  Block   2:  37 (  A) A  38 (  A) A  39 (  A) A  40 (  A) A  41 (  A) A
                   1.976        1.98       2.224       2.257       2.375
              42 (  A) A  43 (  A) A  44 (  A) A  45 (  A) A  46 (  A) A
                   2.454        2.51       2.638       2.721       2.824
              47 (  A) A  48 (  A) A
                   3.138       3.402
  Block   3:   9 (  A) B  10 (  A) B  11 (  A) B  12 (  A) B  13 (  A) B
                  0.1683      0.2038      0.2332      0.2393      0.3033
              14 (  A) B  15 (  A) B  16 (  A) B  17 (  A) B  18 (  A) B
                  0.4626       0.578      0.6141      0.6891      0.7096
              19 (  A) B  20 (  A) B  21 (  A) B  22 (  A) B
                  0.7846       0.808      0.8623      0.9361
  Block   4:  23 (  A) B  24 (  A) B  25 (  A) B  26 (  A) B  27 (  A) B
                  0.9728        1.01       1.131       1.235       1.252
              28 (  A) B  29 (  A) B  30 (  A) B  31 (  A) B  32 (  A) B
                   1.265       1.294       1.602       1.731       1.752
              33 (  A) B  34 (  A) B  35 (  A) B  36 (  A) B
                   1.819       1.858       1.867        1.92
  Block   5:  37 (  A) B  38 (  A) B  39 (  A) B  40 (  A) B  41 (  A) B
                   1.976        1.98       2.224       2.257       2.375
              42 (  A) B  43 (  A) B  44 (  A) B  45 (  A) B  46 (  A) B
                   2.454        2.51       2.638       2.721       2.824
              47 (  A) B  48 (  A) B
                   3.138       3.402
  Import MO data ...  CPU 0.01 s  wall 0.02 s
  Import HF data ...  CPU 0.08 s  wall 0.04 s
  Import 2e integrals ...  CPU 0.71 s  wall 0.13 s

--------------------------------------------------------------------------------
                                   HF Summary                                   
--------------------------------------------------------------------------------
  Energy:                                                  -78.0399410561 a.u.
  Dip. moment [a.u.]:                  [   0.000054,   -0.000289,    0.000310]
  Total dipole [Debye]:                                               0.001086
  <r^2> [a.u.]:                        [ 175.235014,   34.908943,   11.623596]
  Total <r^2> [a.u.]:                                               221.767552
--------------------------------------------------------------------------------
  HF properties ...  CPU 0.01 s  wall 0.01 s
  MP(1) calculation ...  CPU 0.01 s  wall 0.01 s
  N^6 prerequesite intermediates ...  CPU 0.51 s  wall 0.08 s
  Difference density matrix of state mp2_gs printed to ASCII file 'State_mp2_gs_Difference.txt'
Exporting MP density matrix to file 'Densmat_MP.txt'.
Export successful
  Total density matrix of state mp2_gs printed to ASCII file 'State_mp2_gs_Total.txt'
Exporting MP density matrix to file 'Densmat_MP.txt'.
Export successful

--------------------------------------------------------------------------------
                                 MP(2) Summary                                  
--------------------------------------------------------------------------------
  MP energy contribution:                                   -0.2796663029 a.u.
  Total energy:                                            -78.3196073589 a.u.
  Dip. moment [a.u.]:                  [   0.000116,   -0.000208,    0.000314]
  Total dipole [Debye]:                                               0.001001
  <r^2> [a.u.]:                        [ 175.281590,   34.950148,   11.455607]
  Total <r^2> [a.u.]:                                               221.687345

  Density matrix analysis:
  ------------------------
  NOs
    Occupation of frontier NOs:
       0.0453   1.9383
    Number of electrons: 16.000000
    Number of unpaired electrons: n_u =  0.40328, n_u,nl =  0.04505
    NO participation ratio (PR_NO): 13.855571
  
  
  Mulliken Population Analysis
  Atom      Charge (e)              h+              e-           Del q
  --------------------------------------------------------------------
   1 H        0.050547        0.014091       -0.011185        0.002906
   2 C       -0.100384        0.092961       -0.098832       -0.005871
   3 H        0.050015        0.014126       -0.011181        0.002945
   4 C       -0.101168        0.093083       -0.098870       -0.005787
   5 H        0.050329        0.014107       -0.011185        0.002922
   6 H        0.050661        0.014077       -0.011192        0.002885
  --------------------------------------------------------------------
  Sum:        0.000000        0.242445       -0.242445       -0.000000
  
  Multipole moment analysis of the density matrix
    Molecular charge:                      0.000000
    Number of electrons:                   16.000000
      Center of electronic charge [Ang]: [ -1.559955,  -0.065595,   0.001968]
    Total nuclear charge:                  16.000000
      Center of nuclear charge [Ang]:    [ -1.559951,  -0.065602,   0.001978]
    Dipole moment [D]:                     0.001001
      Cartesian components [D]:          [  0.000295,  -0.000529,   0.000798]
    RMS size of the density [Ang]:         1.200899
      Cartesian components [Ang]:        [  0.796417,   0.779350,   0.447761]
  
  Exciton analysis of the difference density matrix
    <r_h> [Ang]:                  [ -1.559976,  -0.065317,   0.001931]
    <r_e> [Ang]:                  [ -1.560111,  -0.065493,   0.001923]
    |<r_e - r_h>| [Ang]:            0.000222
    Hole size [Ang]:                1.393675
      Cartesian components [Ang]: [  0.847035,   0.833773,   0.727793]
    Electron size [Ang]:            1.359869
      Cartesian components [Ang]: [  0.877978,   0.861828,   0.579355]
--------------------------------------------------------------------------------
  MP(2) calculation ...  CPU 0.26 s  wall 0.14 s
  Start ADC(2)-s ...  CPU 0.01 s  wall 0.01 s
  ADC(2) intermediates ...  CPU 0.02 s  wall 0.01 s
  Starting Davidson for singlet states of irrep A ... 
--------------------------------------------------------------------------------
   It NVec Conv  Avg. Norm  Max. Norm  Conv. states           Remark
--------------------------------------------------------------------------------
        10    0  1.330e-01  4.690e-01  0.4122 n n n n n n n n Guess.
    1   20    0  2.301e-02  1.112e-01  0.3262 n n n n n n n n 
    2   30    0  5.801e-03  2.448e-02  0.3215 n n n n n n n n 
    3   40    0  1.775e-03  1.015e-02  0.3211 n n n n n n n n 
    4   50    0  5.545e-04  3.649e-03  0.3211 n n n n n n n n 
    5   20    0  2.658e-04  1.886e-03  0.3211 n n n n n n n n Subspace collapsed.
    6   30    0  1.290e-04  1.002e-03  0.3211 n n n n n n n n 
    7   40    0  7.116e-05  5.555e-04  0.3211 n n n n n n n n 
    8   50    0  5.883e-05  4.895e-04  0.3211 n n n n n n n n 
    9   20    2  3.790e-05  3.094e-04  0.3211 n y n y n n n n Subspace collapsed.
   10   30    4  3.941e-05  3.466e-04  0.3211 n y y y n y n n 
   11   40    5  4.299e-05  4.215e-04  0.3211 n y y y y y n n 
   12   50    6  3.321e-05  3.303e-04  0.3211 y y y y y y n n 
   13   20    6  1.574e-05  1.564e-04  0.3211 y y y y y y n n Subspace collapsed.
   14   30    6  9.825e-06  9.723e-05  0.3211 y y y y y y n n 
   15   40    7  4.490e-06  4.368e-05  0.3211 y y y y y y n y 
   16   50    7  6.249e-06  6.228e-05  0.3211 y y y y y y n y 
   17   20    8  2.780e-06  2.770e-05  0.3211 y y y y y y n y Subspace collapsed.
   18   30    7  5.648e-06  5.644e-05  0.3211 y y y y y y n y 
   19   40    7  5.775e-06  5.773e-05  0.3211 y y y y y y n y 
   20   50    9  4.813e-06  4.812e-05  0.3211 y y y y y y y y 
   21   20    9  2.243e-06  2.242e-05  0.3211 y y y y y y y y Subspace collapsed.
   22   30    9  1.622e-06  1.622e-05  0.3211 y y y y y y y y 
   23   31    9  1.621e-06  1.621e-05  0.3211 y y y y y y y y 
   24   32    9  1.454e-06  1.454e-05  0.3211 y y y y y y y y 
   25   33    9  1.466e-06  1.466e-05  0.3211 y y y y y y y y 
   26   34    9  1.450e-06  1.449e-05  0.3211 y y y y y y y y 
   27   41    9  7.805e-07  7.803e-06  0.3211 y y y y y y y y 
   28   47    9  7.943e-07  7.942e-06  0.3211 y y y y y y y y 
   29   50    9  7.897e-07  7.897e-06  0.3211 y y y y y y y y 
   30   11    9  7.896e-07  7.895e-06  0.3211 y y y y y y y y Subspace collapsed.
   31   16    9  4.908e-07  4.908e-06  0.3211 y y y y y y y y 
   32   21    9  7.661e-07  7.661e-06  0.3211 y y y y y y y y 
   33   25    9  8.975e-07  8.975e-06  0.3211 y y y y y y y y 
   34   29    9  7.575e-07  7.575e-06  0.3211 y y y y y y y y 
   35   33    9  4.154e-07  4.154e-06  0.3211 y y y y y y y y 
   36   37    9  1.911e-07  1.911e-06  0.3211 y y y y y y y y 
   37   41    9  1.117e-07  1.117e-06  0.3211 y y y y y y y y 
   38   45   10  6.098e-08  6.098e-07  0.3211 y y y y y y y y Converged.
--------------------------------------------------------------------------------
  Davidson Summary: 
 ------------------------------------------------------------
  State  0: excitation energy =   0.3211 a.u.   (converged)
  State  1: excitation energy =   0.3326 a.u.   (converged)
  State  2: excitation energy =   0.3373 a.u.   (converged)
  State  3: excitation energy =   0.3615 a.u.   (converged)
  State  4: excitation energy =   0.3755 a.u.   (converged)
  State  5: excitation energy =   0.3874 a.u.   (converged)
  State  6: excitation energy =   0.4248 a.u.   (converged)
  State  7: excitation energy =   0.4469 a.u.   (converged)
  State  8: excitation energy =   0.4562 a.u.   (converged)
  State  9: excitation energy =   0.4647 a.u.   (converged)
 ------------------------------------------------------------

  Singlet states of irrep A ...  CPU 88.86 s  wall 30.80 s
  TDMs ...  CPU 0.66 s  wall 0.27 s
  SDMs ...  CPU 1.57 s  wall 0.53 s
  Starting TPA DIIS iterations ... 
------------------------------------ 
   It     Res. Norm  Remark
------------------------------------
                       Guess.
    1     4.406e+00  
    2     5.843e+00  
    3     1.079e+00  
    4     2.570e-01  
    5     6.571e-02  
    6     2.681e-02  
    7     8.258e-03  
    8     1.443e-03  
    9     5.347e-04  
   10     9.021e-05  
   11     2.827e-05  
   12     4.390e-06  
   13     1.413e-06  
   14     4.264e-07  Converged.
   ... Converged in 14 steps (norm: 4.26363e-07)
------------------------------------
  Starting TPA DIIS iterations ... 
------------------------------------ 
   It     Res. Norm  Remark
------------------------------------
                       Guess.
    1     4.188e+00  
    2     5.545e+00  
    3     1.028e+00  
    4     2.549e-01  
    5     6.530e-02  
    6     2.669e-02  
    7     8.116e-03  
    8     1.450e-03  
    9     5.368e-04  
   10     8.966e-05  
   11     2.830e-05  
   12     4.331e-06  
   13     1.423e-06  
   14     4.200e-07  Converged.
   ... Converged in 14 steps (norm: 4.2002e-07)
------------------------------------
  Starting TPA DIIS iterations ... 
------------------------------------ 
   It     Res. Norm  Remark
------------------------------------
                       Guess.
    1     6.866e-01  
    2     4.825e-01  
    3     1.705e-01  
    4     5.957e-02  
    5     1.828e-02  
    6     6.623e-03  
    7     1.030e-03  
    8     4.453e-04  
    9     1.232e-04  
   10     2.989e-05  
   11     4.983e-06  
   12     1.540e-06  
   13     8.219e-07  Converged.
   ... Converged in 13 steps (norm: 8.21869e-07)
------------------------------------
  Starting TPA DIIS iterations ... 
------------------------------------ 
   It     Res. Norm  Remark
------------------------------------
                       Guess.
    1     4.689e+00  
    2     6.352e+00  
    3     1.159e+00  
    4     2.852e-01  
    5     7.390e-02  
    6     3.041e-02  
    7     9.349e-03  
    8     1.631e-03  
    9     6.088e-04  
   10     1.033e-04  
   11     3.270e-05  
   12     5.118e-06  
   13     1.658e-06  
   14     4.994e-07  Converged.
   ... Converged in 14 steps (norm: 4.99402e-07)
------------------------------------
  Starting TPA DIIS iterations ... 
------------------------------------ 
   It     Res. Norm  Remark
------------------------------------
                       Guess.
    1     4.456e+00  
    2     6.027e+00  
    3     1.104e+00  
    4     2.826e-01  
    5     7.346e-02  
    6     3.030e-02  
    7     9.190e-03  
    8     1.640e-03  
    9     6.113e-04  
   10     1.027e-04  
   11     3.271e-05  
   12     5.045e-06  
   13     1.670e-06  
   14     4.920e-07  Converged.
   ... Converged in 14 steps (norm: 4.91972e-07)
------------------------------------
  Starting TPA DIIS iterations ... 
------------------------------------ 
   It     Res. Norm  Remark
------------------------------------
                       Guess.
    1     6.985e-01  
    2     4.997e-01  
    3     1.803e-01  
    4     6.727e-02  
    5     1.968e-02  
    6     7.227e-03  
    7     1.161e-03  
    8     5.237e-04  
    9     1.486e-04  
   10     3.420e-05  
   11     5.634e-06  
   12     1.810e-06  
   13     1.029e-06  
   14     3.736e-07  Converged.
   ... Converged in 14 steps (norm: 3.73605e-07)
------------------------------------
  Starting TPA DIIS iterations ... 
------------------------------------ 
   It     Res. Norm  Remark
------------------------------------
                       Guess.
    1     4.816e+00  
    2     6.583e+00  
    3     1.194e+00  
    4     2.982e-01  
    5     7.769e-02  
    6     3.208e-02  
    7     9.853e-03  
    8     1.718e-03  
    9     6.432e-04  
   10     1.094e-04  
   11     3.477e-05  
   12     5.460e-06  
   13     1.774e-06  
   14     5.337e-07  Converged.
   ... Converged in 14 steps (norm: 5.33746e-07)
------------------------------------
  Starting TPA DIIS iterations ... 
------------------------------------ 
   It     Res. Norm  Remark
------------------------------------
                       Guess.
    1     4.576e+00  
    2     6.246e+00  
    3     1.138e+00  
    4     2.954e-01  
    5     7.723e-02  
    6     3.197e-02  
    7     9.686e-03  
    8     1.728e-03  
    9     6.459e-04  
   10     1.087e-04  
   11     3.478e-05  
   12     5.381e-06  
   13     1.787e-06  
   14     5.258e-07  Converged.
   ... Converged in 14 steps (norm: 5.25845e-07)
------------------------------------
  Starting TPA DIIS iterations ... 
------------------------------------ 
   It     Res. Norm  Remark
------------------------------------
                       Guess.
    1     7.035e-01  
    2     5.071e-01  
    3     1.846e-01  
    4     7.088e-02  
    5     2.029e-02  
    6     7.506e-03  
    7     1.223e-03  
    8     5.610e-04  
    9     1.607e-04  
   10     3.581e-05  
   11     5.928e-06  
   12     1.940e-06  
   13     1.133e-06  
   14     4.050e-07  Converged.
   ... Converged in 14 steps (norm: 4.05011e-07)
------------------------------------
  Starting TPA DIIS iterations ... 
------------------------------------ 
   It     Res. Norm  Remark
------------------------------------
                       Guess.
    1     5.552e+00  
    2     7.956e+00  
    3     1.401e+00  
    4     3.780e-01  
    5     1.009e-01  
    6     4.243e-02  
    7     1.295e-02  
    8     2.248e-03  
    9     8.562e-04  
   10     1.471e-04  
   11     4.791e-05  
   12     7.625e-06  
   13     2.526e-06  
   14     7.529e-07  Converged.
   ... Converged in 14 steps (norm: 7.52903e-07)
------------------------------------
  Starting TPA DIIS iterations ... 
------------------------------------ 
   It     Res. Norm  Remark
------------------------------------
                       Guess.
    1     5.274e+00  
    2     7.548e+00  
    3     1.334e+00  
    4     3.737e-01  
    5     1.004e-01  
    6     4.235e-02  
    7     1.274e-02  
    8     2.264e-03  
    9     8.599e-04  
   10     1.462e-04  
   11     4.783e-05  
   12     7.504e-06  
   13     2.543e-06  
   14     7.427e-07  Converged.
   ... Converged in 14 steps (norm: 7.42744e-07)
------------------------------------
  Starting TPA DIIS iterations ... 
------------------------------------ 
   It     Res. Norm  Remark
------------------------------------
                       Guess.
    1     7.301e-01  
    2     5.482e-01  
    3     2.089e-01  
    4     9.375e-02  
    5     2.381e-02  
    6     9.224e-03  
    7     1.617e-03  
    8     7.961e-04  
    9     2.355e-04  
   10     4.131e-05  
   11     7.692e-06  
   12     2.787e-06  
   13     1.872e-06  
   14     6.164e-07  Converged.
   ... Converged in 14 steps (norm: 6.16368e-07)
------------------------------------
  Starting TPA DIIS iterations ... 
------------------------------------ 
   It     Res. Norm  Remark
------------------------------------
                       Guess.
    1     6.068e+00  
    2     8.953e+00  
    3     1.545e+00  
    4     4.382e-01  
    5     1.184e-01  
    6     5.033e-02  
    7     1.529e-02  
    8     2.647e-03  
    9     1.018e-03  
   10     1.759e-04  
   11     5.814e-05  
   12     9.310e-06  
   13     3.126e-06  
   14     9.271e-07  Converged.
   ... Converged in 14 steps (norm: 9.27123e-07)
------------------------------------
  Starting TPA DIIS iterations ... 
------------------------------------ 
   It     Res. Norm  Remark
------------------------------------
                       Guess.
    1     5.763e+00  
    2     8.493e+00  
    3     1.471e+00  
    4     4.327e-01  
    5     1.178e-01  
    6     5.028e-02  
    7     1.504e-02  
    8     2.667e-03  
    9     1.023e-03  
   10     1.749e-04  
   11     5.797e-05  
   12     9.156e-06  
   13     3.145e-06  
   14     9.162e-07  Converged.
   ... Converged in 14 steps (norm: 9.16176e-07)
------------------------------------
  Starting TPA DIIS iterations ... 
------------------------------------ 
   It     Res. Norm  Remark
------------------------------------
                       Guess.
    1     7.465e-01  
    2     5.750e-01  
    3     2.253e-01  
    4     1.116e-01  
    5     2.631e-02  
    6     1.053e-02  
    7     1.931e-03  
    8     9.682e-04  
    9     2.893e-04  
   10     4.246e-05  
   11     9.023e-06  
   12     3.472e-06  
   13     2.529e-06  
   14     7.954e-07  Converged.
   ... Converged in 14 steps (norm: 7.95379e-07)
------------------------------------
  Starting TPA DIIS iterations ... 
------------------------------------ 
   It     Res. Norm  Remark
------------------------------------
                       Guess.
    1     6.570e+00  
    2     9.947e+00  
    3     1.683e+00  
    4     4.998e-01  
    5     1.363e-01  
    6     5.848e-02  
    7     1.767e-02  
    8     3.053e-03  
    9     1.186e-03  
   10     2.055e-04  
   11     6.879e-05  
   12     1.106e-05  
   13     3.760e-06  
   14     1.113e-06  
   15     3.751e-07  Converged.
   ... Converged in 15 steps (norm: 3.75107e-07)
------------------------------------
  Starting TPA DIIS iterations ... 
------------------------------------ 
   It     Res. Norm  Remark
------------------------------------
                       Guess.
    1     6.238e+00  
    2     9.436e+00  
    3     1.603e+00  
    4     4.929e-01  
    5     1.356e-01  
    6     5.846e-02  
    7     1.739e-02  
    8     3.078e-03  
    9     1.191e-03  
   10     2.043e-04  
   11     6.851e-05  
   12     1.087e-05  
   13     3.780e-06  
   14     1.103e-06  
   15     3.570e-07  Converged.
   ... Converged in 15 steps (norm: 3.57034e-07)
------------------------------------
  Starting TPA DIIS iterations ... 
------------------------------------ 
   It     Res. Norm  Remark
------------------------------------
                       Guess.
    1     7.611e-01  
    2     5.999e-01  
    3     2.409e-01  
    4     1.303e-01  
    5     2.880e-02  
    6     1.187e-02  
    7     2.264e-03  
    8     1.130e-03  
    9     3.406e-04  
   10     4.290e-05  
   11     1.042e-05  
   12     4.205e-06  
   13     3.272e-06  
   14     9.951e-07  Converged.
   ... Converged in 14 steps (norm: 9.95089e-07)
------------------------------------
  Starting TPA DIIS iterations ... 
------------------------------------ 
   It     Res. Norm  Remark
------------------------------------
                       Guess.
    1     8.679e+00  
    2     1.436e+01  
    3     2.257e+00  
    4     7.859e-01  
    5     2.196e-01  
    6     9.718e-02  
    7     2.879e-02  
    8     4.931e-03  
    9     1.976e-03  
   10     3.454e-04  
   11     1.189e-04  
   12     1.938e-05  
   13     6.787e-06  
   14     2.097e-06  
   15     7.188e-07  Converged.
   ... Converged in 15 steps (norm: 7.18798e-07)
------------------------------------
  Starting TPA DIIS iterations ... 
------------------------------------ 
   It     Res. Norm  Remark
------------------------------------
                       Guess.
    1     8.237e+00  
    2     1.362e+01  
    3     2.148e+00  
    4     7.718e-01  
    5     2.186e-01  
    6     9.736e-02  
    7     2.834e-02  
    8     4.980e-03  
    9     1.984e-03  
   10     3.432e-04  
   11     1.181e-04  
   12     1.904e-05  
   13     6.801e-06  
   14     2.098e-06  
   15     6.580e-07  Converged.
   ... Converged in 15 steps (norm: 6.57985e-07)
------------------------------------
  Starting TPA DIIS iterations ... 
------------------------------------ 
   It     Res. Norm  Remark
------------------------------------
                       Guess.
    1     8.110e-01  
    2     6.933e-01  
    3     3.024e-01  
    4     2.188e-01  
    5     4.010e-02  
    6     1.805e-02  
    7     3.922e-03  
    8     1.643e-03  
    9     5.371e-04  
   10     5.150e-05  
   11     1.743e-05  
   12     7.859e-06  
   13     7.420e-06  
   14     2.134e-06  
   15     7.650e-07  Converged.
   ... Converged in 15 steps (norm: 7.65025e-07)
------------------------------------
  Starting TPA DIIS iterations ... 
------------------------------------ 
   It     Res. Norm  Remark
------------------------------------
                       Guess.
    1     1.048e+01  
    2     1.841e+01  
    3     2.734e+00  
    4     1.057e+00  
    5     2.992e-01  
    6     1.351e-01  
    7     3.943e-02  
    8     6.715e-03  
    9     2.747e-03  
   10     4.804e-04  
   11     1.656e-04  
   12     2.748e-05  
   13     9.625e-06  
   14     3.205e-06  
   15     1.113e-06  
   16     3.274e-07  Converged.
   ... Converged in 16 steps (norm: 3.27427e-07)
------------------------------------
  Starting TPA DIIS iterations ... 
------------------------------------ 
   It     Res. Norm  Remark
------------------------------------
                       Guess.
    1     9.942e+00  
    2     1.746e+01  
    3     2.600e+00  
    4     1.035e+00  
    5     2.981e-01  
    6     1.355e-01  
    7     3.882e-02  
    8     6.788e-03  
    9     2.756e-03  
   10     4.773e-04  
   11     1.642e-04  
   12     2.705e-05  
   13     9.625e-06  
   14     3.232e-06  
   15     9.863e-07  Converged.
   ... Converged in 15 steps (norm: 9.86304e-07)
------------------------------------
  Starting TPA DIIS iterations ... 
------------------------------------ 
   It     Res. Norm  Remark
------------------------------------
                       Guess.
    1     8.439e-01  
    2     7.632e-01  
    3     3.510e-01  
    4     2.994e-01  
    5     5.059e-02  
    6     2.361e-02  
    7     5.569e-03  
    8     1.852e-03  
    9     6.859e-04  
   10     6.903e-05  
   11     2.478e-05  
   12     1.156e-05  
   13     1.215e-05  
   14     3.522e-06  
   15     1.462e-06  
   16     1.092e-06  
   17     5.171e-07  Converged.
   ... Converged in 17 steps (norm: 5.17064e-07)
------------------------------------
  Starting TPA DIIS iterations ... 
------------------------------------ 
   It     Res. Norm  Remark
------------------------------------
                       Guess.
    1     1.142e+01  
    2     2.062e+01  
    3     2.979e+00  
    4     1.207e+00  
    5     3.436e-01  
    6     1.565e-01  
    7     4.535e-02  
    8     7.705e-03  
    9     3.180e-03  
   10     5.558e-04  
   11     1.908e-04  
   12     3.209e-05  
   13     1.121e-05  
   14     3.880e-06  
   15     1.387e-06  
   16     4.228e-07  Converged.
   ... Converged in 16 steps (norm: 4.22756e-07)
------------------------------------
  Starting TPA DIIS iterations ... 
------------------------------------ 
   It     Res. Norm  Remark
------------------------------------
                       Guess.
    1     1.083e+01  
    2     1.955e+01  
    3     2.833e+00  
    4     1.180e+00  
    5     3.424e-01  
    6     1.571e-01  
    7     4.465e-02  
    8     7.791e-03  
    9     3.190e-03  
   10     5.520e-04  
   11     1.892e-04  
   12     3.163e-05  
   13     1.120e-05  
   14     3.926e-06  
   15     1.215e-06  
   16     5.257e-07  Converged.
   ... Converged in 16 steps (norm: 5.25716e-07)
------------------------------------
  Starting TPA DIIS iterations ... 
------------------------------------ 
   It     Res. Norm  Remark
------------------------------------
                       Guess.
    1     8.588e-01  
    2     7.971e-01  
    3     3.751e-01  
    4     3.407e-01  
    5     5.631e-02  
    6     2.648e-02  
    7     6.481e-03  
    8     1.910e-03  
    9     7.596e-04  
   10     7.986e-05  
   11     2.910e-05  
   12     1.372e-05  
   13     1.506e-05  
   14     4.415e-06  
   15     2.014e-06  
   16     1.431e-06  
   17     7.060e-07  Converged.
   ... Converged in 17 steps (norm: 7.06041e-07)
------------------------------------
  Starting TPA DIIS iterations ... 
------------------------------------ 
   It     Res. Norm  Remark
------------------------------------
                       Guess.
    1     1.241e+01  
    2     2.300e+01  
    3     3.234e+00  
    4     1.369e+00  
    5     3.921e-01  
    6     1.800e-01  
    7     5.182e-02  
    8     8.785e-03  
    9     3.656e-03  
   10     6.382e-04  
   11     2.178e-04  
   12     3.724e-05  
   13     1.301e-05  
   14     4.659e-06  
   15     1.742e-06  
   16     5.433e-07  Converged.
   ... Converged in 16 steps (norm: 5.43313e-07)
------------------------------------
  Starting TPA DIIS iterations ... 
------------------------------------ 
   It     Res. Norm  Remark
------------------------------------
                       Guess.
    1     1.177e+01  
    2     2.182e+01  
    3     3.075e+00  
    4     1.337e+00  
    5     3.907e-01  
    6     1.808e-01  
    7     5.103e-02  
    8     8.885e-03  
    9     3.667e-03  
   10     6.338e-04  
   11     2.161e-04  
   12     3.676e-05  
   13     1.297e-05  
   14     4.729e-06  
   15     1.517e-06  
   16     6.880e-07  Converged.
   ... Converged in 16 steps (norm: 6.88031e-07)
------------------------------------
  Starting TPA DIIS iterations ... 
------------------------------------ 
   It     Res. Norm  Remark
------------------------------------
                       Guess.
    1     8.731e-01  
    2     8.312e-01  
    3     3.998e-01  
    4     3.824e-01  
    5     6.245e-02  
    6     2.940e-02  
    7     7.464e-03  
    8     1.955e-03  
    9     8.350e-04  
   10     9.175e-05  
   11     3.401e-05  
   12     1.621e-05  
   13     1.849e-05  
   14     5.489e-06  
   15     2.749e-06  
   16     1.834e-06  
   17     9.317e-07  Converged.
   ... Converged in 17 steps (norm: 9.31704e-07)
------------------------------------
  Two-photon absorbption ...  CPU 75.09 s  wall 18.17 s
  Transition density matrix of state singlet_A_1 printed to ASCII file 'State_singlet_A_1_Transition.txt'
  Transition density matrix of state singlet_A_2 printed to ASCII file 'State_singlet_A_2_Transition.txt'
  Transition density matrix of state singlet_A_3 printed to ASCII file 'State_singlet_A_3_Transition.txt'
  Transition density matrix of state singlet_A_4 printed to ASCII file 'State_singlet_A_4_Transition.txt'
  Transition density matrix of state singlet_A_5 printed to ASCII file 'State_singlet_A_5_Transition.txt'
  Transition density matrix of state singlet_A_6 printed to ASCII file 'State_singlet_A_6_Transition.txt'
  Transition density matrix of state singlet_A_7 printed to ASCII file 'State_singlet_A_7_Transition.txt'
  Transition density matrix of state singlet_A_8 printed to ASCII file 'State_singlet_A_8_Transition.txt'
  Transition density matrix of state singlet_A_9 printed to ASCII file 'State_singlet_A_9_Transition.txt'
  Transition density matrix of state singlet_A_10 printed to ASCII file 'State_singlet_A_10_Transition.txt'
  Transition properties ...  CPU 0.17 s  wall 1.09 s
  Difference density matrix of state singlet_A_1 printed to ASCII file 'State_singlet_A_1_Difference.txt'
  Total density matrix of state singlet_A_1 printed to ASCII file 'State_singlet_A_1_Total.txt'
  Difference density matrix of state singlet_A_2 printed to ASCII file 'State_singlet_A_2_Difference.txt'
  Total density matrix of state singlet_A_2 printed to ASCII file 'State_singlet_A_2_Total.txt'
  Difference density matrix of state singlet_A_3 printed to ASCII file 'State_singlet_A_3_Difference.txt'
  Total density matrix of state singlet_A_3 printed to ASCII file 'State_singlet_A_3_Total.txt'
  Difference density matrix of state singlet_A_4 printed to ASCII file 'State_singlet_A_4_Difference.txt'
  Total density matrix of state singlet_A_4 printed to ASCII file 'State_singlet_A_4_Total.txt'
  Difference density matrix of state singlet_A_5 printed to ASCII file 'State_singlet_A_5_Difference.txt'
  Total density matrix of state singlet_A_5 printed to ASCII file 'State_singlet_A_5_Total.txt'
  Difference density matrix of state singlet_A_6 printed to ASCII file 'State_singlet_A_6_Difference.txt'
  Total density matrix of state singlet_A_6 printed to ASCII file 'State_singlet_A_6_Total.txt'
  Difference density matrix of state singlet_A_7 printed to ASCII file 'State_singlet_A_7_Difference.txt'
  Total density matrix of state singlet_A_7 printed to ASCII file 'State_singlet_A_7_Total.txt'
  Difference density matrix of state singlet_A_8 printed to ASCII file 'State_singlet_A_8_Difference.txt'
  Total density matrix of state singlet_A_8 printed to ASCII file 'State_singlet_A_8_Total.txt'
  Difference density matrix of state singlet_A_9 printed to ASCII file 'State_singlet_A_9_Difference.txt'
  Total density matrix of state singlet_A_9 printed to ASCII file 'State_singlet_A_9_Total.txt'
  Difference density matrix of state singlet_A_10 printed to ASCII file 'State_singlet_A_10_Difference.txt'
  Total density matrix of state singlet_A_10 printed to ASCII file 'State_singlet_A_10_Total.txt'
  Properties ...  CPU 0.32 s  wall 1.34 s
  ISR TDMS ...  CPU 8.96 s  wall 3.16 s
  ISR transition properties ...  CPU 0.17 s  wall 0.08 s
  Sum-over-states TPA ...  CPU 0.00 s  wall 0.00 s

--------------------------------------------------------------------------------
                   State-averaged natural transition orbitals
--------------------------------------------------------------------------------
--------------------------------------------------------------------------------
  SA-NTO decomposition ...  CPU 0.01 s  wall 0.02 s

--------------------------------------------------------------------------------
                             Excited State Summary
--------------------------------------------------------------------------------
--------------------------------------------------------------------------------

  Excited state 1 (singlet, A)                                     [converged]
  ----------------------------------------------------------------------------
  Term symbol:  2 (1) A                                     R^2 =  7.20802e-13

  Total energy:                                            -77.9985515029 a.u.
  Excitation energy:                                               8.736374 eV

  Osc. strength:                                                      0.445536
  Trans. dip. moment [a.u.]:           [   1.046453,   -0.993194,   -0.009134]
  <i|r^2|0> [a.u.]:                    [   6.169237,   -0.244783,   -0.000111]
  Two-photon absorption cross-section (SoS) [a.u.]:                   0.000104
  Two-photon absorption matrix (SoS) [a.u.]:
                                       |   -0.002342    0.001765   -0.000153 |
                                       |    0.001765    0.003066    0.000565 |
                                       |   -0.000153    0.000565   -0.001896 |
  Two-photon absorption cross-section [a.u.]:                         0.000169
  Two-photon absorption matrix [a.u.]:
                                       |   -0.003769    0.001014    0.000079 |
                                       |    0.001014    0.004117    0.001539 |
                                       |    0.000079    0.001539   -0.001816 |

  Dip. moment [a.u.]:                  [   0.000170,   -0.000120,    0.000399]
  Total dipole [Debye]:                                               0.001144
  <r^2> [a.u.]:                        [ 176.035010,   35.640438,   11.865816]
  Total <r^2> [a.u.]:                                               223.541264

  V1^2 = 0.9715, V2^2 = 0.0285

  Important amplitudes:
      occ i     occ j     vir a      vir b          v   
    -----------------------------------------------------
     8 (A) A              9 (A) A                 0.6811
     6 (A) A             14 (A) A                 0.0622
     4 (A) A             10 (A) A                 0.0605
     7 (A) A             16 (A) A                -0.0572
     5 (A) A             13 (A) A                -0.0514
     6 (A) A             23 (A) A                 0.0484
     8 (A) A             20 (A) A                -0.0349
     6 (A) A             19 (A) A                -0.0310
     3 (A) A             12 (A) A                -0.0281
     5 (A) A             22 (A) A                -0.0215
     7 (A) A             11 (A) A                -0.0205
     4 (A) A             24 (A) A                 0.0187
     3 (A) A             26 (A) A                 0.0186
     8 (A) A   8 (A) B   17 (A) A   20 (A) B      0.0184
     8 (A) A   8 (A) B    9 (A) A   28 (A) B      0.0168
     6 (A) A             26 (A) A                -0.0164
     7 (A) A             21 (A) A                 0.0147
     3 (A) A             14 (A) A                -0.0139
     6 (A) A             12 (A) A                -0.0131
     3 (A) A   4 (A) B    9 (A) A    9 (A) B     -0.0129
     3 (A) A             19 (A) A                 0.0119
     8 (A) A   8 (A) B   18 (A) A   19 (A) B     -0.0113
     7 (A) A             32 (A) A                 0.0096
     7 (A) A             36 (A) A                 0.0086
     3 (A) A             23 (A) A                -0.0080
     8 (A) A   8 (A) B   25 (A) A   29 (A) B      0.0076
     6 (A) A             35 (A) A                 0.0073
     6 (A) A             40 (A) A                 0.0068
     3 (A) A   6 (A) B    9 (A) A   28 (A) B     -0.0065
     6 (A) A   8 (A) A   19 (A) A   28 (A) A      0.0061
     5 (A) A   7 (A) B    9 (A) A    9 (A) B     -0.0060
     5 (A) A   8 (A) B   11 (A) A   20 (A) B     -0.0059
     7 (A) A   8 (A) B   13 (A) A   20 (A) B     -0.0059
     5 (A) A   8 (A) B   16 (A) A    9 (A) B      0.0059
     5 (A) A   8 (A) B   11 (A) A    9 (A) B     -0.0059
     3 (A) A   5 (A) B    9 (A) A   25 (A) B     -0.0058
     3 (A) A             40 (A) A                -0.0057
     7 (A) A   8 (A) B   22 (A) A   20 (A) B     -0.0057
     6 (A) A   8 (A) A    9 (A) A   18 (A) A      0.0056
     8 (A) A   8 (A) B   19 (A) A   30 (A) B     -0.0056
    -----------------------------------------------------

  Density matrix analysis:
  ------------------------
  NOs
    Occupation of frontier NOs:
       0.9496   1.0216
    Number of electrons: 16.000000
    Number of unpaired electrons: n_u =  2.31327, n_u,nl =  2.03260
    NO participation ratio (PR_NO):  2.863276
  
  
  Mulliken Population Analysis
  Atom      Charge (e)              h+              e-           Del q
  --------------------------------------------------------------------
   1 H        0.058345        0.020317       -0.012519        0.007799
   2 C       -0.115879        0.490794       -0.506290       -0.015495
   3 H        0.057714        0.020234       -0.012535        0.007699
   4 C       -0.116661        0.490815       -0.506308       -0.015493
   5 H        0.058025        0.020240       -0.012544        0.007696
   6 H        0.058456        0.020306       -0.012511        0.007795
  --------------------------------------------------------------------
  Sum:        0.000000        1.062706       -1.062706        0.000000
  
  Multipole moment analysis of the density matrix
    Molecular charge:                      0.000000
    Number of electrons:                   16.000000
      Center of electronic charge [Ang]: [ -1.559957,  -0.065598,   0.001965]
    Total nuclear charge:                  16.000000
      Center of nuclear charge [Ang]:    [ -1.559951,  -0.065602,   0.001978]
    Dipole moment [D]:                     0.001144
      Cartesian components [D]:          [  0.000431,  -0.000306,   0.001015]
    RMS size of the density [Ang]:         1.214330
      Cartesian components [Ang]:        [  0.804650,   0.787063,   0.455707]
  
  Exciton analysis of the difference density matrix
    <r_h> [Ang]:                  [ -1.560044,  -0.065692,   0.001797]
    <r_e> [Ang]:                  [ -1.560070,  -0.065736,   0.001754]
    |<r_e - r_h>| [Ang]:            0.000067
    Hole size [Ang]:                1.285458
      Cartesian components [Ang]: [  0.728585,   0.712602,   0.783432]
    Electron size [Ang]:            1.463158
      Cartesian components [Ang]: [  0.853980,   0.830476,   0.849622]

  Transition density matrix analysis:
  -----------------------------------
  
  CT numbers (Mulliken)
    omega =     0.9535
    <Phe> =    -0.1608
  
  Exciton analysis of the transition density matrix
    Trans. dipole moment [D]:             1.833576
      Cartesian components [D]:         [  1.329909,  -1.262224,  -0.011608]
    <r_h> [Ang]:                        [ -1.560060,  -0.065730,   0.001824]
    <r_e> [Ang]:                        [ -1.560063,  -0.065722,   0.001730]
    |<r_e - r_h>| [Ang]:                  0.000095
    Hole size [Ang]:                      1.214126
      Cartesian components [Ang]:       [  0.649623,   0.636369,   0.804442]
    Electron size [Ang]:                  1.486042
      Cartesian components [Ang]:       [  0.864462,   0.839369,   0.869761]
    RMS electron-hole separation [Ang]:   1.936860
      Cartesian components [Ang]:       [  1.106842,   1.075287,   1.170507]
    Covariance(r_h, r_e) [Ang^2]:        -0.034502
    Correlation coefficient:             -0.019123
    Center-of-mass size [Ang]:            0.950450
      Cartesian components [Ang]:       [  0.527615,   0.515454,   0.599403]

  Decomposition into state-averaged NTOs
    H- 0 -> L+ 0: -0.6699 ( 89.8%)
    H- 2 -> L+ 5:  0.0836 (  1.4%)
                   omega =  95.4%
  ----------------------------------------------------------------------------


  Excited state 2 (singlet, A)                                     [converged]
  ----------------------------------------------------------------------------
  Term symbol:  3 (1) A                                     R^2 =  6.44570e-13

  Total energy:                                            -77.9870549862 a.u.
  Excitation energy:                                               9.049210 eV

  Osc. strength:                                                      0.000004
  Trans. dip. moment [a.u.]:           [   0.001346,   -0.001193,   -0.003793]
  <i|r^2|0> [a.u.]:                    [  -0.057349,   -0.085475,    0.150486]
  Two-photon absorption cross-section (SoS) [a.u.]:                   4.791202
  Two-photon absorption matrix (SoS) [a.u.]:
                                       |   -0.052613   -0.058225    0.535717 |
                                       |   -0.058225   -0.064091    0.546155 |
                                       |    0.535717    0.546155    0.116571 |
  Two-photon absorption cross-section [a.u.]:                         0.078263
  Two-photon absorption matrix [a.u.]:
                                       |    0.002257    0.007190   -0.066865 |
                                       |    0.007190    0.012668   -0.071179 |
                                       |   -0.066865   -0.071179   -0.014903 |

  Dip. moment [a.u.]:                  [  -0.004569,   -0.003402,    0.000314]
  Total dipole [Debye]:                                               0.014500
  <r^2> [a.u.]:                        [ 174.385276,   33.985277,   13.173118]
  Total <r^2> [a.u.]:                                               221.543671

  V1^2 = 0.9542, V2^2 = 0.0458

  Important amplitudes:
      occ i     occ j     vir a      vir b          v   
    -----------------------------------------------------
     7 (A) A              9 (A) A                 0.6695
     8 (A) A             11 (A) A                -0.1467
     7 (A) A             20 (A) A                -0.0759
     5 (A) A   8 (A) B    9 (A) A    9 (A) B     -0.0317
     8 (A) A             16 (A) A                 0.0272
     8 (A) A             21 (A) A                 0.0174
     5 (A) A             28 (A) A                 0.0151
     4 (A) A   7 (A) B    9 (A) A   19 (A) B     -0.0135
     5 (A) A   7 (A) B    9 (A) A   16 (A) B     -0.0134
     7 (A) A   8 (A) B   20 (A) A   17 (A) B      0.0105
     7 (A) A   8 (A) A    9 (A) A   28 (A) A     -0.0098
     5 (A) A   8 (A) B    9 (A) A   20 (A) B      0.0096
     4 (A) A   6 (A) B    9 (A) A   16 (A) B     -0.0091
     5 (A) A   6 (A) A    9 (A) A   23 (A) A      0.0091
     5 (A) A   6 (A) A    9 (A) A   14 (A) A      0.0089
     5 (A) A   6 (A) B    9 (A) A   19 (A) B     -0.0087
     8 (A) A   7 (A) B    9 (A) A   28 (A) B      0.0085
     4 (A) A   5 (A) A    9 (A) A   10 (A) A     -0.0084
     6 (A) A   7 (A) B    9 (A) A   18 (A) B      0.0083
     5 (A) A   6 (A) B    9 (A) A   23 (A) B      0.0080
     3 (A) A   7 (A) B    9 (A) A   18 (A) B      0.0080
     5 (A) A   7 (A) A    9 (A) A   16 (A) A     -0.0079
     4 (A) A   8 (A) B    9 (A) A   25 (A) B     -0.0077
     8 (A) A             10 (A) A                 0.0074
     7 (A) A   8 (A) B   17 (A) A   20 (A) B      0.0074
     4 (A) A   7 (A) B   19 (A) A    9 (A) B     -0.0074
     5 (A) A   5 (A) B    9 (A) A   13 (A) B     -0.0072
     7 (A) A   8 (A) B   19 (A) A   18 (A) B     -0.0072
     5 (A) A   8 (A) A    9 (A) A   20 (A) A      0.0069
     4 (A) A   5 (A) B    9 (A) A   18 (A) B      0.0068
     7 (A) A   7 (A) B   20 (A) A   22 (A) B     -0.0065
     7 (A) A   8 (A) B   17 (A) A    9 (A) B     -0.0065
     5 (A) A   6 (A) B    9 (A) A   14 (A) B      0.0064
     4 (A) A   7 (A) A    9 (A) A   19 (A) A     -0.0061
     4 (A) A   5 (A) B   10 (A) A    9 (A) B      0.0061
     5 (A) A             38 (A) A                -0.0060
     5 (A) A   7 (A) B   11 (A) A   20 (A) B     -0.0060
     4 (A) A   7 (A) B    9 (A) A   14 (A) B     -0.0059
     6 (A) A   7 (A) A   19 (A) A   28 (A) A      0.0057
     4 (A) A   8 (A) A    9 (A) A   25 (A) A     -0.0057
    -----------------------------------------------------

  Density matrix analysis:
  ------------------------
  NOs
    Occupation of frontier NOs:
       0.9589   1.0529
    Number of electrons: 16.000000
    Number of unpaired electrons: n_u =  2.35521, n_u,nl =  2.06216
    NO participation ratio (PR_NO):  3.022124
  
  
  Mulliken Population Analysis
  Atom      Charge (e)              h+              e-           Del q
  --------------------------------------------------------------------
   1 H        0.149513        0.124471       -0.025505        0.098966
   2 C       -0.302188        0.271893       -0.473697       -0.201804
   3 H        0.152571        0.125447       -0.022891        0.102556
   4 C       -0.302835        0.272236       -0.473903       -0.201667
   5 H        0.151415        0.126513       -0.025427        0.101086
   6 H        0.151524        0.123854       -0.022990        0.100863
  --------------------------------------------------------------------
  Sum:        0.000000        1.044414       -1.044414       -0.000000
  
  Multipole moment analysis of the density matrix
    Molecular charge:                      0.000000
    Number of electrons:                   16.000000
      Center of electronic charge [Ang]: [ -1.559800,  -0.065490,   0.001968]
    Total nuclear charge:                  16.000000
      Center of nuclear charge [Ang]:    [ -1.559951,  -0.065602,   0.001978]
    Dipole moment [D]:                     0.014500
      Cartesian components [D]:          [ -0.011613,  -0.008646,   0.000799]
    RMS size of the density [Ang]:         1.200058
      Cartesian components [Ang]:        [  0.786814,   0.768449,   0.480155]
  
  Exciton analysis of the difference density matrix
    <r_h> [Ang]:                  [ -1.559199,  -0.063724,   0.002164]
    <r_e> [Ang]:                  [ -1.556825,  -0.062106,   0.002164]
    |<r_e - r_h>| [Ang]:            0.002873
    Hole size [Ang]:                1.486548
      Cartesian components [Ang]: [  1.004721,   0.997169,   0.453889]
    Electron size [Ang]:            1.476111
      Cartesian components [Ang]: [  0.881215,   0.857816,   0.816404]

  Transition density matrix analysis:
  -----------------------------------
  
  CT numbers (Mulliken)
    omega =     0.9218
    <Phe> =    -0.0122
  
  Exciton analysis of the transition density matrix
    Trans. dipole moment [D]:             0.005335
      Cartesian components [D]:         [  0.001711,  -0.001517,  -0.004820]
    <r_h> [Ang]:                        [ -1.559235,  -0.063618,   0.002214]
    <r_e> [Ang]:                        [ -1.556623,  -0.062022,   0.002129]
    |<r_e - r_h>| [Ang]:                  0.003062
    Hole size [Ang]:                      1.515511
      Cartesian components [Ang]:       [  1.028144,   1.021274,   0.443500]
    Electron size [Ang]:                  1.473149
      Cartesian components [Ang]:       [  0.871607,   0.847185,   0.832313]
    RMS electron-hole separation [Ang]:   2.093637
      Cartesian components [Ang]:       [  1.331916,   1.311976,   0.942357]
    Covariance(r_h, r_e) [Ang^2]:         0.041815
    Correlation coefficient:              0.018730
    Center-of-mass size [Ang]:            1.066603
      Cartesian components [Ang]:       [  0.681829,   0.670852,   0.471921]

  Decomposition into state-averaged NTOs
    H- 1 -> L+ 0: -0.6619 ( 87.6%)
    H- 0 -> L+ 2:  0.1467 (  4.3%)
                   omega =  92.2%
  ----------------------------------------------------------------------------


  Excited state 3 (singlet, A)                                     [converged]
  ----------------------------------------------------------------------------
  Term symbol:  4 (1) A                                     R^2 =  5.96049e-13

  Total energy:                                            -77.9822729098 a.u.
  Excitation energy:                                               9.179337 eV

  Osc. strength:                                                      0.025425
  Trans. dip. moment [a.u.]:           [  -0.015215,   -0.020627,    0.335261]
  <i|r^2|0> [a.u.]:                    [  -0.090785,   -0.004946,   -0.001233]
  Two-photon absorption cross-section (SoS) [a.u.]:                   0.002942
  Two-photon absorption matrix (SoS) [a.u.]:
                                       |   -0.003754    0.001102   -0.012036 |
                                       |    0.001102    0.005750   -0.013336 |
                                       |   -0.012036   -0.013336   -0.005779 |
  Two-photon absorption cross-section [a.u.]:                         0.002978
  Two-photon absorption matrix [a.u.]:
                                       |   -0.003470    0.001653   -0.013109 |
                                       |    0.001653    0.003472   -0.013008 |
                                       |   -0.013109   -0.013008   -0.004686 |

  Dip. moment [a.u.]:                  [  -0.008480,   -0.017288,   -0.001869]
  Total dipole [Debye]:                                               0.049174
  <r^2> [a.u.]:                        [ 180.738687,   40.603877,   11.030194]
  Total <r^2> [a.u.]:                                               232.372758

  V1^2 = 0.9587, V2^2 = 0.0413

  Important amplitudes:
      occ i     occ j     vir a      vir b          v   
    -----------------------------------------------------
     8 (A) A             10 (A) A                -0.6891
     8 (A) A             24 (A) A                -0.0507
     8 (A) A             18 (A) A                 0.0312
     4 (A) A              9 (A) A                -0.0237
     8 (A) A   8 (A) B    9 (A) A   12 (A) B      0.0219
     8 (A) A   8 (A) B   10 (A) A   17 (A) B     -0.0173
     5 (A) A   8 (A) B   11 (A) A   10 (A) B      0.0166
     8 (A) A             15 (A) A                 0.0165
     7 (A) A   8 (A) B   13 (A) A   10 (A) B      0.0141
     4 (A) A   8 (A) B   12 (A) A   10 (A) B      0.0111
     6 (A) A   8 (A) A   10 (A) A   15 (A) A      0.0111
     7 (A) A   8 (A) B   22 (A) A   10 (A) B      0.0108
     6 (A) A   8 (A) B   15 (A) A   10 (A) B     -0.0108
     4 (A) A   8 (A) A   10 (A) A   12 (A) A     -0.0106
     7 (A) A   8 (A) A   10 (A) A   22 (A) A     -0.0099
     7 (A) A   8 (A) A   10 (A) A   13 (A) A     -0.0098
     5 (A) A   8 (A) A   10 (A) A   11 (A) A     -0.0094
     5 (A) A   8 (A) B   21 (A) A   10 (A) B     -0.0094
     6 (A) A   8 (A) A   10 (A) A   18 (A) A     -0.0087
     6 (A) A   8 (A) B   10 (A) A   10 (A) B     -0.0087
     7 (A) A   8 (A) A   12 (A) A   16 (A) A     -0.0082
     5 (A) A   8 (A) A   10 (A) A   21 (A) A      0.0080
     3 (A) A   4 (A) B   10 (A) A    9 (A) B      0.0079
     7 (A) A              9 (A) A                 0.0077
     8 (A) A   8 (A) B    9 (A) A   23 (A) B     -0.0075
     4 (A) A   8 (A) B   19 (A) A   10 (A) B     -0.0075
     8 (A) A   8 (A) B   10 (A) A   28 (A) B     -0.0073
     3 (A) A   8 (A) B   10 (A) A   10 (A) B     -0.0072
     5 (A) A   8 (A) B   10 (A) A   11 (A) B      0.0071
     3 (A) A   8 (A) A   10 (A) A   24 (A) A      0.0071
     7 (A) A   8 (A) B   16 (A) A   12 (A) B      0.0071
     3 (A) A   8 (A) B   10 (A) A   18 (A) B      0.0069
     8 (A) A   8 (A) B    9 (A) A   19 (A) B     -0.0068
     6 (A) A   8 (A) B   18 (A) A   10 (A) B      0.0066
     3 (A) A   6 (A) B   10 (A) A   28 (A) B      0.0062
     7 (A) A   8 (A) B   12 (A) A   11 (A) B     -0.0057
     6 (A) A             28 (A) A                -0.0057
     3 (A) A   5 (A) B   10 (A) A   25 (A) B      0.0056
     5 (A) A   8 (A) A   10 (A) A   16 (A) A      0.0056
     3 (A) A   8 (A) A   10 (A) A   18 (A) A      0.0055
    -----------------------------------------------------

  Density matrix analysis:
  ------------------------
  NOs
    Occupation of frontier NOs:
       0.9815   0.9849
    Number of electrons: 16.000000
    Number of unpaired electrons: n_u =  2.28533, n_u,nl =  2.02442
    NO participation ratio (PR_NO):  2.692032
  
  
  Mulliken Population Analysis
  Atom      Charge (e)              h+              e-           Del q
  --------------------------------------------------------------------
   1 H       -0.165628        0.053856       -0.270031       -0.216175
   2 C        0.329240        0.537889       -0.108265        0.429624
   3 H       -0.162462        0.053989       -0.266466       -0.212477
   4 C        0.328928        0.538611       -0.108515        0.430096
   5 H       -0.167458        0.053773       -0.271560       -0.217787
   6 H       -0.162619        0.054034       -0.267315       -0.213281
  --------------------------------------------------------------------
  Sum:        0.000000        1.292152       -1.292152        0.000000
  
  Multipole moment analysis of the density matrix
    Molecular charge:                      0.000000
    Number of electrons:                   16.000000
      Center of electronic charge [Ang]: [ -1.559671,  -0.065031,   0.002040]
    Total nuclear charge:                  16.000000
      Center of nuclear charge [Ang]:    [ -1.559951,  -0.065602,   0.001978]
    Dipole moment [D]:                     0.049174
      Cartesian components [D]:          [ -0.021555,  -0.043942,  -0.004751]
    RMS size of the density [Ang]:         1.276766
      Cartesian components [Ang]:        [  0.854796,   0.840483,   0.439368]
  
  Exciton analysis of the difference density matrix
    <r_h> [Ang]:                  [ -1.560177,  -0.065302,   0.001886]
    <r_e> [Ang]:                  [ -1.556657,  -0.058307,   0.002780]
    |<r_e - r_h>| [Ang]:            0.007882
    Hole size [Ang]:                1.410526
      Cartesian components [Ang]: [  0.834389,   0.819914,   0.788111]
    Electron size [Ang]:            2.077764
      Cartesian components [Ang]: [  1.374704,   1.377814,   0.727270]

  Transition density matrix analysis:
  -----------------------------------
  
  CT numbers (Mulliken)
    omega =     0.9259
    <Phe> =    -0.0108
  
  Exciton analysis of the transition density matrix
    Trans. dipole moment [D]:             0.427318
      Cartesian components [D]:         [ -0.019337,  -0.026214,   0.426075]
    <r_h> [Ang]:                        [ -1.560486,  -0.066109,   0.001735]
    <r_e> [Ang]:                        [ -1.555563,  -0.055881,   0.003059]
    |<r_e - r_h>| [Ang]:                  0.011428
    Hole size [Ang]:                      1.212969
      Cartesian components [Ang]:       [  0.636511,   0.623593,   0.822971]
    Electron size [Ang]:                  2.298580
      Cartesian components [Ang]:       [  1.519708,   1.525533,   0.804180]
    RMS electron-hole separation [Ang]:   2.589113
      Cartesian components [Ang]:       [  1.640141,   1.641113,   1.148995]
    Covariance(r_h, r_e) [Ang^2]:         0.025695
    Correlation coefficient:              0.009216
    Center-of-mass size [Ang]:            1.304430
      Cartesian components [Ang]:       [  0.827538,   0.827510,   0.576148]

  Decomposition into state-averaged NTOs
    H- 0 -> L+ 1: -0.6797 ( 92.4%)
                   omega =  92.6%
  ----------------------------------------------------------------------------


  Excited state 4 (singlet, A)                                     [converged]
  ----------------------------------------------------------------------------
  Term symbol:  5 (1) A                                     R^2 =  5.12019e-13

  Total energy:                                            -77.9581288991 a.u.
  Excitation energy:                                               9.836329 eV

  Osc. strength:                                                      0.000002
  Trans. dip. moment [a.u.]:           [   0.000589,   -0.000328,   -0.002607]
  <i|r^2|0> [a.u.]:                    [   0.020543,    0.019341,   -0.036467]
  Two-photon absorption cross-section (SoS) [a.u.]:                 150.058460
  Two-photon absorption matrix (SoS) [a.u.]:
                                       |    0.291481    0.325634   -3.000385 |
                                       |    0.325634    0.360982   -3.054279 |
                                       |   -3.000385   -3.054279   -0.652238 |
  Two-photon absorption cross-section [a.u.]:                        91.901463
  Two-photon absorption matrix [a.u.]:
                                       |    0.231354    0.255049   -2.348978 |
                                       |    0.255049    0.279332   -2.389329 |
                                       |   -2.348978   -2.389329   -0.510419 |

  Dip. moment [a.u.]:                  [   0.020650,    0.017235,    0.001538]
  Total dipole [Debye]:                                               0.068478
  <r^2> [a.u.]:                        [ 181.319263,   40.551433,   10.758456]
  Total <r^2> [a.u.]:                                               232.629151

  V1^2 = 0.9635, V2^2 = 0.0365

  Important amplitudes:
      occ i     occ j     vir a      vir b          v   
    -----------------------------------------------------
     8 (A) A             11 (A) A                 0.6700
     7 (A) A              9 (A) A                 0.1488
     8 (A) A             21 (A) A                -0.0782
     8 (A) A             16 (A) A                -0.0648
     8 (A) A   8 (A) B    9 (A) A   13 (A) B      0.0167
     5 (A) A   8 (A) B   11 (A) A   11 (A) B     -0.0156
     8 (A) A   8 (A) B   11 (A) A   17 (A) B      0.0140
     7 (A) A             20 (A) A                -0.0135
     7 (A) A   8 (A) B   13 (A) A   11 (A) B     -0.0128
     5 (A) A   8 (A) A   11 (A) A   21 (A) A     -0.0110
     4 (A) A   8 (A) B   12 (A) A   11 (A) B     -0.0110
     8 (A) A   8 (A) B    9 (A) A   22 (A) B      0.0108
     8 (A) A             12 (A) A                 0.0098
     7 (A) A   8 (A) A   11 (A) A   22 (A) A      0.0096
     6 (A) A   8 (A) B   15 (A) A   11 (A) B      0.0090
     6 (A) A   8 (A) B   10 (A) A   11 (A) B      0.0090
     7 (A) A   8 (A) B   22 (A) A   11 (A) B     -0.0089
     3 (A) A   4 (A) B   11 (A) A    9 (A) B     -0.0083
     3 (A) A   8 (A) B   11 (A) A   18 (A) B     -0.0081
     6 (A) A   8 (A) A   11 (A) A   15 (A) A     -0.0081
     7 (A) A   8 (A) A   13 (A) A   16 (A) A     -0.0078
     7 (A) A   8 (A) A   11 (A) A   13 (A) A      0.0077
     5 (A) A   8 (A) B   21 (A) A   11 (A) B      0.0071
     4 (A) A   8 (A) B   19 (A) A   11 (A) B      0.0070
     5 (A) A   8 (A) B    9 (A) A    9 (A) B     -0.0067
     4 (A) A   8 (A) A   11 (A) A   12 (A) A      0.0062
     6 (A) A   8 (A) A   11 (A) A   18 (A) A      0.0062
     3 (A) A   6 (A) B   11 (A) A   28 (A) B     -0.0061
     6 (A) A   8 (A) B   18 (A) A   11 (A) B     -0.0059
     7 (A) A   8 (A) B   16 (A) A   13 (A) B      0.0057
     3 (A) A   8 (A) A   11 (A) A   18 (A) A     -0.0056
     5 (A) A   8 (A) B   10 (A) A   10 (A) B     -0.0056
     3 (A) A   8 (A) B   11 (A) A   30 (A) B     -0.0055
     3 (A) A   5 (A) B   11 (A) A   25 (A) B     -0.0055
     6 (A) A   8 (A) B   11 (A) A   10 (A) B      0.0054
     7 (A) A   8 (A) B   12 (A) A   10 (A) B      0.0054
     8 (A) A   8 (A) B   20 (A) A   22 (A) B     -0.0053
     3 (A) A   8 (A) A   11 (A) A   24 (A) A     -0.0053
     5 (A) A   8 (A) A   11 (A) A   16 (A) A     -0.0048
     6 (A) A              9 (A) A                 0.0048
    -----------------------------------------------------

  Density matrix analysis:
  ------------------------
  NOs
    Occupation of frontier NOs:
       0.9417   1.0268
    Number of electrons: 16.000000
    Number of unpaired electrons: n_u =  2.31892, n_u,nl =  2.04840
    NO participation ratio (PR_NO):  2.908414
  
  
  Mulliken Population Analysis
  Atom      Charge (e)              h+              e-           Del q
  --------------------------------------------------------------------
   1 H       -0.139954        0.045850       -0.236351       -0.190500
   2 C        0.274751        0.497325       -0.122190        0.375135
   3 H       -0.134157        0.046625       -0.230797       -0.184172
   4 C        0.274188        0.497669       -0.122313        0.375356
   5 H       -0.127345        0.046565       -0.224239       -0.177674
   6 H       -0.147484        0.045902       -0.244047       -0.198145
  --------------------------------------------------------------------
  Sum:        0.000000        1.179937       -1.179937       -0.000000
  
  Multipole moment analysis of the density matrix
    Molecular charge:                      0.000000
    Number of electrons:                   16.000000
      Center of electronic charge [Ang]: [ -1.560634,  -0.066172,   0.001927]
    Total nuclear charge:                  16.000000
      Center of nuclear charge [Ang]:    [ -1.559951,  -0.065602,   0.001978]
    Dipole moment [D]:                     0.068478
      Cartesian components [D]:          [  0.052487,   0.043807,   0.003910]
    RMS size of the density [Ang]:         1.277287
      Cartesian components [Ang]:        [  0.858971,   0.839847,   0.433922]
  
  Exciton analysis of the difference density matrix
    <r_h> [Ang]:                  [ -1.560673,  -0.066069,   0.001802]
    <r_e> [Ang]:                  [ -1.569882,  -0.073891,   0.001253]
    |<r_e - r_h>| [Ang]:            0.012096
    Hole size [Ang]:                1.394399
      Cartesian components [Ang]: [  0.818619,   0.805644,   0.790663]
    Electron size [Ang]:            2.123956
      Cartesian components [Ang]: [  1.440208,   1.406162,   0.678010]

  Transition density matrix analysis:
  -----------------------------------
  
  CT numbers (Mulliken)
    omega =     0.9298
    <Phe> =    -0.0135
  
  Exciton analysis of the transition density matrix
    Trans. dipole moment [D]:             0.003422
      Cartesian components [D]:         [  0.000748,  -0.000417,  -0.003314]
    <r_h> [Ang]:                        [ -1.560032,  -0.065643,   0.001797]
    <r_e> [Ang]:                        [ -1.571783,  -0.075439,   0.001120]
    |<r_e - r_h>| [Ang]:                  0.015314
    Hole size [Ang]:                      1.227629
      Cartesian components [Ang]:       [  0.658492,   0.648685,   0.807879]
    Electron size [Ang]:                  2.262368
      Cartesian components [Ang]:       [  1.534610,   1.498127,   0.720344]
    RMS electron-hole separation [Ang]:   2.563319
      Cartesian components [Ang]:       [  1.661378,   1.624775,   1.081913]
    Covariance(r_h, r_e) [Ang^2]:         0.027504
    Correlation coefficient:              0.009903
    Center-of-mass size [Ang]:            1.292322
      Cartesian components [Ang]:       [  0.839231,   0.820146,   0.541432]

  Decomposition into state-averaged NTOs
    H- 0 -> L+ 2: -0.6653 ( 88.5%)
    H- 1 -> L+ 0: -0.1468 (  4.3%)
                   omega =  93.0%
  ----------------------------------------------------------------------------


  Excited state 5 (singlet, A)                                     [converged]
  ----------------------------------------------------------------------------
  Term symbol:  6 (1) A                                     R^2 =  3.57523e-13

  Total energy:                                            -77.9440983394 a.u.
  Excitation energy:                                              10.218120 eV

  Osc. strength:                                                      0.000000
  Trans. dip. moment [a.u.]:           [   0.000025,    0.000061,    0.000535]
  <i|r^2|0> [a.u.]:                    [   0.086897,   -0.103440,    0.017011]
  Two-photon absorption cross-section (SoS) [a.u.]:                 190.298102
  Two-photon absorption matrix (SoS) [a.u.]:
                                       |    0.333654    0.043029   -3.473329 |
                                       |    0.043029   -0.401486    3.403263 |
                                       |   -3.473329    3.403263    0.076481 |
  Two-photon absorption cross-section [a.u.]:                        88.610039
  Two-photon absorption matrix [a.u.]:
                                       |    0.229656    0.030328   -2.362728 |
                                       |    0.030328   -0.271921    2.329822 |
                                       |   -2.362728    2.329822    0.053093 |

  Dip. moment [a.u.]:                  [  -0.002446,    0.004853,    0.000309]
  Total dipole [Debye]:                                               0.013835
  <r^2> [a.u.]:                        [ 178.525862,   38.467475,   11.873410]
  Total <r^2> [a.u.]:                                               228.866747

  V1^2 = 0.9571, V2^2 = 0.0429

[...]
    16   -1.468755194499e-03
    17   -1.791866152428e-03
    18    9.816660286486e-05
    19   -3.165493852846e-03
    20    9.626763203111e-03
    21    9.323964673526e-01
    22   -2.843113340394e-04
    23    1.400199201050e-02
    24    8.238435604399e-04
    25    7.037041357975e-02
    26   -5.224798893339e-02
    27   -1.404331044011e+00
    28    9.722125869826e-02
    29   -9.363435508937e-02
    30   -1.180165627766e-03
    31    3.809591847725e-01
    32   -3.654720924766e-01
    33   -4.559789013078e-03
    34    1.568888881393e-02
    35   -1.470715479001e-03
    36   -1.804818099406e-03
    37   -2.139284857542e-05
    38   -3.217984577530e-03
    39    1.033695569084e-02
    40    9.403468250432e-01
    41    2.077690752387e-04
    42   -1.406518763424e-02
    43   -8.409926426064e-04
    44    9.667351376246e-03
    45    9.350109294875e-01
    46    1.407960119605e-02
    47    3.620319911392e-04
    48    6.789886887276e-04
Sym=X
Ene= 0.233155
Spin=Alpha
Occup=0
     1   -2.647608394787e-02
     2   -1.220074666759e+00
     3    1.417637890684e-02
     4    3.712179616208e-03
     5    8.879770061291e-04
     6   -2.291295603658e-03
     7    2.538196548942e-03
     8    3.371501907286e-02
     9    1.536853757896e-01
    10    1.594738801756e-01
    11    1.674793117348e-02
    12    5.456411986591e-01
    13    5.611526788375e-01
    14    5.914025277099e-02
    15   -4.408789551918e-04
    16    5.074519882373e-05
    17    3.789565010142e-05
    18    2.008492609330e-04
    19    2.827880055088e-04
    20    2.520323722212e-02
    21    1.168455375136e+00
    22    2.521909354870e-03
    23    1.368947433771e-02
    24    9.359180238661e-04
    25    2.771130799783e-03
    26   -2.899157288207e-03
    27   -4.694672975353e-02
    28    1.549020862568e-01
    29    1.587751827739e-01
    30    1.684052346646e-02
    31    5.511359466666e-01
    32    5.576114761920e-01
    33    5.950677745001e-02
    34    5.567234381316e-04
    35   -5.985224340384e-05
    36   -3.847289063740e-05
    37   -2.348131154739e-04
    38   -3.364744320022e-04
    39   -2.527260651997e-02
    40   -1.160664350407e+00
    41    2.497823122645e-03
    42    1.355029815190e-02
    43    9.320656726294e-04
    44    2.634593561706e-02
    45    1.228937033175e+00
    46    1.431115100003e-02
    47    3.749265815861e-03
    48    8.995578504193e-04
Sym=X
Ene= 0.239251
Spin=Alpha
Occup=0
     1    1.556445877803e-02
     2    1.052882627606e+00
     3   -1.644521661176e-02
     4   -9.337708886135e-03
     5   -1.338271087619e-03
     6    8.647817884068e-02
     7   -7.958857749955e-02
     8   -1.594103988811e+00
     9   -5.396833238176e-02
    10    6.016667057247e-02
    11    9.662412442275e-04
    12   -2.155605343831e-01
    13    2.403735889540e-01
    14    3.776968170764e-03
    15    2.263259780472e-02
    16   -2.602086988466e-03
    17   -2.992519160201e-03
    18    8.195673003572e-04
    19   -1.271463562051e-02
    20    1.668562233382e-02
    21    1.128513834934e+00
    22    8.590811459620e-03
    23    1.790285060513e-02
    24    1.470354344402e-03
    25   -8.634480069609e-02
    26    7.951506615550e-02
    27    1.589449745316e+00
    28   -5.396965179066e-02
    29    5.988562229601e-02
    30    1.216679105313e-03
    31   -2.177421594845e-01
    32    2.358478765877e-01
    33    4.525951904063e-03
    34   -2.254368360108e-02
    35    2.584793572289e-03
    36    2.995511279687e-03
    37   -5.576307754445e-04
    38    1.270624628918e-02
    39   -1.668741727822e-02
    40   -1.119951118173e+00
    41    8.622090739210e-03
    42    1.769432320675e-02
    43    1.478959049020e-03
    44   -1.585233925242e-02
    45   -1.055670947126e+00
    46   -1.652528659688e-02
    47   -9.263147159227e-03
    48   -1.321333673811e-03
Sym=X
Ene= 0.303322
Spin=Alpha
Occup=0
     1   -2.015070534899e-02
     2    1.695931318887e+00
     3   -2.311264865659e-02
     4    4.114404282984e-04
     5   -1.077860437561e-03
     6    1.297024102320e-04
     7    1.844332731333e-04
     8   -5.771172062624e-03
     9   -1.341227654419e-01
    10   -1.403449364181e-01
    11   -1.469621536304e-02
    12   -1.136999806875e+00
    13   -1.199754185364e+00
    14   -1.253071523816e-01
    15    5.113742592671e-05
    16   -1.673633913285e-03
    17    1.861936107578e-03
    18   -3.288529604787e-02
    19   -1.712917396584e-03
    20    2.021858258525e-02
    21   -1.693471721605e+00
    22    1.659361184873e-03
    23   -2.291359565482e-02
    24   -1.276441419288e-03
    25   -2.215184180652e-04
    26    8.966437902893e-05
    27    5.962585191500e-03
    28    1.338812935782e-01
    29    1.403186465976e-01
    30    1.473279409222e-02
    31    1.141488280203e+00
    32    1.193923683396e+00
    33    1.253415903299e-01
    34   -1.408424580915e-04
    35   -1.606322430857e-03
    36    1.934089249098e-03
    37   -3.283799928747e-02
    38   -1.604602544341e-03
    39    1.991763956280e-02
    40   -1.693073870695e+00
    41   -1.585592202052e-03
    42    2.301501536368e-02
    43    1.303015803200e-03
    44   -2.026848945347e-02
    45    1.690967496357e+00
    46    2.298183847553e-02
    47   -4.399967516575e-04
    48    1.060164411435e-03
Sym=X
Ene= 0.462610
Spin=Alpha
Occup=0
     1   -1.134744347365e-01
     2   -7.159456497611e-01
     3   -1.551394252741e-02
     4   -9.932180378167e-03
     5   -1.323974562745e-03
     6    6.114657857495e-02
     7    1.626977263255e-02
     8   -3.598724875151e+00
     9    1.045715070231e-01
    10   -9.927889939009e-02
    11   -1.017496344079e-03
    12    2.431904731196e+00
    13   -2.307521376736e+00
    14   -2.119662894776e-02
    15    5.290490066681e-02
    16   -3.271118566397e-03
    17   -4.551486938888e-03
    18   -8.245873233768e-04
    19    1.870447275408e-02
    20   -1.149153303114e-01
    21   -7.158594755300e-01
    22    8.922940633591e-03
    23    1.619462415564e-02
    24    1.385752451017e-03
    25   -6.116865407389e-02
    26   -1.631963812508e-02
    27    3.600333002778e+00
    28    1.041464939724e-01
    29   -9.965441449927e-02
    30   -1.219524785854e-03
    31    2.431576429896e+00
    32   -2.307615754854e+00
    33   -2.194123849349e-02
    34   -5.300444877426e-02
    35    3.320268053433e-03
    36    4.555859621082e-03
    37    9.868611893637e-04
    38   -1.866285348809e-02
    39    1.162690334278e-01
    40    7.115472727895e-01
    41    8.805798920864e-03
    42    1.613318360435e-02
    43    1.375804210577e-03
    44    1.131806437478e-01
    45    7.178438360137e-01
    46   -1.556781815784e-02
    47   -1.010691251316e-02
    48   -1.348686490291e-03
Sym=X
Ene= 0.577990
Spin=Alpha
Occup=0
     1   -2.487010424656e-01
     2   -4.790202423559e-02
     3    1.869562056045e-02
     4   -2.566017677132e-02
     5   -6.404108639547e-04
     6    5.252540875172e-03
     7    1.595122594121e-01
     8    4.381716704721e-01
     9   -3.005268696785e-01
    10    2.861582236688e-01
    11    2.734944259717e-03
    12    7.478869700808e-01
    13   -7.145070065449e-01
    14   -7.185213333349e-03
    15    4.893696233408e-03
    16   -3.847810700701e-03
    17   -3.558859730240e-03
    18    3.155301964739e-03
    19   -6.000091671843e-02
    20   -2.470627305087e-01
    21   -4.897899946088e-02
    22    2.694615208828e-02
    23   -1.743329431242e-02
    24    2.402206576649e-04
    25    5.205373128520e-03
    26    1.595517910150e-01
    27    4.403085166710e-01
    28    2.998061669469e-01
    29   -2.871407443266e-01
    30   -2.806541894199e-03
    31   -7.431343657141e-01
    32    7.142088915761e-01
    33    7.560058606360e-03
    34    4.931932517551e-03
    35   -3.811766032455e-03
    36   -3.611678095624e-03
    37    3.946704362752e-03
    38   -5.997348606231e-02
    39   -2.513329827264e-01
    40   -4.330573214460e-02
    41   -2.661520356469e-02
    42    1.712931966664e-02
    43   -2.285577818718e-04
    44   -2.445153965902e-01
    45   -5.031190711208e-02
    46   -1.911532732250e-02
    47    2.603794502021e-02
    48    6.590542461255e-04
Sym=X
Ene= 0.614108
Spin=Alpha
Occup=0
     1    5.178331969310e-01
     2   -2.049656265523e-01
     3    6.095823480024e-02
     4   -3.770550918845e-02
     5    6.560485703905e-04
     6    1.792001501740e-04
     7   -1.139324152452e-03
     8    1.651017891712e-02
     9    3.943886608284e-02
    10    4.191949068371e-02
    11    4.381073721558e-03
    12   -2.918737268968e-01
    13   -2.995887214933e-01
    14   -3.158950228767e-02
    15   -8.675390486620e-04
    16    7.516048057856e-03
    17   -8.371285343954e-03
    18    1.478997443964e-01
    19    7.033811325945e-03
    20   -5.152219438411e-01
    21    2.018434817375e-01
    22   -4.066187990722e-02
    23    5.831665918349e-02
    24    1.539856049581e-03
    25   -3.549754230580e-04
    26    1.545245084693e-04
    27   -5.695254004887e-03
    28    4.077237390923e-02
    29    3.986023898788e-02
    30    4.299162756518e-03
    31   -2.975718974413e-01
    32   -2.893808833067e-01
    33   -3.145511882784e-02
    34    1.204917249812e-03
    35   -7.442302093022e-03
    36    8.463804265139e-03
    37   -1.479849392820e-01
    38   -7.192468453117e-03
    39    5.117011569075e-01
    40   -2.061480001637e-01
    41   -4.123241107299e-02
    42    5.842889483501e-02
    43    1.554235846964e-03
    44   -5.215239878347e-01
    45    2.049536110551e-01
    46    6.089559102681e-02
    47   -3.727661757009e-02
    48    6.332375068741e-04
Sym=X
Ene= 0.689144
Spin=Alpha
Occup=0
     1    3.432923815970e-04
     2    2.211898236332e-04
     3    1.031959655353e-03
     4    1.285818488454e-03
     5   -2.101471961744e-02
     6    2.153969954794e-05
     7    1.521970140267e-04
     8    1.936840988024e-04
     9    3.166517849869e-02
    10    3.994453673072e-02
    11   -6.701479434640e-01
    12   -2.960487707069e-02
    13   -3.594582530144e-02
    14    6.134804811920e-01
    15   -1.346988206009e-03
    16    8.274892041414e-02
    17   -7.843685517153e-02
    18   -8.617410032072e-03
    19   -1.109424582951e-03
    20    3.565183703480e-04
    21    1.412857696017e-04
    22    9.649239700386e-04
    23    1.224892435920e-03
    24   -2.133464763695e-02
    25    1.810052362802e-06
    26    3.597934470316e-04
    27   -4.993839606200e-04
    28    3.184759704139e-02
    29    3.995445514608e-02
    30   -6.702224016258e-01
    31   -2.980206934427e-02
    32   -3.598425538049e-02
    33    6.134366988763e-01
    34    1.181132990179e-03
    35   -8.271033582007e-02
    36    7.841063419227e-02
    37    8.580549659778e-03
    38    1.168697890158e-03
    39    6.478143659273e-06
    40   -5.216516119082e-04
    41    9.956997260690e-04
    42    1.349789862402e-03
    43   -2.106666133961e-02
    44   -1.305485490454e-05
    45   -4.373070162234e-04
    46    9.123869452325e-04
    47    1.267736605574e-03
    48   -2.104932464131e-02
Sym=X
Ene= 0.709586
Spin=Alpha
Occup=0
     1   -4.770322538873e-01
     2    1.483395120743e-01
     3   -8.021104559558e-02
     4   -4.459986845762e-02
     5   -6.491036323868e-03
     6   -4.709773216605e-02
     7   -3.213201237775e-01
     8    4.915881202205e-01
     9    2.025500942338e-01
    10   -1.895700903544e-01
    11   -1.966637837173e-03
    12   -7.113358348913e-02
    13    5.867720404648e-02
    14    1.410051284135e-05
    15    1.937363276767e-01
    16   -2.044553216771e-02
    17   -2.389854729260e-02
    18    2.923351487364e-03
    19   -7.646223342145e-02
    20   -4.739648400061e-01
    21    1.367166063446e-01
    22    4.076036805504e-02
    23    8.132618035545e-02
    24    6.735030275753e-03
    25   -4.747664591384e-02
    26   -3.200697191079e-01
    27    4.968543643748e-01
    28   -2.012647921766e-01
    29    1.904320327575e-01
    30    1.495085697583e-03
    31    7.563468055582e-02
    32   -6.418343401677e-02
    33    5.799096808334e-04
    34    1.944472870377e-01
    35   -2.050679610427e-02
    36   -2.406761805365e-02
    37    3.516389291286e-03
    38   -7.667226359376e-02
    39   -4.787742586523e-01
    40    1.441577640292e-01
    41   -4.092813718087e-02
    42   -8.192779259411e-02
    43   -6.816750725381e-03
    44   -4.772651917667e-01
    45    1.498460667395e-01
    46    8.036339476755e-02
    47    4.455481223774e-02
    48    6.483404524880e-03
Sym=X
Ene= 0.784632
Spin=Alpha
Occup=0
     1   -5.324416759555e-01
     2    4.625644657185e-01
     3   -1.105618513820e-01
     4   -2.665488895437e-02
     5   -6.837467763523e-03
     6   -9.125622952463e-02
     7    2.124296126084e-01
     8    6.349556669240e-01
     9   -1.108397701130e-01
    10    1.073449687792e-01
    11    5.060881735146e-04
    12   -2.986402308791e-01
    13    2.739266194680e-01
    14    3.151850975423e-03
    15    2.079826314785e-01
    16   -1.759976827813e-02
    17   -2.194054089096e-02
    18    9.046055437437e-04
    19   -7.651128757999e-03
    20   -5.375376298868e-01
    21    4.566024908911e-01
    22    2.005711081450e-02
    23    1.123880534278e-01
    24    7.619688714986e-03
    25    9.097360878749e-02
    26   -2.155310406856e-01
    27   -6.286286300880e-01
    28   -1.112918029745e-01
    29    1.079963141428e-01
    30    1.569670465017e-03
    31   -2.990823476691e-01
    32    2.752273116459e-01
    33    1.138314891589e-03
    34   -2.068864975518e-01
    35    1.744230077477e-02
    36    2.198107392424e-02
    37   -1.136218359589e-04
    38    7.417282499989e-03
    39    5.357753774726e-01
    40   -4.582178352056e-01
    41    2.020628039081e-02
    42    1.116454910217e-01
    43    7.631256377886e-03
    44    5.303095305172e-01
    45   -4.631358964472e-01
    46   -1.105612096288e-01
    47   -2.612178842202e-02
    48   -6.798088168575e-03
Sym=X
Ene= 0.807950
Spin=Alpha
Occup=0
     1   -3.302576862540e-04
     2    4.625737038445e-04
     3   -1.691929410420e-03
     4   -2.021589334310e-03
     5    3.385852568132e-02
     6   -7.080816669978e-05
     7    3.093188337231e-04
     8    4.741900588693e-06
     9   -3.635551661322e-02
    10   -4.514885972948e-02
    11    7.631181839530e-01
    12    5.332491840918e-02
    13    6.698846159157e-02
    14   -1.127047063171e+00
    15   -8.206175058188e-04
    16    6.518678228265e-02
    17   -6.183433722208e-02
    18   -6.808748196330e-03
    19   -8.751797150822e-04
    20   -3.327106874823e-04
    21    2.249394663666e-04
    22   -1.644148376611e-03
    23   -1.981649634529e-03
    24    3.433952436305e-02
    25    5.458577509287e-05
    26    4.840294726575e-05
    27   -1.949471714259e-04
    28    3.609196188482e-02
    29    4.570240878796e-02
    30   -7.630936448345e-01
    31   -5.373338869444e-02
    32   -6.710314735425e-02
    33    1.126943173355e+00
    34   -1.199441585626e-03
    35    6.522751397399e-02
    36   -6.179473819292e-02
    37   -6.744621331634e-03
    38   -9.588436100942e-04
    39    3.260274833258e-04
    40   -3.303450655296e-04
    41    1.579855899688e-03
    42    2.190103504416e-03
    43   -3.423945257013e-02
    44    3.300033225173e-04
    45   -5.563106033707e-04
    46    1.427241989102e-03
    47    2.030317853045e-03
    48   -3.374544571315e-02
Sym=X
Ene= 0.862292
Spin=Alpha
Occup=0
     1    1.163159801824e-02
     2   -1.096071243361e+00
     3    1.483318361527e-01
     4    5.590119152604e-02
     5    1.033159537135e-02
     6   -2.754490853837e-04
     7   -1.960642009867e-03
     8    1.246285573248e-03
     9   -4.063943919539e-01
    10   -4.273519156775e-01
    11   -4.460478213149e-02
    12    9.446157779231e-01
    13    9.977005787029e-01
    14    1.039493788425e-01
    15    7.417573890988e-04
    16    1.181529603768e-02
    17   -1.365954203287e-02
    18    2.365646504427e-01
    19    1.182045449068e-02
    20   -1.408562212699e-02
    21    1.101173855393e+00
    22    4.824138489326e-02
    23    1.516688384068e-01
    24    1.133711323793e-02
    25    9.816305139565e-05
    26   -1.167861455899e-03
    27    6.388897824284e-04
    28   -4.084094085624e-01
    29   -4.286233688057e-01
    30   -4.502930734999e-02
    31    9.498466031529e-01
    32    9.979447951377e-01
    33    1.047795802645e-01
    34    2.084816696146e-05
    35   -1.181558287011e-02
    36    1.365461410543e-02
    37   -2.367281828029e-01
    38   -1.102955868117e-02
    39    1.487105152491e-02
    40   -1.103562404286e+00
    41    4.872382910501e-02
    42    1.521354298131e-01
    43    1.145210284068e-02
    44   -1.315517211055e-02
    45    1.098350337210e+00
    46    1.488065296000e-01
    47    5.556998107934e-02
    48    1.030825865010e-02
Sym=X
Ene= 0.936083
Spin=Alpha
Occup=0
     1    1.161248624474e-01
     2   -1.292067520093e+00
     3    1.833136583030e-01
     4   -4.439842789678e-03
     5    8.481228528117e-03
     6   -2.814008839729e-04
     7   -4.198428262173e-03
     8    2.463746180227e-03
     9   -4.770209158217e-01
    10   -4.960189754463e-01
    11   -5.212815380970e-02
    12    1.472919842382e+00
    13    1.528633988295e+00
    14    1.607949100855e-01
    15    9.791993712757e-04
    16    6.225041067824e-03
    17   -6.906721753355e-03
    18    1.220942570487e-01
    19    7.463192264750e-03
    20   -1.165360391358e-01
    21    1.277860498736e+00
    22   -1.461400884614e-02
    23    1.817329761099e-01
    24    1.005509975021e-02
    25    8.727537690039e-05
    26   -1.050408668744e-03
    27    8.075812868370e-03
    28    4.706628009781e-01
    29    5.000119080018e-01
    30    5.214832554561e-02
    31   -1.454219536010e+00
    32   -1.540318228815e+00
    33   -1.608418522073e-01
    34    4.650314460378e-04
    35    5.838612480142e-03
    36   -7.206403853266e-03
    37    1.211092993116e-01
    38    2.833895846373e-03
    39   -1.174338918513e-01
    40    1.284661842070e+00
    41    1.303843036424e-02
    42   -1.824070624157e-01
    43   -1.026900170003e-02
    44    1.147363584055e-01
    45   -1.276117320156e+00
    46   -1.815641250744e-01
    47    6.026982320687e-03
    48   -8.256858482730e-03
Sym=X
Ene= 0.972821
Spin=Alpha
Occup=0
     1   -6.576326351415e-02
     2    9.055019120945e-01
     3   -8.848684462982e-02
     4   -9.849214774204e-02
     5   -1.004318094339e-02
     6    2.500645703783e-02
     7    2.446711717372e-01
     8    5.303128658088e-01
     9    4.756691830056e-01
    10   -4.573315074163e-01
    11   -4.522977153769e-03
    12   -1.476794286573e+00
    13    1.426822398855e+00
    14    1.442467813360e-02
    15   -5.193377562503e-02
    16   -1.274343809850e-02
    17   -9.942536796164e-03
    18    1.620831184358e-02
    19   -2.990008360989e-01
    20   -6.343050057858e-02
    21    9.246025098408e-01
    22    9.416438247438e-02
    23    9.554025794351e-02
    24    1.016924067489e-02
    25   -2.509011933627e-02
    26   -2.509521517331e-01
    27   -5.198227779607e-01
    28    4.822448616050e-01
    29   -4.522169643290e-01
    30   -4.304604533134e-03
    31   -1.503302847624e+00
    32    1.402883844826e+00
    33    1.284078109108e-02
    34    5.226485460045e-02
    35    1.282605547930e-02
    36    9.855574557899e-03
    37   -1.429798873063e-02
    38    2.997355161633e-01
    39    6.463860759940e-02
    40   -9.081601320446e-01
    41    9.475684070793e-02
    42    9.357402308281e-02
    43    1.016881524006e-02
    44    6.488328655319e-02
    45   -9.290816980391e-01
    46   -9.163548278829e-02
    47   -9.851442336878e-02
    48   -1.012269625211e-02
[5D]

======= END OF MOLDEN-FORMATTED INPUT FILE =======


        *************************************************************
        *                                                           *
        *  Thank you very much for using Q-Chem.  Have a nice day.  *
        *                                                           *
        *************************************************************


