                  Welcome to Q-Chem
     A Quantum Leap Into The Future Of Chemistry


 Q-Chem 5.4 (devel), Q-Chem, Inc., Pleasanton, CA (2021)

 E. Epifanovsky,  A. T. B. Gilbert,  Xintian Feng,  Joonho Lee,  Yuezhi Mao,  
 N. Mardirossian,  P. Pokhilko,  A. White,  M. Wormit,  M. P. Coons,  
 A. L. Dempwolff,  Zhengting Gan,  D. Hait,  P. R. Horn,  L. D. Jacobson,  
 I. Kaliman,  J. Kussmann,  A. W. Lange,  Ka Un Lao,  D. S. Levine,  Jie Liu,  
 S. C. McKenzie,  A. F. Morrison,  K. Nanda,  F. Plasser,  D. R. Rehn,  
 M. L. Vidal,  Zhi-Qiang You,  Ying Zhu,  B. Alam,  B. Albrecht,  
 A. Aldossary,  E. Alguire,  J. H. Andersen,  D. Barton,  K. Begam,  A. Behn,  
 Y. A. Bernard,  E. J. Berquist,  H. Burton,  A. Carreras,  K. Carter-Fenk,  
 R. Chakraborty,  A. D. Chien,  K. D. Closser,  V. Cofer-Shabica,  
 S. Dasgupta,  Jia Deng,  M. de Wergifosse,  M. Diedenhofen,  Hainam Do,  
 S. Ehlert,  Po-Tung Fang,  S. Fatehi,  Qingguo Feng,  T. Friedhoff,  
 J. Gayvert,  Qinghui Ge,  G. Gidofalvi,  M. Goldey,  J. Gomes,  
 C. Gonzalez-Espinoza,  S. Gulania,  A. Gunina,  M. W. D. Hanson-Heine,  
 P. H. P. Harbach,  A. W. Hauser,  M. F. Herbst,  M. Hernandez Vera,  
 M. Hodecker,  Z. C. Holden,  S. Houck,  Xunkun Huang,  Kerwin Hui,  
 B. C. Huynh,  M. Ivanov,  Hyunjun Ji,  Hanjie Jiang,  B. Kaduk,  S. Kaehler,  
 K. Khistyaev,  Jaehoon Kim,  P. Klunzinger,  Z. Koczor-Benda,  
 Joong Hoon Koh,  D. Kosenkov,  L. Koulias,  T. Kowalczyk,  C. M. Krauter,  
 K. Kue,  A. Kunitsa,  T. Kus,  A. Landau,  K. V. Lawler,  D. Lefrancois,  
 S. Lehtola,  Rain Li,  Yi-Pei Li,  Jiashu Liang,  M. Liebenthal,  
 Hung-Hsuan Lin,  You-Sheng Lin,  Fenglai Liu,  Kuan-Yu Liu,  
 M. Loipersberger,  A. Luenser,  A. Manjanath,  P. Manohar,  E. Mansoor,  
 S. F. Manzer,  Shan-Ping Mao,  A. V. Marenich,  T. Markovich,  S. Mason,  
 S. A. Maurer,  P. F. McLaughlin,  M. F. S. J. Menger,  J.-M. Mewes,  
 S. A. Mewes,  P. Morgante,  J. W. Mullinax,  K. J. Oosterbaan,  G. Paran,  
 Alexander C. Paul,  Suranjan K. Paul,  F. Pavosevic,  Zheng Pei,  S. Prager,  
 E. I. Proynov,  E. Ramos,  B. Rana,  A. E. Rask,  A. Rettig,  R. M. Richard,  
 F. Rob,  E. Rossomme,  T. Scheele,  M. Scheurer,  M. Schneider,  
 N. Sergueev,  S. M. Sharada,  W. Skomorowski,  D. W. Small,  C. J. Stein,  
 Yu-Chuan Su,  E. J. Sundstrom,  Zhen Tao,  J. Thirman,  T. Tsuchimochi,  
 N. M. Tubman,  S. P. Veccham,  O. Vydrov,  J. Wenzel,  J. Witte,  A. Yamada,  
 Kun Yao,  S. Yeganeh,  S. R. Yost,  A. Zech,  Igor Ying Zhang,  Xing Zhang,  
 Yu Zhang,  D. Zuev,  A. Aspuru-Guzik,  A. T. Bell,  N. A. Besley,  
 K. B. Bravaya,  B. R. Brooks,  D. Casanova,  Jeng-Da Chai,  S. Coriani,  
 C. J. Cramer,  A. E. DePrince, III,  R. A. DiStasio Jr.,  A. Dreuw,  
 B. D. Dunietz,  T. R. Furlani,  W. A. Goddard III,  S. Grimme,  
 S. Hammes-Schiffer,  T. Head-Gordon,  W. J. Hehre,  Chao-Ping Hsu,  
 T.-C. Jagau,  Yousung Jung,  A. Klamt,  Jing Kong,  D. S. Lambrecht,  
 WanZhen Liang,  N. J. Mayhall,  C. W. McCurdy,  J. B. Neaton,  
 C. Ochsenfeld,  J. A. Parkhill,  R. Peverati,  V. A. Rassolov,  Yihan Shao,  
 L. V. Slipchenko,  T. Stauch,  R. P. Steele,  J. E. Subotnik,  
 A. J. W. Thom,  A. Tkatchenko,  D. G. Truhlar,  T. Van Voorhis,  
 T. A. Wesolowski,  K. B. Whaley,  H. L. Woodcock III,  P. M. Zimmerman,  
 S. Faraji,  P. M. W. Gill,  M. Head-Gordon,  J. M. Herbert,  A. I. Krylov

 Additional authors for Version 5.4.1: 
 S. Kotaru,  Shaozhi Li,  Xiangyuan Li,  F. Matz,  A. Molle,  Haisheng Ren,  
 Yingli Su,  Hung-Yi Tsai,  C. Utku,  Fang Wang

 Contributors to earlier versions of Q-Chem not listed above: 
 R. D. Adamson,  B. Austin,  R. Baer,  J. Baker,  G. J. O. Beran,  
 K. Brandhorst,  S. T. Brown,  E. F. C. Byrd,  A. K. Chakraborty,  
 G. K. L. Chan,  Chun-Min Chang,  Yunqing Chen,  C.-L. Cheng,  
 Siu Hung Chien,  D. M. Chipman,  D. L. Crittenden,  H. Dachsel,  
 R. J. Doerksen,  A. D. Dutoi,  R. G. Edgar,  J. Fosso-Tande,  
 L. Fusti-Molnar,  D. Ghosh,  A. Ghysels,  A. Golubeva-Zadorozhnaya,  
 J. Gonthier,  M. S. Gordon,  S. R. Gwaltney,  G. Hawkins,  J. E. Herr,  
 A. Heyden,  S. Hirata,  E. G. Hohenstein,  G. Kedziora,  F. J. Keil,  
 C. Kelley,  Jihan Kim,  R. A. King,  R. Z. Khaliullin,  P. P. Korambath,  
 W. Kurlancheek,  A. Laurent,  A. M. Lee,  M. S. Lee,  S. V. Levchenko,  
 Ching Yeh Lin,  D. Liotard,  E. Livshits,  R. C. Lochan,  I. Lotan,  
 L. A. Martinez-Martinez,  P. E. Maslen,  N. Nair,  D. P. O'Neill,  
 D. Neuhauser,  E. Neuscamman,  C. M. Oana,  R. Olivares-Amaya,  R. Olson,  
 T. M. Perrine,  B. Peters,  P. A. Pieniazek,  A. Prociuk,  Y. M. Rhee,  
 J. Ritchie,  M. A. Rohrdanz,  E. Rosta,  N. J. Russ,  H. F. Schaefer III,  
 M. W. Schmidt,  N. E. Schultz,  S. Sharma,  N. Shenvi,  C. D. Sherrill,  
 A. C. Simmonett,  A. Sodt,  T. Stein,  D. Stuck,  K. S. Thanthiriwatte,  
 V. Vanovschi,  L. Vogt,  Tao Wang,  A. Warshel,  M. A. Watson,  
 C. F. Williams,  Q. Wu,  X. Xu,  Jun Yang,  W. Zhang,  Yan Zhao

 Please cite Q-Chem as follows:
 Y. Shao et al., Mol. Phys. 113, 184-215 (2015)
 DOI: 10.1080/00268976.2014.952696

 Q-Chem 5.4.1 for Intel X86 EM64T Linux

 Parts of Q-Chem use Armadillo 9.800.1 (Horizon Scraper).
 http://arma.sourceforge.net/

 Q-Chem begins on Tue Mar 21 11:30:24 2023  

 Host: cpu186.baobab
0

     Scratch files written to /scratch/fum/qchem57647//
 Processing $rem in /home/share/wesolowski/qc5.aug2021.FDE/config/preferences:
 Processing $rem in /home/fum/.qchemrc:

 Checking the input file for inconsistencies... 	...done.

--------------------------------------------------------------
User input:
--------------------------------------------------------------
$comment
generated from CCJob.Templates
$end

$rem
sym_ignore = true
method = adc(2)
ee_states = 10
basis = cc-pVDZ
mem_static = 1024
mem_total = 40000
adc_davidson_maxiter = 900
adc_davidson_conv = 6
adc_print = 3
adc_prop_es = true
adc_prop_es2es = true
adc_prop_tpa = true
molden_format = True
state_analysis = true
print_orbitals = 15
gen_scfman = false
fde_export_density = true
fde_details = 3
$end

$molecule
0 1
H -0.02194708741525475 -0.24512819475341674 0.06522414125510734
C -1.0772537151036021 -0.5250433510116594 -0.0023690403972206403
H -1.3030707118373772 -1.5927357603413281 -0.07777242246468828
C -2.044102353103499 0.39321853068825374 0.006603919902788594
H -1.8233765310372885 1.462783985158657 0.0818463040352637
H -3.101534778915203 0.11826061054647982 -0.06070418404489635                     
$end
--------------------------------------------------------------
 ----------------------------------------------------------------
             Standard Nuclear Orientation (Angstroms)
    I     Atom           X                Y                Z
 ----------------------------------------------------------------
    1      H      -0.0219470874    -0.2451281948     0.0652241413
    2      C      -1.0772537151    -0.5250433510    -0.0023690404
    3      H      -1.3030707118    -1.5927357603    -0.0777724225
    4      C      -2.0441023531     0.3932185307     0.0066039199
    5      H      -1.8233765310     1.4627839852     0.0818463040
    6      H      -3.1015347789     0.1182606105    -0.0607041840
 ----------------------------------------------------------------
 Nuclear Repulsion Energy =          33.20991790 hartrees
 There are        8 alpha and        8 beta electrons
 Requested basis set is cc-pVDZ
 There are 24 shells and 48 basis functions
 Total memory of 40000 MB is distributed as follows: 
   MEM_STATIC is set to 1024 MB
   QALLOC/CCMAN JOB total memory use is  38976 MB
 Warning: actual memory use might exceed 40000 MB

 Total QAlloc Memory Limit  40000 MB
 Mega-Array Size      1001 MB
 MEM_STATIC part      1024 MB

                       Distance Matrix (Angstroms)
             H (  1)   C (  2)   H (  3)   C (  4)   H (  5)
   C (  2)  1.093889
   H (  3)  1.864879  1.093913
   C (  4)  2.121329  1.333447  2.121382
   H (  5)  2.482416  2.124912  3.103610  1.094692
   H (  6)  3.103509  2.124843  2.482393  1.094667  1.860578

 A cutoff of  1.0D-11 yielded    300 shell pairs
 There are      1220 function pairs (      1329 Cartesian)
 Smallest overlap matrix eigenvalue = 4.81E-03

 Scale SEOQF with 1.000000e-01/1.000000e-01/1.000000e+00

 Standard Electronic Orientation quadrupole field applied
 Nucleus-field energy     =     0.0000000022 hartrees
 Guess from superposition of atomic densities
 Warning:  Energy on first SCF cycle will be non-variational
 SAD guess density has 16.000000 electrons
 A restricted Hartree-Fock SCF calculation will be
 performed using Pulay DIIS extrapolation
 SCF converges when DIIS error is below 1.0E-08
 using 10 threads for integral computing
 -------------------------------------------------------
 OpenMP Integral computing Module                
 Release: version 1.0, May 2013, Q-Chem Inc. Pittsburgh 
 -------------------------------------------------------
 ---------------------------------------
  Cycle       Energy         DIIS Error
 ---------------------------------------
    1     -78.3977754755      9.93E-02
    2     -78.0175857468      7.13E-03
    3     -78.0380517980      1.83E-03
    4     -78.0395279297      5.64E-04
    5     -78.0396455471      5.81E-05
    6     -78.0396474107      9.30E-06
    7     -78.0396474721      1.96E-06
    8     -78.0396474749      3.17E-07
    9     -78.0396474749      1.10E-07
   10     -78.0396474749      1.26E-08
   11     -78.0396474749      3.25E-09 Convergence criterion met
 ---------------------------------------
 SCF time:  CPU 2.13 s  wall 2.69 s
 SCF   energy in the final basis set = -78.03964747
 Total energy in the final basis set = -78.03964747
Exporting Density Matrix to file 'Densmat_SCF.txt'.
Export successful
================================================================================
|                                                                              |
|                                 A D C  M A N                                 |
|                                                                              |
 ------------------------------------------------------------------------------ 
|                                                                              |
| Components:                                                                  |
|                                                                              |
| - libvmm - 1.3-trunk                                                         |
|   Authors:                                                                   |
|   Evgeny Epifanovsky, Ilya Kaliman                                           |
|                                                                              |
| - libtensor - 2.5-trunk                                                      |
|   Authors:                                                                   |
|   Evgeny Epifanovsky, Michael Wormit, Dmitry Zuev, Sam Manzer,               |
|   Ilya Kaliman                                                               |
|                                                                              |
| - libwfa - 1.1-trunk                                                         |
|   Authors:                                                                   |
|   Felix Plasser, Stefanie Mewes (Baeppler), Benjamin Thomitzni,              |
|   Michael Wormit, Feng Chen, Anna I. Krylov, Pavel Pokhilko                  |
|                                                                              |
| - libadc - 1.1-trunk                                                         |
|   Authors:                                                                   |
|   Michael Wormit, Adrian L. Dempwolff, Philipp H. P. Harbach,                |
|   Caroline Krauter, Dirk Rehn, Matthias Schneider, Jan Wenzel                |
|                                                                              |
| - adcman - 2.6-trunk                                                         |
|   Authors:                                                                   |
|   Michael Wormit, Adrian L. Dempwolff, Philipp H. P. Harbach,                |
|   Caroline Krauter, Daniel Lefrancois, Jan-Michael Mewes, Dirk Rehn,         |
|   Matthias Schneider, Jan Wenzel, Andreas Dreuw                              |
|                                                                              |
| Authors of earlier versions of ADCMAN:                                       |
| Andreas Dreuw, Jan Hendrik Starcke, Dirk Rehn, Michael Wormit                |
|                                                                              |
================================================================================

 Created directory /scratch/fum/qchem57647/plots
  Import QC data ...  CPU 0.00 s  wall 0.00 s

 Alpha MOs, Restricted
 -- Occupied --                  
-11.239 -11.237  -1.030  -0.786  -0.635  -0.582  -0.500  -0.374
  1 A     2 A     3 A     4 A     5 A     6 A     7 A     8 A                  
 -- Virtual --                   
  0.168   0.203   0.231   0.236   0.303   0.463   0.580   0.609
  9 A    10 A    11 A    12 A    13 A    14 A    15 A    16 A                  
  0.689   0.705   0.776   0.807   0.858   0.928   0.971   1.006
 17 A    18 A    19 A    20 A    21 A    22 A    23 A    24 A                  
  1.130   1.237   1.241   1.263   1.291   1.593   1.728   1.745
 25 A    26 A    27 A    28 A    29 A    30 A    31 A    32 A                  
  1.811   1.851   1.855   1.901   1.963   1.972   2.224   2.248
 33 A    34 A    35 A    36 A    37 A    38 A    39 A    40 A                  
  2.356   2.423   2.493   2.623   2.679   2.795   3.099   3.369
 41 A    42 A    43 A    44 A    45 A    46 A    47 A    48 A                  

 Beta MOs, Restricted
 -- Occupied --                  
-11.239 -11.237  -1.030  -0.786  -0.635  -0.582  -0.500  -0.374
  1 A     2 A     3 A     4 A     5 A     6 A     7 A     8 A                  
 -- Virtual --                   
  0.168   0.203   0.231   0.236   0.303   0.463   0.580   0.609
  9 A    10 A    11 A    12 A    13 A    14 A    15 A    16 A                  
  0.689   0.705   0.776   0.807   0.858   0.928   0.971   1.006
 17 A    18 A    19 A    20 A    21 A    22 A    23 A    24 A                  
  1.130   1.237   1.241   1.263   1.291   1.593   1.728   1.745
 25 A    26 A    27 A    28 A    29 A    30 A    31 A    32 A                  
  1.811   1.851   1.855   1.901   1.963   1.972   2.224   2.248
 33 A    34 A    35 A    36 A    37 A    38 A    39 A    40 A                  
  2.356   2.423   2.493   2.623   2.679   2.795   3.099   3.369
 41 A    42 A    43 A    44 A    45 A    46 A    47 A    48 A                  
  Import AO data ...  CPU 0.00 s  wall 0.00 s
  Using point group: C1
  Irreducible representations in point group: A
  Molecular orbitals: 
  Occupied MOs:
  Block   0:   1 (  A) A   2 (  A) A   3 (  A) A   4 (  A) A   5 (  A) A
                  -11.24      -11.24       -1.03     -0.7859      -0.635
               6 (  A) A   7 (  A) A   8 (  A) A
                 -0.5823     -0.4995     -0.3744
  Block   1:   1 (  A) B   2 (  A) B   3 (  A) B   4 (  A) B   5 (  A) B
                  -11.24      -11.24       -1.03     -0.7859      -0.635
               6 (  A) B   7 (  A) B   8 (  A) B
                 -0.5823     -0.4995     -0.3744
  Virtual MOs:
  Block   0:   9 (  A) A  10 (  A) A  11 (  A) A  12 (  A) A  13 (  A) A
                  0.1679      0.2026       0.231      0.2364       0.303
              14 (  A) A  15 (  A) A  16 (  A) A  17 (  A) A  18 (  A) A
                  0.4628      0.5798      0.6089      0.6887      0.7048
              19 (  A) A  20 (  A) A  21 (  A) A  22 (  A) A
                  0.7757      0.8074      0.8584       0.928
  Block   1:  23 (  A) A  24 (  A) A  25 (  A) A  26 (  A) A  27 (  A) A
                  0.9706       1.006        1.13       1.237       1.241
              28 (  A) A  29 (  A) A  30 (  A) A  31 (  A) A  32 (  A) A
                   1.263       1.291       1.593       1.728       1.745
              33 (  A) A  34 (  A) A  35 (  A) A  36 (  A) A
                   1.811       1.851       1.855       1.901
  Block   2:  37 (  A) A  38 (  A) A  39 (  A) A  40 (  A) A  41 (  A) A
                   1.963       1.972       2.224       2.248       2.356
              42 (  A) A  43 (  A) A  44 (  A) A  45 (  A) A  46 (  A) A
                   2.423       2.493       2.623       2.679       2.795
              47 (  A) A  48 (  A) A
                   3.099       3.369
  Block   3:   9 (  A) B  10 (  A) B  11 (  A) B  12 (  A) B  13 (  A) B
                  0.1679      0.2026       0.231      0.2364       0.303
              14 (  A) B  15 (  A) B  16 (  A) B  17 (  A) B  18 (  A) B
                  0.4628      0.5798      0.6089      0.6887      0.7048
              19 (  A) B  20 (  A) B  21 (  A) B  22 (  A) B
                  0.7757      0.8074      0.8584       0.928
  Block   4:  23 (  A) B  24 (  A) B  25 (  A) B  26 (  A) B  27 (  A) B
                  0.9706       1.006        1.13       1.237       1.241
              28 (  A) B  29 (  A) B  30 (  A) B  31 (  A) B  32 (  A) B
                   1.263       1.291       1.593       1.728       1.745
              33 (  A) B  34 (  A) B  35 (  A) B  36 (  A) B
                   1.811       1.851       1.855       1.901
  Block   5:  37 (  A) B  38 (  A) B  39 (  A) B  40 (  A) B  41 (  A) B
                   1.963       1.972       2.224       2.248       2.356
              42 (  A) B  43 (  A) B  44 (  A) B  45 (  A) B  46 (  A) B
                   2.423       2.493       2.623       2.679       2.795
              47 (  A) B  48 (  A) B
                   3.099       3.369
  Import MO data ...  CPU 0.02 s  wall 0.01 s
  Import HF data ...  CPU 0.55 s  wall 0.18 s
  Import 2e integrals ...  CPU 1.11 s  wall 0.20 s

--------------------------------------------------------------------------------
                                   HF Summary                                   
--------------------------------------------------------------------------------
  Energy:                                                  -78.0396474749 a.u.
  Dip. moment [a.u.]:                  [  -0.000576,    0.000545,    0.000021]
  Total dipole [Debye]:                                               0.002016
  <r^2> [a.u.]:                        [ 175.782684,   35.299104,   11.680410]
  Total <r^2> [a.u.]:                                               222.762198
--------------------------------------------------------------------------------
  HF properties ...  CPU 0.07 s  wall 0.03 s
  MP(1) calculation ...  CPU 0.01 s  wall 0.02 s
  N^6 prerequesite intermediates ...  CPU 0.70 s  wall 0.14 s
  Difference density matrix of state mp2_gs printed to ASCII file 'State_mp2_gs_Difference.txt'
Exporting MP density matrix to file 'Densmat_MP.txt'.
Export successful
  Total density matrix of state mp2_gs printed to ASCII file 'State_mp2_gs_Total.txt'
Exporting MP density matrix to file 'Densmat_MP.txt'.
Export successful

--------------------------------------------------------------------------------
                                 MP(2) Summary                                  
--------------------------------------------------------------------------------
  MP energy contribution:                                   -0.2804890134 a.u.
  Total energy:                                            -78.3201364883 a.u.
  Dip. moment [a.u.]:                  [  -0.000515,    0.000486,    0.000020]
  Total dipole [Debye]:                                               0.001801
  <r^2> [a.u.]:                        [ 175.823280,   35.334895,   11.507988]
  Total <r^2> [a.u.]:                                               222.666163

  Density matrix analysis:
  ------------------------
  NOs
    Occupation of frontier NOs:
       0.0455   1.9380
    Number of electrons: 16.000000
    Number of unpaired electrons: n_u =  0.40725, n_u,nl =  0.04580
    NO participation ratio (PR_NO): 13.896604
  
  
  Mulliken Population Analysis
  Atom      Charge (e)              h+              e-           Del q
  --------------------------------------------------------------------
   1 H        0.055056        0.013890       -0.011309        0.002581
   2 C       -0.108873        0.094635       -0.099720       -0.005084
   3 H        0.055065        0.013889       -0.011309        0.002580
   4 C       -0.111017        0.094554       -0.099861       -0.005306
   5 H        0.054890        0.013923       -0.011309        0.002614
   6 H        0.054880        0.013924       -0.011309        0.002615
  --------------------------------------------------------------------
  Sum:       -0.000000        0.244816       -0.244816        0.000000
  
  Multipole moment analysis of the density matrix
    Molecular charge:                      0.000000
    Number of electrons:                   16.000000
      Center of electronic charge [Ang]: [ -1.561112,  -0.065502,   0.002125]
    Total nuclear charge:                  16.000000
      Center of nuclear charge [Ang]:    [ -1.561129,  -0.065486,   0.002125]
    Dipole moment [D]:                     0.001801
      Cartesian components [D]:          [ -0.001309,   0.001236,   0.000052]
    RMS size of the density [Ang]:         1.206519
      Cartesian components [Ang]:        [  0.800094,   0.783667,   0.448783]
  
  Exciton analysis of the difference density matrix
    <r_h> [Ang]:                  [ -1.561139,  -0.065476,   0.002122]
    <r_e> [Ang]:                  [ -1.561271,  -0.065350,   0.002124]
    |<r_e - r_h>| [Ang]:            0.000182
    Hole size [Ang]:                1.401655
      Cartesian components [Ang]: [  0.853004,   0.840245,   0.728705]
    Electron size [Ang]:            1.361762
      Cartesian components [Ang]: [  0.879567,   0.864272,   0.577745]
--------------------------------------------------------------------------------
  MP(2) calculation ...  CPU 0.55 s  wall 0.32 s
  Start ADC(2)-s ...  CPU 0.02 s  wall 0.01 s
  ADC(2) intermediates ...  CPU 0.04 s  wall 0.02 s
  Starting Davidson for singlet states of irrep A ... 
--------------------------------------------------------------------------------
   It NVec Conv  Avg. Norm  Max. Norm  Conv. states           Remark
--------------------------------------------------------------------------------
        10    0  1.329e-01  4.687e-01  0.4117 n n n n n n n n Guess.
    1   20    0  2.312e-02  1.125e-01  0.3261 n n n n n n n n 
    2   30    0  5.847e-03  2.463e-02  0.3213 n n n n n n n n 
    3   40    0  1.755e-03  1.053e-02  0.3209 n n n n n n n n 
    4   50    0  5.125e-04  3.669e-03  0.3209 n n n n n n n n 
    5   20    0  2.608e-04  1.723e-03  0.3209 n n n n n n n n Subspace collapsed.
    6   30    0  1.132e-04  8.291e-04  0.3209 n n n n n n n n 
    7   40    0  8.819e-05  8.134e-04  0.3209 n n n n n n n n 
    8   50    0  3.798e-05  3.251e-04  0.3209 n n n n n n n n 
    9   20    2  1.966e-05  1.673e-04  0.3209 n y n y n n n n Subspace collapsed.
   10   30    4  1.659e-05  1.491e-04  0.3209 n y y y n y n n 
   11   40    5  6.631e-06  5.677e-05  0.3209 n y y y y y n n 
   12   50    6  2.966e-06  2.429e-05  0.3209 y y y y y y n n 
   13   20    6  1.951e-06  1.541e-05  0.3209 y y y y y y n n Subspace collapsed.
   14   30    8  1.417e-06  1.229e-05  0.3209 y y y y y y n y 
   15   40    8  7.983e-07  6.196e-06  0.3209 y y y y y y n y 
   16   50    8  4.260e-07  3.087e-06  0.3209 y y y y y y n y 
   17   20    8  2.077e-07  1.645e-06  0.3209 y y y y y y n y Subspace collapsed.
   18   30    9  1.781e-07  1.528e-06  0.3209 y y y y y y y y 
   19   40   10  1.008e-07  9.096e-07  0.3209 y y y y y y y y Converged.
--------------------------------------------------------------------------------
  Davidson Summary: 
 ------------------------------------------------------------
  State  0: excitation energy =   0.3209 a.u.   (converged)
  State  1: excitation energy =   0.3290 a.u.   (converged)
  State  2: excitation energy =   0.3359 a.u.   (converged)
  State  3: excitation energy =   0.3579 a.u.   (converged)
  State  4: excitation energy =   0.3733 a.u.   (converged)
  State  5: excitation energy =   0.3866 a.u.   (converged)
  State  6: excitation energy =   0.4202 a.u.   (converged)
  State  7: excitation energy =   0.4435 a.u.   (converged)
  State  8: excitation energy =   0.4537 a.u.   (converged)
  State  9: excitation energy =   0.4585 a.u.   (converged)
 ------------------------------------------------------------

  Singlet states of irrep A ...  CPU 135.09 s  wall 43.88 s
  TDMs ...  CPU 1.95 s  wall 0.79 s
  SDMs ...  CPU 4.51 s  wall 1.44 s
  Starting TPA DIIS iterations ... 
------------------------------------ 
   It     Res. Norm  Remark
------------------------------------
                       Guess.
    1     4.397e+00  
    2     5.834e+00  
    3     1.086e+00  
    4     2.633e-01  
    5     6.571e-02  
    6     2.778e-02  
    7     8.477e-03  
    8     1.551e-03  
    9     5.828e-04  
   10     9.775e-05  
   11     3.154e-05  
   12     4.880e-06  
   13     1.645e-06  
   14     4.797e-07  Converged.
   ... Converged in 14 steps (norm: 4.79687e-07)
------------------------------------
  Starting TPA DIIS iterations ... 
------------------------------------ 
   It     Res. Norm  Remark
------------------------------------
                       Guess.
    1     4.187e+00  
    2     5.545e+00  
    3     1.037e+00  
    4     2.614e-01  
    5     6.544e-02  
    6     2.777e-02  
    7     8.334e-03  
    8     1.571e-03  
    9     5.918e-04  
   10     9.730e-05  
   11     3.185e-05  
   12     4.848e-06  
   13     1.672e-06  
   14     4.751e-07  Converged.
   ... Converged in 14 steps (norm: 4.75052e-07)
------------------------------------
  Starting TPA DIIS iterations ... 
------------------------------------ 
   It     Res. Norm  Remark
------------------------------------
                       Guess.
    1     6.855e-01  
    2     4.794e-01  
    3     1.687e-01  
    4     6.350e-02  
    5     1.873e-02  
    6     6.689e-03  
    7     1.073e-03  
    8     4.585e-04  
    9     1.263e-04  
   10     3.084e-05  
   11     5.082e-06  
   12     1.795e-06  
   13     8.631e-07  Converged.
   ... Converged in 13 steps (norm: 8.63094e-07)
------------------------------------
  Starting TPA DIIS iterations ... 
------------------------------------ 
   It     Res. Norm  Remark
------------------------------------
                       Guess.
    1     4.593e+00  
    2     6.185e+00  
    3     1.142e+00  
    4     2.833e-01  
    5     7.138e-02  
    6     3.038e-02  
    7     9.258e-03  
    8     1.693e-03  
    9     6.393e-04  
   10     1.077e-04  
   11     3.496e-05  
   12     5.444e-06  
   13     1.844e-06  
   14     5.364e-07  Converged.
   ... Converged in 14 steps (norm: 5.36397e-07)
------------------------------------
  Starting TPA DIIS iterations ... 
------------------------------------ 
   It     Res. Norm  Remark
------------------------------------
                       Guess.
    1     4.373e+00  
    2     5.879e+00  
    3     1.090e+00  
    4     2.811e-01  
    5     7.110e-02  
    6     3.039e-02  
    7     9.103e-03  
    8     1.715e-03  
    9     6.494e-04  
   10     1.072e-04  
   11     3.529e-05  
   12     5.405e-06  
   13     1.875e-06  
   14     5.310e-07  Converged.
   ... Converged in 14 steps (norm: 5.31004e-07)
------------------------------------
  Starting TPA DIIS iterations ... 
------------------------------------ 
   It     Res. Norm  Remark
------------------------------------
                       Guess.
    1     6.938e-01  
    2     4.912e-01  
    3     1.753e-01  
    4     6.918e-02  
    5     1.971e-02  
    6     7.109e-03  
    7     1.166e-03  
    8     5.138e-04  
    9     1.439e-04  
   10     3.416e-05  
   11     5.532e-06  
   12     2.009e-06  
   13     1.002e-06  
   14     3.701e-07  Converged.
   ... Converged in 14 steps (norm: 3.70109e-07)
------------------------------------
  Starting TPA DIIS iterations ... 
------------------------------------ 
   It     Res. Norm  Remark
------------------------------------
                       Guess.
    1     4.773e+00  
    2     6.512e+00  
    3     1.193e+00  
    4     3.022e-01  
    5     7.674e-02  
    6     3.285e-02  
    7     9.998e-03  
    8     1.827e-03  
    9     6.929e-04  
   10     1.171e-04  
   11     3.826e-05  
   12     5.985e-06  
   13     2.037e-06  
   14     5.910e-07  Converged.
   ... Converged in 14 steps (norm: 5.90971e-07)
------------------------------------
  Starting TPA DIIS iterations ... 
------------------------------------ 
   It     Res. Norm  Remark
------------------------------------
                       Guess.
    1     4.544e+00  
    2     6.189e+00  
    3     1.138e+00  
    4     2.996e-01  
    5     7.645e-02  
    6     3.287e-02  
    7     9.831e-03  
    8     1.852e-03  
    9     7.041e-04  
   10     1.166e-04  
   11     3.860e-05  
   12     5.941e-06  
   13     2.072e-06  
   14     5.849e-07  Converged.
   ... Converged in 14 steps (norm: 5.84857e-07)
------------------------------------
  Starting TPA DIIS iterations ... 
------------------------------------ 
   It     Res. Norm  Remark
------------------------------------
                       Guess.
    1     7.011e-01  
    2     5.018e-01  
    3     1.813e-01  
    4     7.463e-02  
    5     2.059e-02  
    6     7.505e-03  
    7     1.254e-03  
    8     5.680e-04  
    9     1.612e-04  
   10     3.690e-05  
   11     5.951e-06  
   12     2.219e-06  
   13     1.144e-06  
   14     4.145e-07  Converged.
   ... Converged in 14 steps (norm: 4.14549e-07)
------------------------------------
  Starting TPA DIIS iterations ... 
------------------------------------ 
   It     Res. Norm  Remark
------------------------------------
                       Guess.
    1     5.423e+00  
    2     7.721e+00  
    3     1.377e+00  
    4     3.743e-01  
    5     9.726e-02  
    6     4.240e-02  
    7     1.283e-02  
    8     2.339e-03  
    9     9.003e-04  
   10     1.536e-04  
   11     5.123e-05  
   12     8.125e-06  
   13     2.814e-06  
   14     8.080e-07  Converged.
   ... Converged in 14 steps (norm: 8.07973e-07)
------------------------------------
  Starting TPA DIIS iterations ... 
------------------------------------ 
   It     Res. Norm  Remark
------------------------------------
                       Guess.
    1     5.161e+00  
    2     7.338e+00  
    3     1.313e+00  
    4     3.705e-01  
    5     9.691e-02  
    6     4.248e-02  
    7     1.262e-02  
    8     2.376e-03  
    9     9.156e-04  
   10     1.530e-04  
   11     5.163e-05  
   12     8.054e-06  
   13     2.866e-06  
   14     7.992e-07  Converged.
   ... Converged in 14 steps (norm: 7.99169e-07)
------------------------------------
  Starting TPA DIIS iterations ... 
------------------------------------ 
   It     Res. Norm  Remark
------------------------------------
                       Guess.
    1     7.252e-01  
    2     5.380e-01  
    3     2.026e-01  
    4     9.603e-02  
    5     2.377e-02  
    6     9.018e-03  
    7     1.605e-03  
    8     7.856e-04  
    9     2.294e-04  
   10     4.377e-05  
   11     7.521e-06  
   12     3.066e-06  
   13     1.763e-06  
   14     5.933e-07  Converged.
   ... Converged in 14 steps (norm: 5.93304e-07)
------------------------------------
  Starting TPA DIIS iterations ... 
------------------------------------ 
   It     Res. Norm  Remark
------------------------------------
                       Guess.
    1     5.973e+00  
    2     8.779e+00  
    3     1.531e+00  
    4     4.400e-01  
    5     1.159e-01  
    6     5.121e-02  
    7     1.541e-02  
    8     2.804e-03  
    9     1.091e-03  
   10     1.873e-04  
   11     6.341e-05  
   12     1.014e-05  
   13     3.562e-06  
   14     1.016e-06  
   15     3.306e-07  Converged.
   ... Converged in 15 steps (norm: 3.30614e-07)
------------------------------------
  Starting TPA DIIS iterations ... 
------------------------------------ 
   It     Res. Norm  Remark
------------------------------------
                       Guess.
    1     5.683e+00  
    2     8.342e+00  
    3     1.460e+00  
    4     4.349e-01  
    5     1.155e-01  
    6     5.135e-02  
    7     1.517e-02  
    8     2.852e-03  
    9     1.110e-03  
   10     1.865e-04  
   11     6.383e-05  
   12     1.003e-05  
   13     3.628e-06  
   14     1.005e-06  
   15     3.294e-07  Converged.
   ... Converged in 15 steps (norm: 3.29364e-07)
------------------------------------
  Starting TPA DIIS iterations ... 
------------------------------------ 
   It     Res. Norm  Remark
------------------------------------
                       Guess.
    1     7.431e-01  
    2     5.666e-01  
    3     2.199e-01  
    4     1.160e-01  
    5     2.649e-02  
    6     1.040e-02  
    7     1.942e-03  
    8     9.846e-04  
    9     2.900e-04  
   10     4.652e-05  
   11     8.942e-06  
   12     3.876e-06  
   13     2.413e-06  
   14     7.629e-07  Converged.
   ... Converged in 14 steps (norm: 7.62922e-07)
------------------------------------
  Starting TPA DIIS iterations ... 
------------------------------------ 
   It     Res. Norm  Remark
------------------------------------
                       Guess.
    1     6.524e+00  
    2     9.869e+00  
    3     1.685e+00  
    4     5.097e-01  
    5     1.357e-01  
    6     6.065e-02  
    7     1.815e-02  
    8     3.295e-03  
    9     1.295e-03  
   10     2.234e-04  
   11     7.656e-05  
   12     1.231e-05  
   13     4.381e-06  
   14     1.248e-06  
   15     4.092e-07  Converged.
   ... Converged in 15 steps (norm: 4.09203e-07)
------------------------------------
  Starting TPA DIIS iterations ... 
------------------------------------ 
   It     Res. Norm  Remark
------------------------------------
                       Guess.
    1     6.206e+00  
    2     9.377e+00  
    3     1.606e+00  
    4     5.031e-01  
    5     1.352e-01  
    6     6.086e-02  
    7     1.786e-02  
    8     3.356e-03  
    9     1.318e-03  
   10     2.225e-04  
   11     7.699e-05  
   12     1.217e-05  
   13     4.462e-06  
   14     1.235e-06  
   15     4.072e-07  Converged.
   ... Converged in 15 steps (norm: 4.07223e-07)
------------------------------------
  Starting TPA DIIS iterations ... 
------------------------------------ 
   It     Res. Norm  Remark
------------------------------------
                       Guess.
    1     7.594e-01  
    2     5.938e-01  
    3     2.368e-01  
    4     1.376e-01  
    5     2.929e-02  
    6     1.187e-02  
    7     2.315e-03  
    8     1.184e-03  
    9     3.503e-04  
   10     4.794e-05  
   11     1.047e-05  
   12     4.755e-06  
   13     3.166e-06  
   14     9.463e-07  Converged.
   ... Converged in 14 steps (norm: 9.46346e-07)
------------------------------------
  Starting TPA DIIS iterations ... 
------------------------------------ 
   It     Res. Norm  Remark
------------------------------------
                       Guess.
    1     8.345e+00  
    2     1.366e+01  
    3     2.185e+00  
    4     7.631e-01  
    5     2.076e-01  
    6     9.571e-02  
    7     2.814e-02  
    8     5.079e-03  
    9     2.050e-03  
   10     3.566e-04  
   11     1.248e-04  
   12     2.040e-05  
   13     7.400e-06  
   14     2.195e-06  
   15     7.064e-07  Converged.
   ... Converged in 15 steps (norm: 7.06371e-07)
------------------------------------
  Starting TPA DIIS iterations ... 
------------------------------------ 
   It     Res. Norm  Remark
------------------------------------
                       Guess.
    1     7.934e+00  
    2     1.298e+01  
    3     2.081e+00  
    4     7.504e-01  
    5     2.070e-01  
    6     9.623e-02  
    7     2.771e-02  
    8     5.188e-03  
    9     2.089e-03  
   10     3.551e-04  
   11     1.251e-04  
   12     2.012e-05  
   13     7.526e-06  
   14     2.172e-06  
   15     7.009e-07  Converged.
   ... Converged in 15 steps (norm: 7.00895e-07)
------------------------------------
  Starting TPA DIIS iterations ... 
------------------------------------ 
   It     Res. Norm  Remark
------------------------------------
                       Guess.
    1     8.039e-01  
    2     6.749e-01  
    3     2.896e-01  
    4     2.158e-01  
    5     3.916e-02  
    6     1.722e-02  
    7     3.776e-03  
    8     1.727e-03  
    9     5.354e-04  
   10     5.526e-05  
   11     1.635e-05  
   12     7.933e-06  
   13     6.202e-06  
   14     1.618e-06  
   15     6.006e-07  Converged.
   ... Converged in 15 steps (norm: 6.00593e-07)
------------------------------------
  Starting TPA DIIS iterations ... 
------------------------------------ 
   It     Res. Norm  Remark
------------------------------------
                       Guess.
    1     1.014e+01  
    2     1.767e+01  
    3     2.668e+00  
    4     1.041e+00  
    5     2.873e-01  
    6     1.354e-01  
    7     3.920e-02  
    8     7.045e-03  
    9     2.901e-03  
   10     5.058e-04  
   11     1.764e-04  
   12     2.963e-05  
   13     1.062e-05  
   14     3.402e-06  
   15     1.093e-06  
   16     2.496e-07  Converged.
   ... Converged in 16 steps (norm: 2.49562e-07)
------------------------------------
  Starting TPA DIIS iterations ... 
------------------------------------ 
   It     Res. Norm  Remark
------------------------------------
                       Guess.
    1     9.641e+00  
    2     1.678e+01  
    3     2.539e+00  
    4     1.021e+00  
    5     2.865e-01  
    6     1.364e-01  
    7     3.861e-02  
    8     7.210e-03  
    9     2.957e-03  
   10     5.036e-04  
   11     1.767e-04  
   12     2.921e-05  
   13     1.079e-05  
   14     3.355e-06  
   15     1.087e-06  
   16     2.562e-07  Converged.
   ... Converged in 16 steps (norm: 2.56211e-07)
------------------------------------
  Starting TPA DIIS iterations ... 
------------------------------------ 
   It     Res. Norm  Remark
------------------------------------
                       Guess.
    1     8.385e-01  
    2     7.458e-01  
    3     3.381e-01  
    4     2.959e-01  
    5     4.969e-02  
    6     2.291e-02  
    7     5.482e-03  
    8     2.027e-03  
    9     6.985e-04  
   10     7.191e-05  
   11     2.323e-05  
   12     1.120e-05  
   13     9.679e-06  
   14     2.333e-06  
   15     8.051e-07  Converged.
   ... Converged in 15 steps (norm: 8.05091e-07)
------------------------------------
  Starting TPA DIIS iterations ... 
------------------------------------ 
   It     Res. Norm  Remark
------------------------------------
                       Guess.
    1     1.114e+01  
    2     1.997e+01  
    3     2.929e+00  
    4     1.203e+00  
    5     3.343e-01  
    6     1.592e-01  
    7     4.573e-02  
    8     8.201e-03  
    9     3.408e-03  
   10     5.941e-04  
   11     2.057e-04  
   12     3.530e-05  
   13     1.252e-05  
   14     4.168e-06  
   15     1.393e-06  
   16     3.170e-07  Converged.
   ... Converged in 16 steps (norm: 3.17048e-07)
------------------------------------
  Starting TPA DIIS iterations ... 
------------------------------------ 
   It     Res. Norm  Remark
------------------------------------
                       Guess.
    1     1.058e+01  
    2     1.897e+01  
    3     2.787e+00  
    4     1.178e+00  
    5     3.334e-01  
    6     1.604e-01  
    7     4.505e-02  
    8     8.401e-03  
    9     3.474e-03  
   10     5.913e-04  
   11     2.061e-04  
   12     3.478e-05  
   13     1.272e-05  
   14     4.100e-06  
   15     1.389e-06  
   16     3.237e-07  Converged.
   ... Converged in 16 steps (norm: 3.23652e-07)
------------------------------------
  Starting TPA DIIS iterations ... 
------------------------------------ 
   It     Res. Norm  Remark
------------------------------------
                       Guess.
    1     8.548e-01  
    2     7.821e-01  
    3     3.636e-01  
    4     3.383e-01  
    5     5.573e-02  
    6     2.607e-02  
    7     6.495e-03  
    8     2.115e-03  
    9     7.829e-04  
   10     8.346e-05  
   11     2.737e-05  
   12     1.303e-05  
   13     1.173e-05  
   14     2.726e-06  
   15     8.962e-07  Converged.
   ... Converged in 15 steps (norm: 8.96203e-07)
------------------------------------
  Starting TPA DIIS iterations ... 
------------------------------------ 
   It     Res. Norm  Remark
------------------------------------
                       Guess.
    1     1.165e+01  
    2     2.120e+01  
    3     3.063e+00  
    4     1.290e+00  
    5     3.595e-01  
    6     1.721e-01  
    7     4.923e-02  
    8     8.821e-03  
    9     3.681e-03  
   10     6.415e-04  
   11     2.211e-04  
   12     3.842e-05  
   13     1.358e-05  
   14     4.593e-06  
   15     1.581e-06  
   16     3.557e-07  Converged.
   ... Converged in 16 steps (norm: 3.55749e-07)
------------------------------------
  Starting TPA DIIS iterations ... 
------------------------------------ 
   It     Res. Norm  Remark
------------------------------------
                       Guess.
    1     1.107e+01  
    2     2.014e+01  
    3     2.915e+00  
    4     1.262e+00  
    5     3.585e-01  
    6     1.734e-01  
    7     4.850e-02  
    8     9.039e-03  
    9     3.752e-03  
   10     6.385e-04  
   11     2.217e-04  
   12     3.784e-05  
   13     1.379e-05  
   14     4.512e-06  
   15     1.577e-06  
   16     3.609e-07  Converged.
   ... Converged in 16 steps (norm: 3.60856e-07)
------------------------------------
  Starting TPA DIIS iterations ... 
------------------------------------ 
   It     Res. Norm  Remark
------------------------------------
                       Guess.
    1     8.627e-01  
    2     8.003e-01  
    3     3.765e-01  
    4     3.594e-01  
    5     5.893e-02  
    6     2.769e-02  
    7     7.036e-03  
    8     2.148e-03  
    9     8.257e-04  
   10     8.978e-05  
   11     2.961e-05  
   12     1.399e-05  
   13     1.284e-05  
   14     2.925e-06  
   15     9.388e-07  Converged.
   ... Converged in 15 steps (norm: 9.38795e-07)
------------------------------------
  Two-photon absorbption ...  CPU 168.26 s  wall 45.34 s
  Transition density matrix of state singlet_A_1 printed to ASCII file 'State_singlet_A_1_Transition.txt'
  Transition density matrix of state singlet_A_2 printed to ASCII file 'State_singlet_A_2_Transition.txt'
  Transition density matrix of state singlet_A_3 printed to ASCII file 'State_singlet_A_3_Transition.txt'
  Transition density matrix of state singlet_A_4 printed to ASCII file 'State_singlet_A_4_Transition.txt'
  Transition density matrix of state singlet_A_5 printed to ASCII file 'State_singlet_A_5_Transition.txt'
  Transition density matrix of state singlet_A_6 printed to ASCII file 'State_singlet_A_6_Transition.txt'
  Transition density matrix of state singlet_A_7 printed to ASCII file 'State_singlet_A_7_Transition.txt'
  Transition density matrix of state singlet_A_8 printed to ASCII file 'State_singlet_A_8_Transition.txt'
  Transition density matrix of state singlet_A_9 printed to ASCII file 'State_singlet_A_9_Transition.txt'
  Transition density matrix of state singlet_A_10 printed to ASCII file 'State_singlet_A_10_Transition.txt'
  Transition properties ...  CPU 0.34 s  wall 0.59 s
  Difference density matrix of state singlet_A_1 printed to ASCII file 'State_singlet_A_1_Difference.txt'
  Total density matrix of state singlet_A_1 printed to ASCII file 'State_singlet_A_1_Total.txt'
  Difference density matrix of state singlet_A_2 printed to ASCII file 'State_singlet_A_2_Difference.txt'
  Total density matrix of state singlet_A_2 printed to ASCII file 'State_singlet_A_2_Total.txt'
  Difference density matrix of state singlet_A_3 printed to ASCII file 'State_singlet_A_3_Difference.txt'
  Total density matrix of state singlet_A_3 printed to ASCII file 'State_singlet_A_3_Total.txt'
  Difference density matrix of state singlet_A_4 printed to ASCII file 'State_singlet_A_4_Difference.txt'
  Total density matrix of state singlet_A_4 printed to ASCII file 'State_singlet_A_4_Total.txt'
  Difference density matrix of state singlet_A_5 printed to ASCII file 'State_singlet_A_5_Difference.txt'
  Total density matrix of state singlet_A_5 printed to ASCII file 'State_singlet_A_5_Total.txt'
  Difference density matrix of state singlet_A_6 printed to ASCII file 'State_singlet_A_6_Difference.txt'
  Total density matrix of state singlet_A_6 printed to ASCII file 'State_singlet_A_6_Total.txt'
  Difference density matrix of state singlet_A_7 printed to ASCII file 'State_singlet_A_7_Difference.txt'
  Total density matrix of state singlet_A_7 printed to ASCII file 'State_singlet_A_7_Total.txt'
  Difference density matrix of state singlet_A_8 printed to ASCII file 'State_singlet_A_8_Difference.txt'
  Total density matrix of state singlet_A_8 printed to ASCII file 'State_singlet_A_8_Total.txt'
  Difference density matrix of state singlet_A_9 printed to ASCII file 'State_singlet_A_9_Difference.txt'
  Total density matrix of state singlet_A_9 printed to ASCII file 'State_singlet_A_9_Total.txt'
  Difference density matrix of state singlet_A_10 printed to ASCII file 'State_singlet_A_10_Difference.txt'
  Total density matrix of state singlet_A_10 printed to ASCII file 'State_singlet_A_10_Total.txt'
  Properties ...  CPU 0.63 s  wall 1.10 s
  ISR TDMS ...  CPU 29.48 s  wall 9.37 s
  ISR transition properties ...  CPU 0.50 s  wall 0.24 s
  Sum-over-states TPA ...  CPU 0.00 s  wall 0.00 s

--------------------------------------------------------------------------------
                   State-averaged natural transition orbitals
--------------------------------------------------------------------------------
--------------------------------------------------------------------------------
  SA-NTO decomposition ...  CPU 0.01 s  wall 0.04 s

--------------------------------------------------------------------------------
                             Excited State Summary
--------------------------------------------------------------------------------
--------------------------------------------------------------------------------

  Excited state 1 (singlet, A)                                     [converged]
  ----------------------------------------------------------------------------
  Term symbol:  2 (1) A                                     R^2 =  8.90569e-10

  Total energy:                                            -77.9992482310 a.u.
  Excitation energy:                                               8.731814 eV

  Osc. strength:                                                      0.446206
  Trans. dip. moment [a.u.]:           [  -1.047178,    0.994546,    0.009709]
  <i|r^2|0> [a.u.]:                    [  -6.177616,    0.247224,   -0.000414]
  Two-photon absorption cross-section (SoS) [a.u.]:                   0.000556
  Two-photon absorption matrix (SoS) [a.u.]:
                                       |   -0.005144   -0.000928   -0.000241 |
                                       |   -0.000928   -0.005214   -0.000306 |
                                       |   -0.000241   -0.000306   -0.002177 |
  Two-photon absorption cross-section [a.u.]:                         0.000197
  Two-photon absorption matrix [a.u.]:
                                       |    0.003444    0.001069    0.000565 |
                                       |    0.001069    0.003582    0.000565 |
                                       |    0.000565    0.000565   -0.000619 |

  Dip. moment [a.u.]:                  [  -0.000370,    0.000348,    0.000022]
  Total dipole [Debye]:                                               0.001292
  <r^2> [a.u.]:                        [ 176.570797,   36.021141,   11.918963]
  Total <r^2> [a.u.]:                                               224.510902

  V1^2 = 0.9713, V2^2 = 0.0287

  Important amplitudes:
      occ i     occ j     vir a      vir b          v   
    -----------------------------------------------------
     8 (A) A              9 (A) A                -0.6809
     6 (A) A             14 (A) A                -0.0617
     4 (A) A             10 (A) A                -0.0614
     7 (A) A             16 (A) A                 0.0575
     5 (A) A             13 (A) A                 0.0527
     6 (A) A             23 (A) A                -0.0485
     8 (A) A             20 (A) A                -0.0348
     6 (A) A             19 (A) A                -0.0302
     3 (A) A             12 (A) A                 0.0285
     5 (A) A             22 (A) A                -0.0218
     4 (A) A             24 (A) A                -0.0188
     3 (A) A             26 (A) A                 0.0187
     7 (A) A             11 (A) A                -0.0186
     8 (A) A   8 (A) B   17 (A) A   20 (A) B      0.0184
     8 (A) A   8 (A) B    9 (A) A   28 (A) B      0.0168
     6 (A) A             26 (A) A                -0.0163
     7 (A) A             21 (A) A                 0.0152
     3 (A) A             14 (A) A                 0.0143
     6 (A) A             12 (A) A                 0.0136
     3 (A) A   4 (A) B    9 (A) A    9 (A) B      0.0129
     3 (A) A             19 (A) A                 0.0121
     8 (A) A   8 (A) B   18 (A) A   19 (A) B     -0.0111
     7 (A) A             32 (A) A                 0.0096
     7 (A) A             36 (A) A                 0.0086
     3 (A) A             23 (A) A                 0.0082
     8 (A) A   8 (A) B   25 (A) A   29 (A) B      0.0076
     6 (A) A             40 (A) A                -0.0067
     6 (A) A             35 (A) A                 0.0066
     3 (A) A   6 (A) B    9 (A) A   28 (A) B     -0.0065
     5 (A) A   8 (A) B   11 (A) A    9 (A) B      0.0062
     7 (A) A   8 (A) B   13 (A) A   20 (A) B      0.0060
     5 (A) A   8 (A) B   11 (A) A   20 (A) B     -0.0060
     5 (A) A   7 (A) B    9 (A) A    9 (A) B     -0.0060
     6 (A) A   8 (A) A   19 (A) A   28 (A) A     -0.0060
     5 (A) A             27 (A) A                 0.0060
     5 (A) A   8 (A) B   16 (A) A    9 (A) B      0.0059
     3 (A) A   5 (A) B    9 (A) A   25 (A) B      0.0058
     7 (A) A   8 (A) B   22 (A) A   20 (A) B     -0.0057
     3 (A) A             40 (A) A                 0.0056
     8 (A) A   8 (A) B   19 (A) A   30 (A) B     -0.0056
    -----------------------------------------------------

  Density matrix analysis:
  ------------------------
  NOs
    Occupation of frontier NOs:
       0.9491   1.0219
    Number of electrons: 16.000000
    Number of unpaired electrons: n_u =  2.31679, n_u,nl =  2.03329
    NO participation ratio (PR_NO):  2.874071
  
  
  Mulliken Population Analysis
  Atom      Charge (e)              h+              e-           Del q
  --------------------------------------------------------------------
   1 H        0.063039        0.020420       -0.012437        0.007983
   2 C       -0.124704        0.490749       -0.506580       -0.015831
   3 H        0.063049        0.020421       -0.012437        0.007984
   4 C       -0.127265        0.490582       -0.506830       -0.016248
   5 H        0.062947        0.020456       -0.012400        0.008057
   6 H        0.062935        0.020455       -0.012400        0.008055
  --------------------------------------------------------------------
  Sum:        0.000000        1.063083       -1.063083        0.000000
  
  Multipole moment analysis of the density matrix
    Molecular charge:                      0.000000
    Number of electrons:                   16.000000
      Center of electronic charge [Ang]: [ -1.561117,  -0.065497,   0.002124]
    Total nuclear charge:                  16.000000
      Center of nuclear charge [Ang]:    [ -1.561129,  -0.065486,   0.002125]
    Dipole moment [D]:                     0.001292
      Cartesian components [D]:          [ -0.000941,   0.000883,   0.000056]
    RMS size of the density [Ang]:         1.219820
      Cartesian components [Ang]:        [  0.808219,   0.791293,   0.456726]
  
  Exciton analysis of the difference density matrix
    <r_h> [Ang]:                  [ -1.560778,  -0.065817,   0.002114]
    <r_e> [Ang]:                  [ -1.560850,  -0.065748,   0.002113]
    |<r_e - r_h>| [Ang]:            0.000100
    Hole size [Ang]:                1.287297
      Cartesian components [Ang]: [  0.730184,   0.714790,   0.782968]
    Electron size [Ang]:            1.463845
      Cartesian components [Ang]: [  0.854312,   0.831685,   0.849291]

  Transition density matrix analysis:
  -----------------------------------
  
  CT numbers (Mulliken)
    omega =     0.9532
    <Phe> =    -0.1603
  
  Exciton analysis of the transition density matrix
    Trans. dipole moment [D]:             1.835432
      Cartesian components [D]:         [ -1.330831,   1.263942,   0.012339]
    <r_h> [Ang]:                        [ -1.560578,  -0.066007,   0.002113]
    <r_e> [Ang]:                        [ -1.560874,  -0.065726,   0.002112]
    |<r_e - r_h>| [Ang]:                  0.000408
    Hole size [Ang]:                      1.214402
      Cartesian components [Ang]:       [  0.649921,   0.637059,   0.804072]
    Electron size [Ang]:                  1.486740
      Cartesian components [Ang]:       [  0.864777,   0.840557,   0.869494]
    RMS electron-hole separation [Ang]:   1.937164
      Cartesian components [Ang]:       [  1.106770,   1.076278,   1.170166]
    Covariance(r_h, r_e) [Ang^2]:        -0.033717
    Correlation coefficient:             -0.018675
    Center-of-mass size [Ang]:            0.951017
      Cartesian components [Ang]:       [  0.528094,   0.516330,   0.599127]

  Decomposition into state-averaged NTOs
    H- 0 -> L+ 0:  0.6697 ( 89.7%)
    H- 2 -> L+ 5: -0.0830 (  1.4%)
                   omega =  95.3%
  ----------------------------------------------------------------------------


  Excited state 2 (singlet, A)                                     [converged]
  ----------------------------------------------------------------------------
  Term symbol:  3 (1) A                                     R^2 =  4.64951e-12

  Total energy:                                            -77.9911433277 a.u.
  Excitation energy:                                               8.952359 eV

  Osc. strength:                                                      0.000000
  Trans. dip. moment [a.u.]:           [   0.000657,   -0.000607,   -0.000010]
  <i|r^2|0> [a.u.]:                    [   0.069813,    0.086686,   -0.152776]
  Two-photon absorption cross-section (SoS) [a.u.]:                   4.563672
  Two-photon absorption matrix (SoS) [a.u.]:
                                       |    0.049912    0.057396   -0.514335 |
                                       |    0.057396    0.065538   -0.540895 |
                                       |   -0.514335   -0.540895   -0.115441 |
  Two-photon absorption cross-section [a.u.]:                         0.172573
  Two-photon absorption matrix [a.u.]:
                                       |   -0.008919   -0.011124    0.100070 |
                                       |   -0.011124   -0.013529    0.105122 |
                                       |    0.100070    0.105122    0.022448 |

  Dip. moment [a.u.]:                  [  -0.010106,    0.009603,    0.000130]
  Total dipole [Debye]:                                               0.035436
  <r^2> [a.u.]:                        [ 174.849390,   34.369664,   13.214980]
  Total <r^2> [a.u.]:                                               222.434033

  V1^2 = 0.9541, V2^2 = 0.0459

  Important amplitudes:
      occ i     occ j     vir a      vir b          v   
    -----------------------------------------------------
     7 (A) A              9 (A) A                 0.6685
     8 (A) A             11 (A) A                 0.1513
     7 (A) A             20 (A) A                 0.0756
     5 (A) A   8 (A) B    9 (A) A    9 (A) B      0.0315
     8 (A) A             16 (A) A                 0.0281
     8 (A) A             21 (A) A                -0.0178
     5 (A) A             28 (A) A                 0.0150
     4 (A) A   7 (A) B    9 (A) A   19 (A) B      0.0136
     5 (A) A   7 (A) B    9 (A) A   16 (A) B      0.0134
     7 (A) A   8 (A) B   20 (A) A   17 (A) B     -0.0106
     7 (A) A   8 (A) A    9 (A) A   28 (A) A      0.0098
     5 (A) A   8 (A) B    9 (A) A   20 (A) B      0.0094
     4 (A) A   6 (A) B    9 (A) A   16 (A) B     -0.0091
     5 (A) A   6 (A) A    9 (A) A   23 (A) A     -0.0090
     5 (A) A   6 (A) A    9 (A) A   14 (A) A     -0.0089
     5 (A) A   6 (A) B    9 (A) A   19 (A) B     -0.0086
     8 (A) A   7 (A) B    9 (A) A   28 (A) B     -0.0085
     6 (A) A   7 (A) B    9 (A) A   18 (A) B      0.0085
     4 (A) A   5 (A) A    9 (A) A   10 (A) A      0.0085
     5 (A) A   6 (A) B    9 (A) A   23 (A) B     -0.0080
     3 (A) A   7 (A) B    9 (A) A   18 (A) B      0.0080
     5 (A) A   7 (A) A    9 (A) A   16 (A) A      0.0078
     4 (A) A   8 (A) B    9 (A) A   25 (A) B      0.0076
     4 (A) A   7 (A) B   19 (A) A    9 (A) B      0.0075
     7 (A) A   8 (A) B   17 (A) A   20 (A) B     -0.0074
     5 (A) A   5 (A) B    9 (A) A   13 (A) B      0.0073
     7 (A) A   8 (A) B   19 (A) A   18 (A) B      0.0071
     4 (A) A   5 (A) B    9 (A) A   18 (A) B     -0.0069
     5 (A) A   8 (A) A    9 (A) A   20 (A) A      0.0068
     7 (A) A   7 (A) B   20 (A) A   22 (A) B      0.0066
     7 (A) A   8 (A) B   17 (A) A    9 (A) B     -0.0065
     5 (A) A   6 (A) B    9 (A) A   14 (A) B     -0.0063
     5 (A) A   7 (A) B   11 (A) A   20 (A) B      0.0062
     4 (A) A   5 (A) B   10 (A) A    9 (A) B     -0.0061
     4 (A) A   7 (A) A    9 (A) A   19 (A) A      0.0061
     5 (A) A             38 (A) A                 0.0060
     4 (A) A   6 (A) B   16 (A) A    9 (A) B     -0.0058
     4 (A) A   8 (A) A    9 (A) A   25 (A) A      0.0057
     6 (A) A   7 (A) A   19 (A) A   28 (A) A      0.0056
     5 (A) A   7 (A) A   11 (A) A   20 (A) A      0.0054
    -----------------------------------------------------

  Density matrix analysis:
  ------------------------
  NOs
    Occupation of frontier NOs:
       0.9560   1.0553
    Number of electrons: 16.000000
    Number of unpaired electrons: n_u =  2.35842, n_u,nl =  2.06489
    NO participation ratio (PR_NO):  3.045265
  
  
  Mulliken Population Analysis
  Atom      Charge (e)              h+              e-           Del q
  --------------------------------------------------------------------
   1 H        0.154014        0.123834       -0.024876        0.098958
   2 C       -0.309297        0.270823       -0.471247       -0.200424
   3 H        0.153998        0.123817       -0.024884        0.098933
   4 C       -0.311021        0.274360       -0.474364       -0.200004
   5 H        0.156148        0.125975       -0.024717        0.101258
   6 H        0.156159        0.125994       -0.024716        0.101278
  --------------------------------------------------------------------
  Sum:       -0.000000        1.044804       -1.044804       -0.000000
  
  Multipole moment analysis of the density matrix
    Molecular charge:                      0.000000
    Number of electrons:                   16.000000
      Center of electronic charge [Ang]: [ -1.560795,  -0.065803,   0.002121]
    Total nuclear charge:                  16.000000
      Center of nuclear charge [Ang]:    [ -1.561129,  -0.065486,   0.002125]
    Dipole moment [D]:                     0.035436
      Cartesian components [D]:          [ -0.025687,   0.024409,   0.000331]
    RMS size of the density [Ang]:         1.205229
      Cartesian components [Ang]:        [  0.789997,   0.772787,   0.480917]
  
  Exciton analysis of the difference density matrix
    <r_h> [Ang]:                  [ -1.566841,  -0.060065,   0.002180]
    <r_e> [Ang]:                  [ -1.561983,  -0.064683,   0.002124]
    |<r_e - r_h>| [Ang]:            0.006702
    Hole size [Ang]:                1.496133
      Cartesian components [Ang]: [  1.013886,   1.001252,   0.456007]
    Electron size [Ang]:            1.480142
      Cartesian components [Ang]: [  0.884387,   0.862107,   0.815752]

  Transition density matrix analysis:
  -----------------------------------
  
  CT numbers (Mulliken)
    omega =     0.9214
    <Phe> =    -0.0114
  
  Exciton analysis of the transition density matrix
    Trans. dipole moment [D]:             0.001136
      Cartesian components [D]:         [  0.000834,  -0.000771,  -0.000012]
    <r_h> [Ang]:                        [ -1.567836,  -0.059121,   0.002192]
    <r_e> [Ang]:                        [ -1.561242,  -0.065387,   0.002115]
    |<r_e - r_h>| [Ang]:                  0.009096
    Hole size [Ang]:                      1.527073
      Cartesian components [Ang]:       [  1.038691,   1.026023,   0.447603]
    Electron size [Ang]:                  1.475550
      Cartesian components [Ang]:       [  0.873327,   0.850271,   0.831617]
    RMS electron-hole separation [Ang]:   2.103536
      Cartesian components [Ang]:       [  1.341046,   1.317566,   0.943651]
    Covariance(r_h, r_e) [Ang^2]:         0.042209
    Correlation coefficient:              0.018732
    Center-of-mass size [Ang]:            1.071636
      Cartesian components [Ang]:       [  0.686440,   0.673689,   0.472597]

  Decomposition into state-averaged NTOs
    H- 1 -> L+ 0: -0.6608 ( 87.3%)
    H- 0 -> L+ 2: -0.1513 (  4.6%)
                   omega =  92.1%
  ----------------------------------------------------------------------------


  Excited state 3 (singlet, A)                                     [converged]
  ----------------------------------------------------------------------------
  Term symbol:  4 (1) A                                     R^2 =  1.42184e-11

  Total energy:                                            -77.9841873849 a.u.
  Excitation energy:                                               9.141640 eV

  Osc. strength:                                                      0.023580
  Trans. dip. moment [a.u.]:           [  -0.015403,   -0.019671,    0.323512]
  <i|r^2|0> [a.u.]:                    [  -0.090682,   -0.005028,   -0.002620]
  Two-photon absorption cross-section (SoS) [a.u.]:                   0.000276
  Two-photon absorption matrix (SoS) [a.u.]:
                                       |    0.001259    0.000028    0.004218 |
                                       |    0.000028   -0.001246   -0.003888 |
                                       |    0.004218   -0.003888   -0.000203 |
  Two-photon absorption cross-section [a.u.]:                         0.000619
  Two-photon absorption matrix [a.u.]:
                                       |    0.000530   -0.000004    0.006414 |
                                       |   -0.000004   -0.000577   -0.005995 |
                                       |    0.006414   -0.005995   -0.000192 |

  Dip. moment [a.u.]:                  [   0.001073,   -0.000934,   -0.000026]
  Total dipole [Debye]:                                               0.003617
  <r^2> [a.u.]:                        [ 181.357183,   41.010183,   11.057307]
  Total <r^2> [a.u.]:                                               233.424674

  V1^2 = 0.9580, V2^2 = 0.0420

  Important amplitudes:
      occ i     occ j     vir a      vir b          v   
    -----------------------------------------------------
     8 (A) A             10 (A) A                -0.6887
     8 (A) A             24 (A) A                -0.0508
     8 (A) A             18 (A) A                 0.0332
     4 (A) A              9 (A) A                -0.0247
     8 (A) A   8 (A) B    9 (A) A   12 (A) B      0.0223
     8 (A) A   8 (A) B   10 (A) A   17 (A) B     -0.0172
     5 (A) A   8 (A) B   11 (A) A   10 (A) B      0.0169
     8 (A) A             15 (A) A                -0.0149
     7 (A) A   8 (A) B   13 (A) A   10 (A) B     -0.0143
     4 (A) A   8 (A) B   12 (A) A   10 (A) B      0.0113
     6 (A) A   8 (A) A   10 (A) A   15 (A) A     -0.0112
     7 (A) A   8 (A) B   22 (A) A   10 (A) B      0.0109
     6 (A) A   8 (A) B   15 (A) A   10 (A) B      0.0109
     4 (A) A   8 (A) A   10 (A) A   12 (A) A     -0.0108
     7 (A) A   8 (A) A   10 (A) A   22 (A) A     -0.0099
     7 (A) A   8 (A) A   10 (A) A   13 (A) A      0.0098
     5 (A) A   8 (A) A   10 (A) A   11 (A) A     -0.0097
     5 (A) A   8 (A) B   21 (A) A   10 (A) B     -0.0094
     6 (A) A   8 (A) B   10 (A) A   10 (A) B     -0.0090
     6 (A) A   8 (A) A   10 (A) A   18 (A) A     -0.0086
     7 (A) A   8 (A) A   12 (A) A   16 (A) A     -0.0084
     3 (A) A   4 (A) B   10 (A) A    9 (A) B      0.0080
     5 (A) A   8 (A) A   10 (A) A   21 (A) A      0.0079
     4 (A) A   8 (A) B   19 (A) A   10 (A) B      0.0076
     8 (A) A   8 (A) B    9 (A) A   23 (A) B     -0.0075
     8 (A) A   8 (A) B   10 (A) A   28 (A) B      0.0074
     5 (A) A   8 (A) B   10 (A) A   11 (A) B      0.0072
     7 (A) A   8 (A) B   16 (A) A   12 (A) B      0.0072
     3 (A) A   8 (A) A   10 (A) A   24 (A) A      0.0072
     3 (A) A   8 (A) B   10 (A) A   10 (A) B     -0.0071
     8 (A) A   8 (A) B    9 (A) A   19 (A) B      0.0070
     3 (A) A   8 (A) B   10 (A) A   18 (A) B      0.0068
     6 (A) A   8 (A) B   18 (A) A   10 (A) B      0.0065
     3 (A) A   6 (A) B   10 (A) A   28 (A) B     -0.0062
     7 (A) A   8 (A) B   12 (A) A   11 (A) B      0.0059
     6 (A) A             28 (A) A                 0.0058
     5 (A) A   8 (A) A   10 (A) A   16 (A) A     -0.0057
     3 (A) A   5 (A) B   10 (A) A   25 (A) B      0.0056
     6 (A) A   8 (A) A   11 (A) A   16 (A) A      0.0055
     4 (A) A   8 (A) A   10 (A) A   23 (A) A      0.0055
    -----------------------------------------------------

  Density matrix analysis:
  ------------------------
  NOs
    Occupation of frontier NOs:
       0.9812   0.9847
    Number of electrons: 16.000000
    Number of unpaired electrons: n_u =  2.28863, n_u,nl =  2.02504
    NO participation ratio (PR_NO):  2.701208
  
  
  Mulliken Population Analysis
  Atom      Charge (e)              h+              e-           Del q
  --------------------------------------------------------------------
   1 H       -0.155082        0.054300       -0.264438       -0.210138
   2 C        0.310998        0.538251       -0.118380        0.419871
   3 H       -0.155082        0.054302       -0.264449       -0.210147
   4 C        0.309336        0.537925       -0.117571        0.420354
   5 H       -0.155071        0.054405       -0.264366       -0.209960
   6 H       -0.155099        0.054403       -0.264383       -0.209979
  --------------------------------------------------------------------
  Sum:        0.000000        1.293587       -1.293587        0.000000
  
  Multipole moment analysis of the density matrix
    Molecular charge:                      0.000000
    Number of electrons:                   16.000000
      Center of electronic charge [Ang]: [ -1.561165,  -0.065455,   0.002126]
    Total nuclear charge:                  16.000000
      Center of nuclear charge [Ang]:    [ -1.561129,  -0.065486,   0.002125]
    Dipole moment [D]:                     0.003617
      Cartesian components [D]:          [  0.002727,  -0.002375,  -0.000065]
    RMS size of the density [Ang]:         1.282117
      Cartesian components [Ang]:        [  0.858393,   0.844670,   0.439907]
  
  Exciton analysis of the difference density matrix
    <r_h> [Ang]:                  [ -1.561005,  -0.065604,   0.002119]
    <r_e> [Ang]:                  [ -1.561655,  -0.065023,   0.002138]
    |<r_e - r_h>| [Ang]:            0.000872
    Hole size [Ang]:                1.412900
      Cartesian components [Ang]: [  0.836551,   0.822685,   0.787185]
    Electron size [Ang]:            2.079249
      Cartesian components [Ang]: [  1.376858,   1.380377,   0.722564]

  Transition density matrix analysis:
  -----------------------------------
  
  CT numbers (Mulliken)
    omega =     0.9250
    <Phe> =    -0.0109
  
  Exciton analysis of the transition density matrix
    Trans. dipole moment [D]:             0.412367
      Cartesian components [D]:         [ -0.019575,  -0.025000,   0.411143]
    <r_h> [Ang]:                        [ -1.560552,  -0.066031,   0.002111]
    <r_e> [Ang]:                        [ -1.561730,  -0.064964,   0.002142]
    |<r_e - r_h>| [Ang]:                  0.001590
    Hole size [Ang]:                      1.212750
      Cartesian components [Ang]:       [  0.636285,   0.623745,   0.822707]
    Electron size [Ang]:                  2.301783
      Cartesian components [Ang]:       [  1.523313,   1.529515,   0.798941]
    RMS electron-hole separation [Ang]:   2.591625
      Cartesian components [Ang]:       [  1.643219,   1.644662,   1.145182]
    Covariance(r_h, r_e) [Ang^2]:         0.026224
    Correlation coefficient:              0.009394
    Center-of-mass size [Ang]:            1.305892
      Cartesian components [Ang]:       [  0.829234,   0.829463,   0.574209]

  Decomposition into state-averaged NTOs
    H- 0 -> L+ 1:  0.6794 ( 92.3%)
                   omega =  92.5%
  ----------------------------------------------------------------------------


  Excited state 4 (singlet, A)                                     [converged]
  ----------------------------------------------------------------------------
  Term symbol:  5 (1) A                                     R^2 =  1.31943e-11

  Total energy:                                            -77.9622630240 a.u.
  Excitation energy:                                               9.738232 eV

  Osc. strength:                                                      0.000000
  Trans. dip. moment [a.u.]:           [  -0.000199,    0.000186,    0.000006]
  <i|r^2|0> [a.u.]:                    [   0.012598,    0.018253,   -0.031979]
  Two-photon absorption cross-section (SoS) [a.u.]:                 134.677602
  Two-photon absorption matrix (SoS) [a.u.]:
                                       |    0.270679    0.311776   -2.794375 |
                                       |    0.311776    0.356435   -2.938055 |
                                       |   -2.794375   -2.938055   -0.627124 |
  Two-photon absorption cross-section [a.u.]:                        80.036658
  Two-photon absorption matrix [a.u.]:
                                       |    0.209280    0.240377   -2.154072 |
                                       |    0.240377    0.274165   -2.265045 |
                                       |   -2.154072   -2.265045   -0.483450 |

  Dip. moment [a.u.]:                  [   0.000010,   -0.000100,   -0.000027]
  Total dipole [Debye]:                                               0.000265
  <r^2> [a.u.]:                        [ 181.459270,   41.012315,   10.786814]
  Total <r^2> [a.u.]:                                               233.258398

  V1^2 = 0.9633, V2^2 = 0.0367

  Important amplitudes:
      occ i     occ j     vir a      vir b          v   
    -----------------------------------------------------
     8 (A) A             11 (A) A                 0.6688
     7 (A) A              9 (A) A                -0.1535
     8 (A) A             21 (A) A                -0.0779
     8 (A) A             16 (A) A                 0.0674
     8 (A) A   8 (A) B    9 (A) A   13 (A) B      0.0167
     5 (A) A   8 (A) B   11 (A) A   11 (A) B     -0.0157
     7 (A) A             20 (A) A                -0.0140
     8 (A) A   8 (A) B   11 (A) A   17 (A) B      0.0137
     7 (A) A   8 (A) B   13 (A) A   11 (A) B      0.0127
     4 (A) A   8 (A) B   12 (A) A   11 (A) B     -0.0111
     8 (A) A   8 (A) B    9 (A) A   22 (A) B     -0.0110
     5 (A) A   8 (A) A   11 (A) A   21 (A) A     -0.0109
     7 (A) A   8 (A) A   11 (A) A   22 (A) A      0.0095
     6 (A) A   8 (A) B   10 (A) A   11 (A) B      0.0091
     6 (A) A   8 (A) B   15 (A) A   11 (A) B     -0.0089
     7 (A) A   8 (A) B   22 (A) A   11 (A) B     -0.0089
     3 (A) A   4 (A) B   11 (A) A    9 (A) B     -0.0083
     3 (A) A   8 (A) B   11 (A) A   18 (A) B     -0.0080
     6 (A) A   8 (A) A   11 (A) A   15 (A) A      0.0079
     7 (A) A   8 (A) A   13 (A) A   16 (A) A     -0.0079
     7 (A) A   8 (A) A   11 (A) A   13 (A) A     -0.0075
     4 (A) A   8 (A) B   19 (A) A   11 (A) B     -0.0070
     5 (A) A   8 (A) B   21 (A) A   11 (A) B      0.0069
     5 (A) A   8 (A) B    9 (A) A    9 (A) B     -0.0069
     4 (A) A   8 (A) A   11 (A) A   12 (A) A      0.0062
     3 (A) A   6 (A) B   11 (A) A   28 (A) B      0.0060
     6 (A) A   8 (A) A   11 (A) A   18 (A) A      0.0059
     6 (A) A   8 (A) B   18 (A) A   11 (A) B     -0.0058
     7 (A) A   8 (A) B   16 (A) A   13 (A) B      0.0057
     3 (A) A   8 (A) B   11 (A) A   30 (A) B     -0.0056
     5 (A) A   8 (A) B   10 (A) A   10 (A) B     -0.0055
     7 (A) A   8 (A) B   12 (A) A   10 (A) B     -0.0055
     8 (A) A   8 (A) B   20 (A) A   22 (A) B     -0.0055
     6 (A) A   8 (A) B   11 (A) A   10 (A) B      0.0055
     3 (A) A   5 (A) B   11 (A) A   25 (A) B     -0.0054
     3 (A) A   8 (A) A   11 (A) A   18 (A) A     -0.0054
     3 (A) A   8 (A) A   11 (A) A   24 (A) A     -0.0053
     5 (A) A   8 (A) A   11 (A) A   16 (A) A      0.0049
     6 (A) A   8 (A) A   10 (A) A   16 (A) A     -0.0047
     8 (A) A   8 (A) B   11 (A) A   28 (A) B     -0.0043
    -----------------------------------------------------

  Density matrix analysis:
  ------------------------
  NOs
    Occupation of frontier NOs:
       0.9387   1.0295
    Number of electrons: 16.000000
    Number of unpaired electrons: n_u =  2.32235, n_u,nl =  2.05106
    NO participation ratio (PR_NO):  2.932691
  
  
  Mulliken Population Analysis
  Atom      Charge (e)              h+              e-           Del q
  --------------------------------------------------------------------
   1 H       -0.125765        0.045958       -0.226780       -0.180822
   2 C        0.252630        0.495163       -0.133660        0.361504
   3 H       -0.126008        0.045947       -0.227019       -0.181073
   4 C        0.249535        0.495356       -0.134804        0.360552
   5 H       -0.125333        0.046061       -0.226284       -0.180223
   6 H       -0.125058        0.046072       -0.226010       -0.179938
  --------------------------------------------------------------------
  Sum:        0.000000        1.174557       -1.174557        0.000000
  
  Multipole moment analysis of the density matrix
    Molecular charge:                      0.000000
    Number of electrons:                   16.000000
      Center of electronic charge [Ang]: [ -1.561129,  -0.065482,   0.002126]
    Total nuclear charge:                  16.000000
      Center of nuclear charge [Ang]:    [ -1.561129,  -0.065486,   0.002125]
    Dipole moment [D]:                     0.000265
      Cartesian components [D]:          [  0.000026,  -0.000254,  -0.000069]
    RMS size of the density [Ang]:         1.281023
      Cartesian components [Ang]:        [  0.859497,   0.844690,   0.434493]
  
  Exciton analysis of the difference density matrix
    <r_h> [Ang]:                  [ -1.561177,  -0.065436,   0.002120]
    <r_e> [Ang]:                  [ -1.561414,  -0.065172,   0.002142]
    |<r_e - r_h>| [Ang]:            0.000355
    Hole size [Ang]:                1.394927
      Cartesian components [Ang]: [  0.819572,   0.806322,   0.789917]
    Electron size [Ang]:            2.114340
      Cartesian components [Ang]: [  1.419383,   1.415540,   0.672333]

  Transition density matrix analysis:
  -----------------------------------
  
  CT numbers (Mulliken)
    omega =     0.9293
    <Phe> =    -0.0146
  
  Exciton analysis of the transition density matrix
    Trans. dipole moment [D]:             0.000346
      Cartesian components [D]:         [ -0.000253,   0.000236,   0.000007]
    <r_h> [Ang]:                        [ -1.561062,  -0.065548,   0.002116]
    <r_e> [Ang]:                        [ -1.561693,  -0.064899,   0.002147]
    |<r_e - r_h>| [Ang]:                  0.000906
    Hole size [Ang]:                      1.229180
      Cartesian components [Ang]:       [  0.661995,   0.649547,   0.806682]
    Electron size [Ang]:                  2.247907
      Cartesian components [Ang]:       [  1.508885,   1.506090,   0.712772]
    RMS electron-hole separation [Ang]:   2.550888
      Cartesian components [Ang]:       [  1.638868,   1.631995,   1.075981]
    Covariance(r_h, r_e) [Ang^2]:         0.028470
    Correlation coefficient:              0.010304
    Center-of-mass size [Ang]:            1.286556
      Cartesian components [Ang]:       [  0.828260,   0.824171,   0.538476]

  Decomposition into state-averaged NTOs
    H- 0 -> L+ 2: -0.6641 ( 88.2%)
    H- 1 -> L+ 0:  0.1514 (  4.6%)
                   omega =  92.9%
  ----------------------------------------------------------------------------


  Excited state 5 (singlet, A)                                     [converged]
  ----------------------------------------------------------------------------
  Term symbol:  6 (1) A                                     R^2 =  4.79638e-11

  Total energy:                                            -77.9468213301 a.u.
  Excitation energy:                                              10.158422 eV

  Osc. strength:                                                      0.000000
  Trans. dip. moment [a.u.]:           [   0.000092,    0.000093,   -0.001092]
  <i|r^2|0> [a.u.]:                    [  -0.080740,    0.097032,   -0.015785]
  Two-photon absorption cross-section (SoS) [a.u.]:                 223.499871
  Two-photon absorption matrix (SoS) [a.u.]:
                                       |   -0.367958   -0.056039    3.823945 |
                                       |   -0.056039    0.437548   -3.625719 |
                                       |    3.823945   -3.625719   -0.071063 |
  Two-photon absorption cross-section [a.u.]:                       115.469218
  Two-photon absorption matrix [a.u.]:
                                       |   -0.265049   -0.040660    2.748559 |
                                       |   -0.040660    0.313893   -2.606095 |
                                       |    2.748559   -2.606095   -0.050953 |

  Dip. moment [a.u.]:                  [   0.006393,   -0.006098,   -0.000061]
  Total dipole [Debye]:                                               0.022457
  <r^2> [a.u.]:                        [ 180.371363,   39.752223,   11.600200]
  Total <r^2> [a.u.]:                                               231.723785

  V1^2 = 0.9554, V2^2 = 0.0446

  Important amplitudes:
      occ i     occ j     vir a      vir b          v   
    -----------------------------------------------------
     8 (A) A             12 (A) A                 0.5698
     6 (A) A              9 (A) A                -0.3819
     8 (A) A             19 (A) A                 0.0525
     6 (A) A             20 (A) A                -0.0520
     8 (A) A             23 (A) A                -0.0293
     8 (A) A   8 (A) B    9 (A) A   10 (A) B     -0.0205
     8 (A) A             26 (A) A                 0.0185
     3 (A) A              9 (A) A                 0.0158
     4 (A) A   8 (A) B    9 (A) A    9 (A) B      0.0158
     5 (A) A   8 (A) B   11 (A) A   12 (A) B     -0.0149
     8 (A) A   8 (A) B   12 (A) A   17 (A) B      0.0133
     7 (A) A   8 (A) B   13 (A) A   12 (A) B      0.0130
     4 (A) A   8 (A) B   12 (A) A   12 (A) B     -0.0124
     5 (A) A   8 (A) A   11 (A) A   12 (A) A     -0.0109
     6 (A) A   8 (A) B   15 (A) A   12 (A) B     -0.0102
     7 (A) A   8 (A) B   22 (A) A   12 (A) B     -0.0094
     6 (A) A   8 (A) A   12 (A) A   15 (A) A      0.0091
     6 (A) A   8 (A) B   10 (A) A   12 (A) B      0.0087
[...]
    16   -1.430113813728e-03
    17   -1.737452692634e-03
    18    1.396018853655e-04
    19   -2.974534850069e-03
    20    1.172626428205e-02
    21    9.258013193936e-01
    22   -5.587999558465e-04
    23    1.373073702755e-02
    24    8.043384915975e-04
    25    7.045955750362e-02
    26   -5.243163345122e-02
    27   -1.382794383373e+00
    28    9.987785729057e-02
    29   -9.485153563740e-02
    30   -9.642892932943e-04
    31    3.877628492366e-01
    32   -3.682484968526e-01
    33   -3.743274951344e-03
    34    1.510718391041e-02
    35   -1.426040067082e-03
    36   -1.737108846556e-03
    37    1.325932015932e-04
    38   -2.836282013736e-03
    39    1.128829441965e-02
    40    9.297972448533e-01
    41    4.570319716343e-04
    42   -1.372703984802e-02
    43   -8.083793707008e-04
    44    1.129280251121e-02
    45    9.298049435587e-01
    46    1.373920014005e-02
    47    2.457344428711e-04
    48    6.726599431292e-04
Sym=X
Ene= 0.231047
Spin=Alpha
Occup=0
     1   -2.986825767080e-02
     2   -1.171341536836e+00
     3    1.296238998337e-02
     4    3.532550343306e-03
     5    8.363841008187e-04
     6    5.954578308432e-05
     7   -6.327790315729e-05
     8   -9.371341792539e-04
     9    1.544474517191e-01
    10    1.625284272595e-01
    11    1.725290408313e-02
    12    5.325325136485e-01
    13    5.605148742681e-01
    14    5.950367967281e-02
    15    1.264404231611e-05
    16   -8.008495007291e-05
    17    8.292509484225e-05
    18   -1.511629627102e-03
    19   -8.423476960593e-05
    20    2.990063561166e-02
    21    1.172721957230e+00
    22    2.879345687759e-03
    23    1.313698334972e-02
    24    9.333262112108e-04
    25   -6.065738593517e-05
    26    6.387311215323e-05
    27    9.666750824217e-04
    28    1.546384790042e-01
    29    1.627381292443e-01
    30    1.724104519829e-02
    31    5.275412675165e-01
    32    5.552994117033e-01
    33    5.881537964479e-02
    34   -1.233389112644e-05
    35    6.896125083142e-05
    36   -6.935263007136e-05
    37    1.256414945871e-03
    38    7.105809619928e-05
    39   -2.989009117485e-02
    40   -1.165460392768e+00
    41    2.830505119286e-03
    42    1.310377614069e-02
    43    9.271625267974e-04
    44    2.985713272590e-02
    45    1.164042408909e+00
    46    1.293136801847e-02
    47    3.481894417027e-03
    48    8.299135864258e-04
Sym=X
Ene= 0.236439
Spin=Alpha
Occup=0
     1    1.935749532253e-02
     2    1.074375594563e+00
     3   -1.593494591234e-02
     4   -9.158197051125e-03
     5   -1.318364841272e-03
     6    8.728200797855e-02
     7   -8.267160462792e-02
     8   -1.547020630161e+00
     9   -5.886449136870e-02
    10    5.569345361944e-02
    11    5.420572687314e-04
    12   -2.417162277038e-01
    13    2.287954688385e-01
    14    2.219740104133e-03
    15    2.131386241164e-02
    16   -2.511764589884e-03
    17   -2.883729293947e-03
    18    6.163513306828e-04
    19   -1.246378678049e-02
    20    1.932726008238e-02
    21    1.072721619727e+00
    22    8.334504661275e-03
    23    1.635300469269e-02
    24    1.388916895230e-03
    25   -8.696326422586e-02
    26    8.198111682450e-02
    27    1.543023071062e+00
    28   -5.911397169116e-02
    29    5.593249227021e-02
    30    5.586256560889e-04
    31   -2.431036440706e-01
    32    2.301489495900e-01
    33    2.291757842463e-03
    34   -2.125186297369e-02
    35    2.498088044956e-03
    36    2.872018215117e-03
    37   -6.120824040756e-04
    38    1.236103670002e-02
    39   -1.924419474354e-02
    40   -1.069984579103e+00
    41    8.456952865567e-03
    42    1.628060101713e-02
    43    1.390774286105e-03
    44   -1.927370285797e-02
    45   -1.071577934166e+00
    46   -1.585522644459e-02
    47   -9.277164151613e-03
    48   -1.320263122617e-03
Sym=X
Ene= 0.302963
Spin=Alpha
Occup=0
     1   -2.151029626972e-02
     2    1.657434474077e+00
     3   -2.351099654699e-02
     4    3.401090019398e-04
     5   -1.110011671700e-03
     6   -8.646463099391e-08
     7   -2.981556774180e-06
     8    1.848677440805e-05
     9   -1.352891175575e-01
    10   -1.423146431525e-01
    11   -1.510362813345e-02
    12   -1.125776854170e+00
    13   -1.184139180231e+00
    14   -1.256310409673e-01
    15    3.207065249507e-05
    16   -1.750589068129e-03
    17    1.983725059177e-03
    18   -3.423171276316e-02
    19   -1.749333932005e-03
    20    2.150991448481e-02
    21   -1.657438659796e+00
    22    1.538924976118e-03
    23   -2.345158546347e-02
    24   -1.342695158568e-03
    25    1.812866830071e-06
    26   -2.188723229632e-06
    27   -5.931154669448e-05
    28    1.359485335709e-01
    29    1.430072522394e-01
    30    1.515932204969e-02
    31    1.124082994003e+00
    32    1.182407839328e+00
    33    1.253863637718e-01
    34    3.356792978780e-05
    35   -1.732016607991e-03
    36    1.967075907663e-03
    37   -3.392418184973e-02
    38   -1.734723554247e-03
    39    2.062769574750e-02
    40   -1.658195473767e+00
    41   -1.666523628172e-03
    42    2.343695157463e-02
    43    1.335062638740e-03
    44   -2.062757600713e-02
    45    1.658234746111e+00
    46    2.350431376892e-02
    47   -4.674540817570e-04
    48    1.100042066458e-03
Sym=X
Ene= 0.462766
Spin=Alpha
Occup=0
     1   -1.173656769825e-01
     2   -6.963444768458e-01
     3   -1.507137675073e-02
     4   -1.045107471956e-02
     5   -1.356441455499e-03
     6    6.240468619889e-02
     7    1.724859386993e-02
     8   -3.640019904517e+00
     9    1.032460765403e-01
    10   -9.804876312775e-02
    11   -9.830621557773e-04
    12    2.435798207316e+00
    13   -2.313365636118e+00
    14   -2.260953659554e-02
    15    5.347546040602e-02
    16   -3.343905621760e-03
    17   -4.624580764570e-03
    18   -1.047431215618e-03
    19    1.950875910241e-02
    20   -1.173342559830e-01
    21   -6.963748395697e-01
    22    9.678856934279e-03
    23    1.557425858547e-02
    24    1.406399332773e-03
    25   -6.262022374710e-02
    26   -1.591251371997e-02
    27    3.641844798729e+00
    28    1.054396829455e-01
    29   -1.001271929438e-01
    30   -1.010832895765e-03
    31    2.430538943406e+00
    32   -2.308351778825e+00
    33   -2.259314418279e-02
    34   -5.245711504763e-02
    35    3.182659410779e-03
    36    4.448215269239e-03
    37    1.107859193303e-03
    38   -2.073214089818e-02
    39    1.114443937725e-01
    40    7.011369581544e-01
    41    9.395618721933e-03
    42    1.535303911032e-02
    43    1.377191344353e-03
    44    1.114822970012e-01
    45    7.010998793943e-01
    46   -1.486424699306e-02
    47   -1.015560140909e-02
    48   -1.326984614500e-03
Sym=X
Ene= 0.579815
Spin=Alpha
Occup=0
     1    2.386915855139e-01
     2    3.807125643035e-02
     3   -2.183737794453e-02
     4    2.664612284380e-02
     5    5.611895462040e-04
     6   -5.529017015362e-03
     7   -1.686056337101e-01
     8   -4.507279155321e-01
     9    3.068273065572e-01
    10   -2.913816036543e-01
    11   -2.850377104884e-03
    12   -7.252143560696e-01
    13    6.886562958564e-01
    14    6.783289842466e-03
    15   -2.005465191853e-03
    16    3.650494358840e-03
    17    3.288675462706e-03
    18   -3.050168697917e-03
    19    5.979453699777e-02
    20    2.386884186431e-01
    21    3.808002947377e-02
    22   -2.773735240246e-02
    23    2.043866251821e-02
    24   -9.735190007402e-05
    25   -6.987331329699e-03
    26   -1.694205156643e-01
    27   -3.836193667476e-01
    28   -3.043368724465e-01
    29    2.890058737302e-01
    30    2.823780886753e-03
    31    7.715594590044e-01
    32   -7.326284396085e-01
    33   -7.217809940079e-03
    34   -1.944881417395e-03
    35    3.644703005091e-03
    36    3.281129416173e-03
    37   -3.041009055967e-03
    38    5.978287146313e-02
    39    2.367413624581e-01
    40    5.776650166345e-02
    41    2.843425669304e-02
    42   -2.088442209160e-02
    43    1.029321409669e-04
    44    2.368226495446e-01
    45    5.770569210411e-02
    46    2.231015966147e-02
    47   -2.731220201531e-02
    48   -5.792659670781e-04
Sym=X
Ene= 0.608870
Spin=Alpha
Occup=0
     1   -5.172475519396e-01
     2    2.410793240393e-01
     3   -5.941873662801e-02
     4    3.726477833973e-02
     5   -6.013502620197e-04
     6    3.550205077295e-06
     7   -1.260722400846e-05
     8    2.215102697346e-04
     9   -3.558197076292e-02
    10   -3.742591777988e-02
    11   -3.964741484899e-03
    12    2.604800466075e-01
    13    2.741512806652e-01
    14    2.910786916317e-02
    15    1.201468313613e-04
    16   -7.555806080490e-03
    17    8.565048391804e-03
    18   -1.477920399115e-01
    19   -7.559907393366e-03
    20    5.173234259991e-01
    21   -2.411289229860e-01
    22    4.026513832238e-02
    23   -5.741822217649e-02
    24   -1.533857337470e-03
    25   -4.210826323295e-06
    26    1.648995170162e-05
    27   -1.662294265278e-04
    28   -3.570044400643e-02
    29   -3.758687448949e-02
    30   -3.990073040422e-03
    31    2.617177449284e-01
    32    2.755798246502e-01
    33    2.918103429602e-02
    34   -1.197199777528e-04
    35    7.629828760474e-03
    36   -8.662410894908e-03
    37    1.493905847289e-01
    38    7.638634753957e-03
    39   -5.215184140897e-01
    40    2.493126445850e-01
    41    3.985786064210e-02
    42   -5.763738714744e-02
    43   -1.570735044214e-03
    44    5.213790333926e-01
    45   -2.492689374718e-01
    46   -5.961954958694e-02
    47    3.685424155503e-02
    48   -6.359957451461e-04
Sym=X
Ene= 0.688652
Spin=Alpha
Occup=0
     1    4.845530626812e-05
     2    2.825060130731e-05
     3    9.067049355820e-04
     4    1.146325899686e-03
     5   -1.884230195936e-02
     6    2.747823787791e-06
     7   -9.307072271084e-07
     8    5.308374909478e-05
     9    3.222298745276e-02
    10    4.053642547385e-02
    11   -6.706882876826e-01
    12   -2.956044454541e-02
    13   -3.694372061133e-02
    14    6.128641097702e-01
    15   -1.333625595628e-03
    16    8.256926651841e-02
    17   -7.833529688076e-02
    18   -8.694119678017e-03
    19   -1.205914052347e-03
    20    4.182393421401e-05
    21    5.934006406834e-05
    22    9.018499111437e-04
    23    1.139211998574e-03
    24   -1.883848424633e-02
    25   -2.805001006577e-07
    26    3.438718971699e-05
    27   -7.945190110130e-05
    28    3.219758885647e-02
    29    4.048675604375e-02
    30   -6.705803880342e-01
    31   -2.950756527663e-02
    32   -3.686875875001e-02
    33    6.124479676068e-01
    34    1.321196443959e-03
    35   -8.262925142620e-02
    36    7.839507229186e-02
    37    8.711410724641e-03
    38    1.212286328288e-03
    39   -1.697422714712e-05
    40   -4.869481384300e-05
    41    8.949601612810e-04
    42    1.139133714399e-03
    43   -1.874950829500e-02
    44   -1.024742775700e-05
    45   -8.008678591185e-05
    46    8.908150403216e-04
    47    1.132996369627e-03
    48   -1.875478416693e-02
Sym=X
Ene= 0.704766
Spin=Alpha
Occup=0
     1   -4.882702587436e-01
     2    1.687584273513e-01
     3   -7.812557923064e-02
     4   -4.446546744000e-02
     5   -6.446028461653e-03
     6   -4.638626383651e-02
     7   -3.015716686716e-01
     8    4.896966298790e-01
     9    1.959331232479e-01
    10   -1.861173489142e-01
    11   -1.855387149389e-03
    12   -7.414445144545e-02
    13    7.057246282437e-02
    14    6.532329380684e-04
    15    1.908767337913e-01
    16   -2.051003889735e-02
    17   -2.407942270225e-02
    18    3.802647714618e-03
    19   -7.760285147577e-02
    20   -4.883083915518e-01
    21    1.689362890605e-01
    22    4.043812906343e-02
    23    8.026807063862e-02
    24    6.788012004109e-03
    25   -4.552116396344e-02
    26   -3.010293635945e-01
    27    4.374568415584e-01
    28   -1.958295219596e-01
    29    1.860204324816e-01
    30    1.805827641327e-03
    31    4.096879008878e-02
    32   -3.908659066094e-02
    33   -2.935301646120e-04
    34    1.914163604452e-01
    35   -2.043062607633e-02
    36   -2.402049514862e-02
    37    3.698428780837e-03
    38   -7.563863845729e-02
    39   -4.875984245015e-01
    40    1.588513973741e-01
    41   -4.024074586224e-02
    42   -8.022212541540e-02
    43   -6.772812686888e-03
    44   -4.875888483962e-01
    45    1.586804289174e-01
    46    7.809293945699e-02
    47    4.426618253351e-02
    48    6.426143640212e-03
Sym=X
Ene= 0.775742
Spin=Alpha
Occup=0
     1    5.368381554976e-01
     2   -4.814172086304e-01
     3    1.079208221450e-01
     4    2.624541322842e-02
     5    6.773298525741e-03
     6    8.889509355721e-02
     7   -2.257844459673e-01
     8   -5.629400303010e-01
     9    1.028029801315e-01
    10   -9.759725422245e-02
    11   -9.222462990445e-04
    12    2.976429269300e-01
    13   -2.828314903664e-01
    14   -2.817290864619e-03
    15   -2.031811735179e-01
    16    1.748801532336e-02
    17    2.180022664378e-02
    18   -2.175075638928e-04
    19    8.009432848706e-03
    20    5.367478683913e-01
    21   -4.815143772614e-01
    22   -2.073195129271e-02
    23   -1.090564739220e-01
    24   -7.585969484889e-03
    25   -8.897374116910e-02
    26    2.276059672019e-01
    27    5.703995487021e-01
    28    1.042586044110e-01
    29   -9.895889402766e-02
    30   -9.667946688370e-04
    31    2.904969404327e-01
    32   -2.760938316608e-01
    33   -2.680011792153e-03
    34    2.032921824914e-01
    35   -1.742926639404e-02
    36   -2.175958733124e-02
    37    1.867826488974e-04
    38   -7.316880420968e-03
    39   -5.406493419277e-01
    40    4.799796538001e-01
    41   -2.114292171592e-02
    42   -1.087211950349e-01
    43   -7.578980654994e-03
    44   -5.407309584308e-01
    45    4.798421081326e-01
    46    1.075576574195e-01
    47    2.664213897719e-02
    48    6.772639851014e-03
Sym=X
Ene= 0.807406
Spin=Alpha
Occup=0
     1    1.035569193240e-05
     2    3.772106361927e-05
     3    1.511967131220e-03
     4    1.908022363175e-03
     5   -3.162183352179e-02
     6    3.475079482653e-06
     7   -3.293554855216e-05
     8    1.670619993332e-05
     9    3.674741541232e-02
    10    4.617009688772e-02
    11   -7.641036728098e-01
    12   -5.407229626162e-02
    13   -6.795119959403e-02
    14    1.124375946831e+00
    15    1.045692191952e-03
    16   -6.539336280084e-02
    17    6.204227815491e-02
    18    6.878201379956e-03
    19    9.583567786872e-04
    20    1.265051281036e-05
    21   -5.028207249961e-05
    22    1.514332282316e-03
    23    1.907437897173e-03
    24   -3.161293511123e-02
    25   -4.216132222175e-07
    26   -2.506656652616e-05
    27    1.260232740401e-05
    28   -3.668604099799e-02
    29   -4.614246808176e-02
    30    7.643854753082e-01
    31    5.397771374494e-02
    32    6.784681861110e-02
    33   -1.124359900388e+00
    34    1.058495227968e-03
    35   -6.536584162441e-02
    36    6.201412272554e-02
    37    6.898334352752e-03
    38    9.636424165597e-04
    39   -9.561806263371e-06
    40    6.656991180626e-05
    41   -1.499138207795e-03
    42   -1.902124321380e-03
    43    3.123149080102e-02
    44   -7.507417649065e-06
    45   -2.181797840490e-05
    46   -1.494048715955e-03
    47   -1.893636531888e-03
    48    3.124298209086e-02
Sym=X
Ene= 0.858424
Spin=Alpha
Occup=0
     1    1.451356546564e-02
     2   -1.074574951473e+00
     3    1.457692835803e-01
     4    5.668981177297e-02
     5    1.042313145384e-02
     6    4.888604056353e-06
     7    6.321308043218e-06
     8    1.400993827375e-05
     9   -4.102094498988e-01
    10   -4.314966770985e-01
    11   -4.581678841402e-02
    12    9.343071061968e-01
    13    9.827281277921e-01
    14    1.043453710184e-01
    15   -2.239192546243e-04
    16    1.173938384701e-02
    17   -1.330408131898e-02
    18    2.296242735066e-01
    19    1.173805591697e-02
    20   -1.446790310151e-02
    21    1.074481790850e+00
    22    4.920428757793e-02
    23    1.483796174385e-01
    24    1.133591588724e-02
    25   -4.593076286665e-06
    26   -4.017916250044e-06
    27   -1.083927435178e-05
    28   -4.131887135501e-01
    29   -4.346391427455e-01
    30   -4.605203415325e-02
    31    9.402378564981e-01
    32    9.890013624648e-01
    33    1.047960863562e-01
    34    2.243983274884e-04
    35   -1.181531980132e-02
    36    1.339191918605e-02
    37   -2.311224979221e-01
    38   -1.181900806870e-02
    39    1.409055924567e-02
    40   -1.076860904906e+00
    41    4.790744411261e-02
    42    1.494278716910e-01
    43    1.133239107577e-02
    44   -1.413552955327e-02
    45    1.076950544822e+00
    46    1.468829313087e-01
    47    5.545303713353e-02
    48    1.039290518202e-02
Sym=X
Ene= 0.928010
Spin=Alpha
Occup=0
     1   -1.415980393967e-01
     2    1.234383532365e+00
     3   -1.832318821255e-01
     4    5.155915837647e-03
     5   -8.499685187142e-03
     6   -2.027177344766e-06
     7   -8.117409794467e-05
     8    1.325209149398e-04
     9    4.748905036703e-01
    10    4.995285204529e-01
    11    5.299862517514e-02
    12   -1.386507237270e+00
    13   -1.458508572999e+00
    14   -1.547393813491e-01
    15    1.283635867871e-04
    16   -6.477122711253e-03
    17    7.319827474603e-03
    18   -1.263802014693e-01
    19   -6.466636748328e-03
    20    1.415802780219e-01
    21   -1.234485656275e+00
    22    1.450609720556e-02
    23   -1.826408591153e-01
    24   -1.033527875580e-02
    25   -2.892088604449e-06
    26   -7.247921969963e-05
    27    1.317904560108e-04
    28   -4.730612055842e-01
    29   -4.975979078866e-01
    30   -5.276530532226e-02
    31    1.379108683799e+00
    32    1.450689007200e+00
    33    1.538304437646e-01
    34    1.332447524953e-04
    35   -6.379573413467e-03
    36    7.225253348429e-03
    37   -1.248711480209e-01
    38   -6.401235949212e-03
    39    1.418522347005e-01
    40   -1.228054940521e+00
    41   -1.565100032989e-02
    42    1.815068025070e-01
    43    1.020623067951e-02
    44   -1.418892160156e-01
    45    1.228010716875e+00
    46    1.821668164433e-01
    47   -6.348021266110e-03
    48    8.362856961375e-03
Sym=X
Ene= 0.970583
Spin=Alpha
Occup=0
     1   -5.932981381847e-02
     2    8.987982867531e-01
     3   -8.776560489318e-02
     4   -9.695912856316e-02
     5   -1.006603925592e-02
     6    2.711573989412e-02
     7    2.577247042965e-01
     8    5.062037435806e-01
     9    4.832572421122e-01
    10   -4.589461475417e-01
    11   -4.503489212980e-03
    12   -1.474064696998e+00
    13    1.399885928698e+00
    14    1.372216431573e-02
    15   -5.831720999479e-02
    16   -1.241770876133e-02
    17   -9.190159186514e-03
    18    1.523956992349e-02
    19   -2.974033076493e-01
    20   -5.935411582112e-02
    21    8.987442458575e-01
    22    9.239500056349e-02
    23    9.254852815001e-02
    24    1.003712891856e-02
    25   -2.702364170607e-02
    26   -2.480266668171e-01
    27   -5.216631551878e-01
    28    4.829274816716e-01
    29   -4.586468226470e-01
    30   -4.520520100371e-03
    31   -1.475452383211e+00
    32    1.401284825909e+00
    33    1.379303928907e-02
    34    5.752184931198e-02
    35    1.236345955821e-02
    36    9.169637871617e-03
    37   -1.513614471131e-02
    38    2.953280236561e-01
    39    6.014656309962e-02
    40   -8.946196206585e-01
    41    9.172921124483e-02
    42    9.213295665321e-02
    43    9.981495020080e-03
    44    6.013238154302e-02
    45   -8.946103537248e-01
    46   -8.737595544499e-02
    47   -9.627662565989e-02
    48   -9.999950992654e-03
[5D]

======= END OF MOLDEN-FORMATTED INPUT FILE =======


        *************************************************************
        *                                                           *
        *  Thank you very much for using Q-Chem.  Have a nice day.  *
        *                                                           *
        *************************************************************


