                  Welcome to Q-Chem
     A Quantum Leap Into The Future Of Chemistry


 Q-Chem 5.4 (devel), Q-Chem, Inc., Pleasanton, CA (2021)

 E. Epifanovsky,  A. T. B. Gilbert,  Xintian Feng,  Joonho Lee,  Yuezhi Mao,  
 N. Mardirossian,  P. Pokhilko,  A. White,  M. Wormit,  M. P. Coons,  
 A. L. Dempwolff,  Zhengting Gan,  D. Hait,  P. R. Horn,  L. D. Jacobson,  
 I. Kaliman,  J. Kussmann,  A. W. Lange,  Ka Un Lao,  D. S. Levine,  Jie Liu,  
 S. C. McKenzie,  A. F. Morrison,  K. Nanda,  F. Plasser,  D. R. Rehn,  
 M. L. Vidal,  Zhi-Qiang You,  Ying Zhu,  B. Alam,  B. Albrecht,  
 A. Aldossary,  E. Alguire,  J. H. Andersen,  D. Barton,  K. Begam,  A. Behn,  
 Y. A. Bernard,  E. J. Berquist,  H. Burton,  A. Carreras,  K. Carter-Fenk,  
 R. Chakraborty,  A. D. Chien,  K. D. Closser,  V. Cofer-Shabica,  
 S. Dasgupta,  Jia Deng,  M. de Wergifosse,  M. Diedenhofen,  Hainam Do,  
 S. Ehlert,  Po-Tung Fang,  S. Fatehi,  Qingguo Feng,  T. Friedhoff,  
 J. Gayvert,  Qinghui Ge,  G. Gidofalvi,  M. Goldey,  J. Gomes,  
 C. Gonzalez-Espinoza,  S. Gulania,  A. Gunina,  M. W. D. Hanson-Heine,  
 P. H. P. Harbach,  A. W. Hauser,  M. F. Herbst,  M. Hernandez Vera,  
 M. Hodecker,  Z. C. Holden,  S. Houck,  Xunkun Huang,  Kerwin Hui,  
 B. C. Huynh,  M. Ivanov,  Hyunjun Ji,  Hanjie Jiang,  B. Kaduk,  S. Kaehler,  
 K. Khistyaev,  Jaehoon Kim,  P. Klunzinger,  Z. Koczor-Benda,  
 Joong Hoon Koh,  D. Kosenkov,  L. Koulias,  T. Kowalczyk,  C. M. Krauter,  
 K. Kue,  A. Kunitsa,  T. Kus,  A. Landau,  K. V. Lawler,  D. Lefrancois,  
 S. Lehtola,  Rain Li,  Yi-Pei Li,  Jiashu Liang,  M. Liebenthal,  
 Hung-Hsuan Lin,  You-Sheng Lin,  Fenglai Liu,  Kuan-Yu Liu,  
 M. Loipersberger,  A. Luenser,  A. Manjanath,  P. Manohar,  E. Mansoor,  
 S. F. Manzer,  Shan-Ping Mao,  A. V. Marenich,  T. Markovich,  S. Mason,  
 S. A. Maurer,  P. F. McLaughlin,  M. F. S. J. Menger,  J.-M. Mewes,  
 S. A. Mewes,  P. Morgante,  J. W. Mullinax,  K. J. Oosterbaan,  G. Paran,  
 Alexander C. Paul,  Suranjan K. Paul,  F. Pavosevic,  Zheng Pei,  S. Prager,  
 E. I. Proynov,  E. Ramos,  B. Rana,  A. E. Rask,  A. Rettig,  R. M. Richard,  
 F. Rob,  E. Rossomme,  T. Scheele,  M. Scheurer,  M. Schneider,  
 N. Sergueev,  S. M. Sharada,  W. Skomorowski,  D. W. Small,  C. J. Stein,  
 Yu-Chuan Su,  E. J. Sundstrom,  Zhen Tao,  J. Thirman,  T. Tsuchimochi,  
 N. M. Tubman,  S. P. Veccham,  O. Vydrov,  J. Wenzel,  J. Witte,  A. Yamada,  
 Kun Yao,  S. Yeganeh,  S. R. Yost,  A. Zech,  Igor Ying Zhang,  Xing Zhang,  
 Yu Zhang,  D. Zuev,  A. Aspuru-Guzik,  A. T. Bell,  N. A. Besley,  
 K. B. Bravaya,  B. R. Brooks,  D. Casanova,  Jeng-Da Chai,  S. Coriani,  
 C. J. Cramer,  A. E. DePrince, III,  R. A. DiStasio Jr.,  A. Dreuw,  
 B. D. Dunietz,  T. R. Furlani,  W. A. Goddard III,  S. Grimme,  
 S. Hammes-Schiffer,  T. Head-Gordon,  W. J. Hehre,  Chao-Ping Hsu,  
 T.-C. Jagau,  Yousung Jung,  A. Klamt,  Jing Kong,  D. S. Lambrecht,  
 WanZhen Liang,  N. J. Mayhall,  C. W. McCurdy,  J. B. Neaton,  
 C. Ochsenfeld,  J. A. Parkhill,  R. Peverati,  V. A. Rassolov,  Yihan Shao,  
 L. V. Slipchenko,  T. Stauch,  R. P. Steele,  J. E. Subotnik,  
 A. J. W. Thom,  A. Tkatchenko,  D. G. Truhlar,  T. Van Voorhis,  
 T. A. Wesolowski,  K. B. Whaley,  H. L. Woodcock III,  P. M. Zimmerman,  
 S. Faraji,  P. M. W. Gill,  M. Head-Gordon,  J. M. Herbert,  A. I. Krylov

 Additional authors for Version 5.4.1: 
 S. Kotaru,  Shaozhi Li,  Xiangyuan Li,  F. Matz,  A. Molle,  Haisheng Ren,  
 Yingli Su,  Hung-Yi Tsai,  C. Utku,  Fang Wang

 Contributors to earlier versions of Q-Chem not listed above: 
 R. D. Adamson,  B. Austin,  R. Baer,  J. Baker,  G. J. O. Beran,  
 K. Brandhorst,  S. T. Brown,  E. F. C. Byrd,  A. K. Chakraborty,  
 G. K. L. Chan,  Chun-Min Chang,  Yunqing Chen,  C.-L. Cheng,  
 Siu Hung Chien,  D. M. Chipman,  D. L. Crittenden,  H. Dachsel,  
 R. J. Doerksen,  A. D. Dutoi,  R. G. Edgar,  J. Fosso-Tande,  
 L. Fusti-Molnar,  D. Ghosh,  A. Ghysels,  A. Golubeva-Zadorozhnaya,  
 J. Gonthier,  M. S. Gordon,  S. R. Gwaltney,  G. Hawkins,  J. E. Herr,  
 A. Heyden,  S. Hirata,  E. G. Hohenstein,  G. Kedziora,  F. J. Keil,  
 C. Kelley,  Jihan Kim,  R. A. King,  R. Z. Khaliullin,  P. P. Korambath,  
 W. Kurlancheek,  A. Laurent,  A. M. Lee,  M. S. Lee,  S. V. Levchenko,  
 Ching Yeh Lin,  D. Liotard,  E. Livshits,  R. C. Lochan,  I. Lotan,  
 L. A. Martinez-Martinez,  P. E. Maslen,  N. Nair,  D. P. O'Neill,  
 D. Neuhauser,  E. Neuscamman,  C. M. Oana,  R. Olivares-Amaya,  R. Olson,  
 T. M. Perrine,  B. Peters,  P. A. Pieniazek,  A. Prociuk,  Y. M. Rhee,  
 J. Ritchie,  M. A. Rohrdanz,  E. Rosta,  N. J. Russ,  H. F. Schaefer III,  
 M. W. Schmidt,  N. E. Schultz,  S. Sharma,  N. Shenvi,  C. D. Sherrill,  
 A. C. Simmonett,  A. Sodt,  T. Stein,  D. Stuck,  K. S. Thanthiriwatte,  
 V. Vanovschi,  L. Vogt,  Tao Wang,  A. Warshel,  M. A. Watson,  
 C. F. Williams,  Q. Wu,  X. Xu,  Jun Yang,  W. Zhang,  Yan Zhao

 Please cite Q-Chem as follows:
 Y. Shao et al., Mol. Phys. 113, 184-215 (2015)
 DOI: 10.1080/00268976.2014.952696

 Q-Chem 5.4.1 for Intel X86 EM64T Linux

 Parts of Q-Chem use Armadillo 9.800.1 (Horizon Scraper).
 http://arma.sourceforge.net/

 Q-Chem begins on Thu Nov 17 15:42:27 2022  

 Host: cpu196.baobab
0

     Scratch files written to /scratch/fum/qchem13138//
 Processing $rem in /home/share/wesolowski/qc5.aug2021.FDE/config/preferences:
 Processing $rem in /home/fum/.qchemrc:

 Checking the input file for inconsistencies... 	...done.

--------------------------------------------------------------
User input:
--------------------------------------------------------------
$comment
generated from CCJob.Templates
$end

$rem
sym_ignore = true
method = adc(2)
ee_states = 10
basis = cc-pVDZ
mem_static = 1024
mem_total = 40000
adc_davidson_maxiter = 900
adc_davidson_conv = 6
adc_print = 3
adc_prop_es = true
adc_prop_es2es = true
adc_prop_tpa = true
molden_format = True
state_analysis = true
print_orbitals = 15
gen_scfman = false
fde_export_density = true
fde_details = 3
$end

$molecule
0 1
H -0.0348278765 -0.2442097827 0.0636489606
C -1.0765972949 -0.5242748755 -0.0023551776
H -1.313264467 -1.5767591607 -0.0757276926
C -2.043634118 0.3926884087 -0.0038745067000000005
H -1.8137616575 1.4459188338 0.0804456828
H -3.085977293 0.114931858 -0.0593381042                     
$end
--------------------------------------------------------------
 ----------------------------------------------------------------
             Standard Nuclear Orientation (Angstroms)
    I     Atom           X                Y                Z
 ----------------------------------------------------------------
    1      H      -0.0348278765    -0.2442097827     0.0636489606
    2      C      -1.0765972949    -0.5242748755    -0.0023551776
    3      H      -1.3132644670    -1.5767591607    -0.0757276926
    4      C      -2.0436341180     0.3926884087    -0.0038745067
    5      H      -1.8137616575     1.4459188338     0.0804456828
    6      H      -3.0859772930     0.1149318580    -0.0593381042
 ----------------------------------------------------------------
 Nuclear Repulsion Energy =          33.42351040 hartrees
 There are        8 alpha and        8 beta electrons
 Requested basis set is cc-pVDZ
 There are 24 shells and 48 basis functions
 Total memory of 40000 MB is distributed as follows: 
   MEM_STATIC is set to 1024 MB
   QALLOC/CCMAN JOB total memory use is  38976 MB
 Warning: actual memory use might exceed 40000 MB

 Total QAlloc Memory Limit  40000 MB
 Mega-Array Size      1001 MB
 MEM_STATIC part      1024 MB

                       Distance Matrix (Angstroms)
             H (  1)   C (  2)   H (  3)   C (  4)   H (  5)
   C (  2)  1.080776
   H (  3)  1.851895  1.081258
   C (  4)  2.108436  1.332661  2.101744
   H (  5)  2.453859  2.105215  3.067812  1.081317
   H (  6)  3.074674  2.109370  2.450428  1.080141  1.846510

 A cutoff of  1.0D-11 yielded    300 shell pairs
 There are      1220 function pairs (      1329 Cartesian)
 Smallest overlap matrix eigenvalue = 4.80E-03

 Scale SEOQF with 1.000000e-01/1.000000e-01/1.000000e+00

 Standard Electronic Orientation quadrupole field applied
 Nucleus-field energy     =     0.0000000022 hartrees
 Guess from superposition of atomic densities
 Warning:  Energy on first SCF cycle will be non-variational
 SAD guess density has 16.000000 electrons
 A restricted Hartree-Fock SCF calculation will be
 performed using Pulay DIIS extrapolation
 SCF converges when DIIS error is below 1.0E-08
 using 10 threads for integral computing
 -------------------------------------------------------
 OpenMP Integral computing Module                
 Release: version 1.0, May 2013, Q-Chem Inc. Pittsburgh 
 -------------------------------------------------------
 ---------------------------------------
  Cycle       Energy         DIIS Error
 ---------------------------------------
    1     -78.4387789446      1.01E-01
    2     -78.0176634007      7.21E-03
    3     -78.0382941259      1.84E-03
    4     -78.0397770071      5.73E-04
    5     -78.0398986389      5.79E-05
    6     -78.0399005152      9.34E-06
    7     -78.0399005759      2.25E-06
    8     -78.0399005788      9.17E-07
    9     -78.0399005790      9.26E-08
   10     -78.0399005790      1.30E-08
   11     -78.0399005790      3.59E-09 Convergence criterion met
 ---------------------------------------
 SCF time:  CPU 1.53 s  wall 2.17 s
 SCF   energy in the final basis set = -78.03990058
 Total energy in the final basis set = -78.03990058
Exporting Density Matrix to file 'Densmat_SCF.txt'.
Export successful
================================================================================
|                                                                              |
|                                 A D C  M A N                                 |
|                                                                              |
 ------------------------------------------------------------------------------ 
|                                                                              |
| Components:                                                                  |
|                                                                              |
| - libvmm - 1.3-trunk                                                         |
|   Authors:                                                                   |
|   Evgeny Epifanovsky, Ilya Kaliman                                           |
|                                                                              |
| - libtensor - 2.5-trunk                                                      |
|   Authors:                                                                   |
|   Evgeny Epifanovsky, Michael Wormit, Dmitry Zuev, Sam Manzer,               |
|   Ilya Kaliman                                                               |
|                                                                              |
| - libwfa - 1.1-trunk                                                         |
|   Authors:                                                                   |
|   Felix Plasser, Stefanie Mewes (Baeppler), Benjamin Thomitzni,              |
|   Michael Wormit, Feng Chen, Anna I. Krylov, Pavel Pokhilko                  |
|                                                                              |
| - libadc - 1.1-trunk                                                         |
|   Authors:                                                                   |
|   Michael Wormit, Adrian L. Dempwolff, Philipp H. P. Harbach,                |
|   Caroline Krauter, Dirk Rehn, Matthias Schneider, Jan Wenzel                |
|                                                                              |
| - adcman - 2.6-trunk                                                         |
|   Authors:                                                                   |
|   Michael Wormit, Adrian L. Dempwolff, Philipp H. P. Harbach,                |
|   Caroline Krauter, Daniel Lefrancois, Jan-Michael Mewes, Dirk Rehn,         |
|   Matthias Schneider, Jan Wenzel, Andreas Dreuw                              |
|                                                                              |
| Authors of earlier versions of ADCMAN:                                       |
| Andreas Dreuw, Jan Hendrik Starcke, Dirk Rehn, Michael Wormit                |
|                                                                              |
================================================================================

 Created directory /scratch/fum/qchem13138/plots
  Import QC data ...  CPU 0.00 s  wall 0.00 s

 Alpha MOs, Restricted
 -- Occupied --                  
-11.235 -11.233  -1.032  -0.790  -0.641  -0.582  -0.505  -0.374
  1 A     2 A     3 A     4 A     5 A     6 A     7 A     8 A                  
 -- Virtual --                   
  0.168   0.204   0.233   0.239   0.303   0.462   0.578   0.615
  9 A    10 A    11 A    12 A    13 A    14 A    15 A    16 A                  
  0.689   0.709   0.785   0.808   0.862   0.936   0.972   1.010
 17 A    18 A    19 A    20 A    21 A    22 A    23 A    24 A                  
  1.129   1.235   1.254   1.266   1.294   1.601   1.727   1.750
 25 A    26 A    27 A    28 A    29 A    30 A    31 A    32 A                  
  1.819   1.859   1.867   1.921   1.977   1.978   2.221   2.258
 33 A    34 A    35 A    36 A    37 A    38 A    39 A    40 A                  
  2.376   2.454   2.506   2.634   2.721   2.822   3.140   3.399
 41 A    42 A    43 A    44 A    45 A    46 A    47 A    48 A                  

 Beta MOs, Restricted
 -- Occupied --                  
-11.235 -11.233  -1.032  -0.790  -0.641  -0.582  -0.505  -0.374
  1 A     2 A     3 A     4 A     5 A     6 A     7 A     8 A                  
 -- Virtual --                   
  0.168   0.204   0.233   0.239   0.303   0.462   0.578   0.615
  9 A    10 A    11 A    12 A    13 A    14 A    15 A    16 A                  
  0.689   0.709   0.785   0.808   0.862   0.936   0.972   1.010
 17 A    18 A    19 A    20 A    21 A    22 A    23 A    24 A                  
  1.129   1.235   1.254   1.266   1.294   1.601   1.727   1.750
 25 A    26 A    27 A    28 A    29 A    30 A    31 A    32 A                  
  1.819   1.859   1.867   1.921   1.977   1.978   2.221   2.258
 33 A    34 A    35 A    36 A    37 A    38 A    39 A    40 A                  
  2.376   2.454   2.506   2.634   2.721   2.822   3.140   3.399
 41 A    42 A    43 A    44 A    45 A    46 A    47 A    48 A                  
  Import AO data ...  CPU 0.00 s  wall 0.01 s
  Using point group: C1
  Irreducible representations in point group: A
  Molecular orbitals: 
  Occupied MOs:
  Block   0:   1 (  A) A   2 (  A) A   3 (  A) A   4 (  A) A   5 (  A) A
                  -11.24      -11.23      -1.032     -0.7898     -0.6411
               6 (  A) A   7 (  A) A   8 (  A) A
                 -0.5819     -0.5046      -0.374
  Block   1:   1 (  A) B   2 (  A) B   3 (  A) B   4 (  A) B   5 (  A) B
                  -11.24      -11.23      -1.032     -0.7898     -0.6411
               6 (  A) B   7 (  A) B   8 (  A) B
                 -0.5819     -0.5046      -0.374
  Virtual MOs:
  Block   0:   9 (  A) A  10 (  A) A  11 (  A) A  12 (  A) A  13 (  A) A
                  0.1684      0.2037       0.233      0.2394      0.3033
              14 (  A) A  15 (  A) A  16 (  A) A  17 (  A) A  18 (  A) A
                   0.462      0.5775      0.6151      0.6892      0.7089
              19 (  A) A  20 (  A) A  21 (  A) A  22 (  A) A
                  0.7846       0.808      0.8622      0.9359
  Block   1:  23 (  A) A  24 (  A) A  25 (  A) A  26 (  A) A  27 (  A) A
                  0.9725        1.01       1.129       1.235       1.254
              28 (  A) A  29 (  A) A  30 (  A) A  31 (  A) A  32 (  A) A
                   1.266       1.294       1.601       1.727        1.75
              33 (  A) A  34 (  A) A  35 (  A) A  36 (  A) A
                   1.819       1.859       1.867       1.921
  Block   2:  37 (  A) A  38 (  A) A  39 (  A) A  40 (  A) A  41 (  A) A
                   1.977       1.978       2.221       2.258       2.376
              42 (  A) A  43 (  A) A  44 (  A) A  45 (  A) A  46 (  A) A
                   2.454       2.506       2.634       2.721       2.822
              47 (  A) A  48 (  A) A
                    3.14       3.399
  Block   3:   9 (  A) B  10 (  A) B  11 (  A) B  12 (  A) B  13 (  A) B
                  0.1684      0.2037       0.233      0.2394      0.3033
              14 (  A) B  15 (  A) B  16 (  A) B  17 (  A) B  18 (  A) B
                   0.462      0.5775      0.6151      0.6892      0.7089
              19 (  A) B  20 (  A) B  21 (  A) B  22 (  A) B
                  0.7846       0.808      0.8622      0.9359
  Block   4:  23 (  A) B  24 (  A) B  25 (  A) B  26 (  A) B  27 (  A) B
                  0.9725        1.01       1.129       1.235       1.254
              28 (  A) B  29 (  A) B  30 (  A) B  31 (  A) B  32 (  A) B
                   1.266       1.294       1.601       1.727        1.75
              33 (  A) B  34 (  A) B  35 (  A) B  36 (  A) B
                   1.819       1.859       1.867       1.921
  Block   5:  37 (  A) B  38 (  A) B  39 (  A) B  40 (  A) B  41 (  A) B
                   1.977       1.978       2.221       2.258       2.376
              42 (  A) B  43 (  A) B  44 (  A) B  45 (  A) B  46 (  A) B
                   2.454       2.506       2.634       2.721       2.822
              47 (  A) B  48 (  A) B
                    3.14       3.399
  Import MO data ...  CPU 0.01 s  wall 0.02 s
  Import HF data ...  CPU 0.08 s  wall 0.04 s
  Import 2e integrals ...  CPU 0.67 s  wall 0.12 s

--------------------------------------------------------------------------------
                                   HF Summary                                   
--------------------------------------------------------------------------------
  Energy:                                                  -78.0399005790 a.u.
  Dip. moment [a.u.]:                  [  -0.000972,    0.000106,    0.005920]
  Total dipole [Debye]:                                               0.015250
  <r^2> [a.u.]:                        [ 175.315910,   34.921980,   11.625358]
  Total <r^2> [a.u.]:                                               221.863248
--------------------------------------------------------------------------------
  HF properties ...  CPU 0.01 s  wall 0.01 s
  MP(1) calculation ...  CPU 0.01 s  wall 0.01 s
  N^6 prerequesite intermediates ...  CPU 0.51 s  wall 0.08 s
  Difference density matrix of state mp2_gs printed to ASCII file 'State_mp2_gs_Difference.txt'
Exporting MP density matrix to file 'Densmat_MP.txt'.
Export successful
  Total density matrix of state mp2_gs printed to ASCII file 'State_mp2_gs_Total.txt'
Exporting MP density matrix to file 'Densmat_MP.txt'.
Export successful

--------------------------------------------------------------------------------
                                 MP(2) Summary                                  
--------------------------------------------------------------------------------
  MP energy contribution:                                   -0.2797098655 a.u.
  Total energy:                                            -78.3196104445 a.u.
  Dip. moment [a.u.]:                  [  -0.000950,    0.000058,    0.005842]
  Total dipole [Debye]:                                               0.015044
  <r^2> [a.u.]:                        [ 175.362820,   34.962431,   11.457207]
  Total <r^2> [a.u.]:                                               221.782458

  Density matrix analysis:
  ------------------------
  NOs
    Occupation of frontier NOs:
       0.0453   1.9383
    Number of electrons: 16.000000
    Number of unpaired electrons: n_u =  0.40345, n_u,nl =  0.04508
    NO participation ratio (PR_NO): 13.857240
  
  
  Mulliken Population Analysis
  Atom      Charge (e)              h+              e-           Del q
  --------------------------------------------------------------------
   1 H        0.050990        0.014029       -0.011203        0.002827
   2 C       -0.100703        0.093209       -0.098852       -0.005642
   3 H        0.050519        0.014078       -0.011190        0.002888
   4 C       -0.101538        0.093005       -0.098902       -0.005897
   5 H        0.050256        0.014118       -0.011186        0.002931
   6 H        0.050475        0.014087       -0.011194        0.002893
  --------------------------------------------------------------------
  Sum:        0.000000        0.242527       -0.242527        0.000000
  
  Multipole moment analysis of the density matrix
    Molecular charge:                      -0.000000
    Number of electrons:                   16.000000
      Center of electronic charge [Ang]: [ -1.560545,  -0.065604,  -0.001965]
    Total nuclear charge:                  16.000000
      Center of nuclear charge [Ang]:    [ -1.560576,  -0.065602,  -0.001772]
    Dipole moment [D]:                     0.015044
      Cartesian components [D]:          [ -0.002414,   0.000149,   0.014849]
    RMS size of the density [Ang]:         1.200825
      Cartesian components [Ang]:        [  0.796154,   0.779488,   0.447792]
  
  Exciton analysis of the difference density matrix
    <r_h> [Ang]:                  [ -1.560349,  -0.065682,  -0.002917]
    <r_e> [Ang]:                  [ -1.560397,  -0.065578,  -0.002747]
    |<r_e - r_h>| [Ang]:            0.000205
    Hole size [Ang]:                1.393696
      Cartesian components [Ang]: [  0.846531,   0.834286,   0.727834]
    Electron size [Ang]:            1.359769
      Cartesian components [Ang]: [  0.877854,   0.861831,   0.579302]
--------------------------------------------------------------------------------
  MP(2) calculation ...  CPU 0.13 s  wall 0.12 s
  Start ADC(2)-s ...  CPU 0.01 s  wall 0.01 s
  ADC(2) intermediates ...  CPU 0.02 s  wall 0.01 s
  Starting Davidson for singlet states of irrep A ... 
--------------------------------------------------------------------------------
   It NVec Conv  Avg. Norm  Max. Norm  Conv. states           Remark
--------------------------------------------------------------------------------
        10    0  1.330e-01  4.687e-01  0.4119 n n n n n n n n Guess.
    1   20    0  2.325e-02  1.109e-01  0.3262 n n n n n n n n 
    2   30    0  6.115e-03  2.522e-02  0.3215 n n n n n n n n 
    3   40    0  2.093e-03  1.033e-02  0.3211 n n n n n n n n 
    4   50    0  5.382e-04  3.348e-03  0.3211 n n n n n n n n 
    5   20    0  3.062e-04  1.702e-03  0.3211 n n n n n n n n Subspace collapsed.
    6   30    0  2.725e-04  1.730e-03  0.3211 n n n n n n n n 
    7   40    0  1.843e-04  1.394e-03  0.3211 n n n n n n n n 
    8   50    0  1.148e-04  9.009e-04  0.3211 n n n n n n n n 
    9   20    1  7.053e-05  5.449e-04  0.3211 n y n n n n n n Subspace collapsed.
   10   30    2  3.775e-05  2.644e-04  0.3211 n y n y n n n n 
   11   40    3  2.328e-05  1.786e-04  0.3211 n y y y n n n n 
   12   50    5  1.180e-05  9.400e-05  0.3211 y y y y y n n n 
   13   20    6  8.444e-06  7.334e-05  0.3211 y y y y y y n n Subspace collapsed.
   14   30    6  1.071e-05  9.680e-05  0.3211 y y y y y y n n 
   15   40    6  1.233e-05  1.153e-04  0.3211 y y y y y y n n 
   16   50    6  9.652e-06  9.290e-05  0.3211 y y y y y y n n 
   17   20    6  5.188e-06  4.992e-05  0.3211 y y y y y y n n Subspace collapsed.
   18   30    7  3.745e-06  3.581e-05  0.3211 y y y y y y y n 
   19   40    7  1.806e-06  1.742e-05  0.3211 y y y y y y y n 
   20   50    7  1.921e-06  1.874e-05  0.3211 y y y y y y y n 
   21   20    8  1.231e-06  1.207e-05  0.3211 y y y y y y y y Subspace collapsed.
   22   30    7  2.144e-06  2.110e-05  0.3211 y y y y y y y n 
   23   31    7  2.088e-06  2.057e-05  0.3211 y y y y y y y n 
   24   40    8  2.204e-06  2.188e-05  0.3211 y y y y y y y y 
   25   49    8  1.869e-06  1.860e-05  0.3211 y y y y y y y y 
   26   50    8  1.844e-06  1.835e-05  0.3211 y y y y y y y y 
   27   17    9  8.698e-07  8.659e-06  0.3211 y y y y y y y y Subspace collapsed.
   28   23    9  7.688e-07  7.655e-06  0.3211 y y y y y y y y 
   29   29    9  3.351e-07  3.338e-06  0.3211 y y y y y y y y 
   30   35    9  3.058e-07  3.048e-06  0.3211 y y y y y y y y 
   31   35    9  3.058e-07  3.048e-06  0.3211 y y y y y y y y 
   32   45    9  3.720e-07  3.712e-06  0.3211 y y y y y y y y 
   33   45    9  3.720e-07  3.712e-06  0.3211 y y y y y y y y 
   34   50    9  3.847e-07  3.839e-06  0.3211 y y y y y y y y 
   35   14    9  1.972e-07  1.968e-06  0.3211 y y y y y y y y Subspace collapsed.
   36   18    9  2.020e-07  2.017e-06  0.3211 y y y y y y y y 
   37   22    9  2.563e-07  2.560e-06  0.3211 y y y y y y y y 
   38   26    9  2.346e-07  2.345e-06  0.3211 y y y y y y y y 
   39   30    9  1.562e-07  1.562e-06  0.3211 y y y y y y y y 
   40   34   10  8.363e-08  8.360e-07  0.3211 y y y y y y y y Converged.
--------------------------------------------------------------------------------
  Davidson Summary: 
 ------------------------------------------------------------
  State  0: excitation energy =   0.3211 a.u.   (converged)
  State  1: excitation energy =   0.3327 a.u.   (converged)
  State  2: excitation energy =   0.3370 a.u.   (converged)
  State  3: excitation energy =   0.3614 a.u.   (converged)
  State  4: excitation energy =   0.3753 a.u.   (converged)
  State  5: excitation energy =   0.3872 a.u.   (converged)
  State  6: excitation energy =   0.4247 a.u.   (converged)
  State  7: excitation energy =   0.4471 a.u.   (converged)
  State  8: excitation energy =   0.4563 a.u.   (converged)
  State  9: excitation energy =   0.4647 a.u.   (converged)
 ------------------------------------------------------------

  Singlet states of irrep A ...  CPU 94.91 s  wall 33.00 s
  TDMs ...  CPU 0.66 s  wall 0.28 s
  SDMs ...  CPU 1.47 s  wall 0.52 s
  Starting TPA DIIS iterations ... 
------------------------------------ 
   It     Res. Norm  Remark
------------------------------------
                       Guess.
    1     4.404e+00  
    2     5.838e+00  
    3     1.077e+00  
    4     2.566e-01  
    5     6.576e-02  
    6     2.673e-02  
    7     8.237e-03  
    8     1.441e-03  
    9     5.354e-04  
   10     9.005e-05  
   11     2.869e-05  
   12     4.484e-06  
   13     1.664e-06  
   14     4.796e-07  Converged.
   ... Converged in 14 steps (norm: 4.79567e-07)
------------------------------------
  Starting TPA DIIS iterations ... 
------------------------------------ 
   It     Res. Norm  Remark
------------------------------------
                       Guess.
    1     4.186e+00  
    2     5.543e+00  
    3     1.030e+00  
    4     2.557e-01  
    5     6.536e-02  
    6     2.675e-02  
    7     8.118e-03  
    8     1.460e-03  
    9     5.394e-04  
   10     9.045e-05  
   11     2.898e-05  
   12     4.572e-06  
   13     1.564e-06  
   14     4.848e-07  Converged.
   ... Converged in 14 steps (norm: 4.84811e-07)
------------------------------------
  Starting TPA DIIS iterations ... 
------------------------------------ 
   It     Res. Norm  Remark
------------------------------------
                       Guess.
    1     6.894e-01  
    2     4.856e-01  
    3     1.717e-01  
    4     7.763e-02  
    5     1.812e-02  
    6     6.371e-03  
    7     1.039e-03  
    8     4.482e-04  
    9     1.237e-04  
   10     2.991e-05  
   11     4.933e-06  
   12     1.610e-06  
   13     9.267e-07  Converged.
   ... Converged in 13 steps (norm: 9.26691e-07)
------------------------------------
  Starting TPA DIIS iterations ... 
------------------------------------ 
   It     Res. Norm  Remark
------------------------------------
                       Guess.
    1     4.690e+00  
    2     6.353e+00  
    3     1.157e+00  
    4     2.851e-01  
    5     7.406e-02  
    6     3.036e-02  
    7     9.338e-03  
    8     1.632e-03  
    9     6.108e-04  
   10     1.033e-04  
   11     3.331e-05  
   12     5.250e-06  
   13     2.002e-06  
   14     5.733e-07  Converged.
   ... Converged in 14 steps (norm: 5.73279e-07)
------------------------------------
  Starting TPA DIIS iterations ... 
------------------------------------ 
   It     Res. Norm  Remark
------------------------------------
                       Guess.
    1     4.457e+00  
    2     6.031e+00  
    3     1.107e+00  
    4     2.839e-01  
    5     7.362e-02  
    6     3.041e-02  
    7     9.206e-03  
    8     1.654e-03  
    9     6.155e-04  
   10     1.038e-04  
   11     3.363e-05  
   12     5.371e-06  
   13     1.864e-06  
   14     5.769e-07  Converged.
   ... Converged in 14 steps (norm: 5.76935e-07)
------------------------------------
  Starting TPA DIIS iterations ... 
------------------------------------ 
   It     Res. Norm  Remark
------------------------------------
                       Guess.
    1     7.015e-01  
    2     5.032e-01  
    3     1.817e-01  
    4     8.778e-02  
    5     1.949e-02  
    6     7.002e-03  
    7     1.172e-03  
    8     5.281e-04  
    9     1.495e-04  
   10     3.428e-05  
   11     5.567e-06  
   12     1.894e-06  
   13     1.136e-06  
   14     3.252e-07  Converged.
   ... Converged in 14 steps (norm: 3.25218e-07)
------------------------------------
  Starting TPA DIIS iterations ... 
------------------------------------ 
   It     Res. Norm  Remark
------------------------------------
                       Guess.
    1     4.805e+00  
    2     6.561e+00  
    3     1.190e+00  
    4     2.968e-01  
    5     7.748e-02  
    6     3.187e-02  
    7     9.792e-03  
    8     1.710e-03  
    9     6.421e-04  
   10     1.087e-04  
   11     3.525e-05  
   12     5.573e-06  
   13     2.150e-06  
   14     6.141e-07  Converged.
   ... Converged in 14 steps (norm: 6.14088e-07)
------------------------------------
  Starting TPA DIIS iterations ... 
------------------------------------ 
   It     Res. Norm  Remark
------------------------------------
                       Guess.
    1     4.566e+00  
    2     6.229e+00  
    3     1.138e+00  
    4     2.955e-01  
    5     7.703e-02  
    6     3.193e-02  
    7     9.656e-03  
    8     1.734e-03  
    9     6.471e-04  
   10     1.093e-04  
   11     3.559e-05  
   12     5.709e-06  
   13     1.994e-06  
   14     6.163e-07  Converged.
   ... Converged in 14 steps (norm: 6.16293e-07)
------------------------------------
  Starting TPA DIIS iterations ... 
------------------------------------ 
   It     Res. Norm  Remark
------------------------------------
                       Guess.
    1     7.062e-01  
    2     5.101e-01  
    3     1.856e-01  
    4     9.199e-02  
    5     2.004e-02  
    6     7.263e-03  
    7     1.228e-03  
    8     5.621e-04  
    9     1.604e-04  
   10     3.575e-05  
   11     5.822e-06  
   12     2.015e-06  
   13     1.228e-06  
   14     3.491e-07  Converged.
   ... Converged in 14 steps (norm: 3.49108e-07)
------------------------------------
  Starting TPA DIIS iterations ... 
------------------------------------ 
   It     Res. Norm  Remark
------------------------------------
                       Guess.
    1     5.544e+00  
    2     7.940e+00  
    3     1.397e+00  
    4     3.768e-01  
    5     1.008e-01  
    6     4.223e-02  
    7     1.290e-02  
    8     2.245e-03  
    9     8.575e-04  
   10     1.465e-04  
   11     4.899e-05  
   12     7.859e-06  
   13     3.266e-06  
   14     9.311e-07  Converged.
   ... Converged in 14 steps (norm: 9.31059e-07)
------------------------------------
  Starting TPA DIIS iterations ... 
------------------------------------ 
   It     Res. Norm  Remark
------------------------------------
                       Guess.
    1     5.267e+00  
    2     7.537e+00  
    3     1.335e+00  
    4     3.745e-01  
    5     1.003e-01  
    6     4.239e-02  
    7     1.272e-02  
    8     2.279e-03  
    9     8.645e-04  
   10     1.475e-04  
   11     4.943e-05  
   12     8.132e-06  
   13     2.953e-06  
   14     9.038e-07  Converged.
   ... Converged in 14 steps (norm: 9.03767e-07)
------------------------------------
  Starting TPA DIIS iterations ... 
------------------------------------ 
   It     Res. Norm  Remark
------------------------------------
                       Guess.
    1     7.335e-01  
    2     5.524e-01  
    3     2.105e-01  
    4     1.208e-01  
    5     2.365e-02  
    6     9.042e-03  
    7     1.627e-03  
    8     8.001e-04  
    9     2.358e-04  
   10     4.144e-05  
   11     7.511e-06  
   12     2.876e-06  
   13     1.909e-06  
   14     5.263e-07  Converged.
   ... Converged in 14 steps (norm: 5.26321e-07)
------------------------------------
  Starting TPA DIIS iterations ... 
------------------------------------ 
   It     Res. Norm  Remark
------------------------------------
                       Guess.
    1     6.055e+00  
    2     8.926e+00  
    3     1.539e+00  
    4     4.362e-01  
    5     1.181e-01  
    6     5.001e-02  
    7     1.520e-02  
    8     2.640e-03  
    9     1.019e-03  
   10     1.749e-04  
   11     5.964e-05  
   12     9.628e-06  
   13     4.216e-06  
   14     1.219e-06  
   15     7.894e-07  Converged.
   ... Converged in 15 steps (norm: 7.89419e-07)
------------------------------------
  Starting TPA DIIS iterations ... 
------------------------------------ 
   It     Res. Norm  Remark
------------------------------------
                       Guess.
    1     5.750e+00  
    2     8.472e+00  
    3     1.471e+00  
    4     4.331e-01  
    5     1.175e-01  
    6     5.025e-02  
    7     1.500e-02  
    8     2.684e-03  
    9     1.028e-03  
   10     1.762e-04  
   11     6.015e-05  
   12     1.004e-05  
   13     3.743e-06  
   14     1.137e-06  
   15     4.312e-07  Converged.
   ... Converged in 15 steps (norm: 4.31239e-07)
------------------------------------
  Starting TPA DIIS iterations ... 
------------------------------------ 
   It     Res. Norm  Remark
------------------------------------
                       Guess.
    1     7.501e-01  
    2     5.798e-01  
    3     2.272e-01  
    4     1.421e-01  
    5     2.622e-02  
    6     1.037e-02  
    7     1.939e-03  
    8     9.722e-04  
    9     2.893e-04  
   10     4.267e-05  
   11     8.755e-06  
   12     3.534e-06  
   13     2.461e-06  
   14     6.730e-07  Converged.
   ... Converged in 14 steps (norm: 6.72957e-07)
------------------------------------
  Starting TPA DIIS iterations ... 
------------------------------------ 
   It     Res. Norm  Remark
------------------------------------
                       Guess.
    1     6.554e+00  
    2     9.914e+00  
    3     1.677e+00  
    4     4.974e-01  
    5     1.359e-01  
    6     5.809e-02  
    7     1.757e-02  
    8     3.047e-03  
    9     1.187e-03  
   10     2.043e-04  
   11     7.090e-05  
   12     1.149e-05  
   13     5.295e-06  
   14     1.572e-06  
   15     1.040e-06  
   16     4.011e-07  Converged.
   ... Converged in 16 steps (norm: 4.01057e-07)
------------------------------------
  Starting TPA DIIS iterations ... 
------------------------------------ 
   It     Res. Norm  Remark
------------------------------------
                       Guess.
    1     6.224e+00  
    2     9.410e+00  
    3     1.602e+00  
    4     4.933e-01  
    5     1.353e-01  
    6     5.842e-02  
    7     1.735e-02  
    8     3.099e-03  
    9     1.198e-03  
   10     2.059e-04  
   11     7.149e-05  
   12     1.208e-05  
   13     4.616e-06  
   14     1.395e-06  
   15     5.409e-07  Converged.
   ... Converged in 15 steps (norm: 5.40942e-07)
------------------------------------
  Starting TPA DIIS iterations ... 
------------------------------------ 
   It     Res. Norm  Remark
------------------------------------
                       Guess.
    1     7.650e-01  
    2     6.053e-01  
    3     2.431e-01  
    4     1.638e-01  
    5     2.881e-02  
    6     1.173e-02  
    7     2.273e-03  
    8     1.136e-03  
    9     3.407e-04  
   10     4.315e-05  
   11     1.006e-05  
   12     4.212e-06  
   13     3.053e-06  
   14     8.368e-07  Converged.
   ... Converged in 14 steps (norm: 8.36777e-07)
------------------------------------
  Starting TPA DIIS iterations ... 
------------------------------------ 
   It     Res. Norm  Remark
------------------------------------
                       Guess.
    1     8.658e+00  
    2     1.432e+01  
    3     2.249e+00  
    4     7.820e-01  
    5     2.190e-01  
    6     9.653e-02  
    7     2.862e-02  
    8     4.937e-03  
    9     1.987e-03  
   10     3.432e-04  
   11     1.257e-04  
   12     2.049e-05  
   13     1.154e-05  
   14     4.121e-06  
   15     2.577e-06  
   16     1.122e-06  
   17     5.472e-07  Converged.
   ... Converged in 17 steps (norm: 5.47197e-07)
------------------------------------
  Starting TPA DIIS iterations ... 
------------------------------------ 
   It     Res. Norm  Remark
------------------------------------
                       Guess.
    1     8.218e+00  
    2     1.359e+01  
    3     2.147e+00  
    4     7.728e-01  
    5     2.182e-01  
    6     9.738e-02  
    7     2.830e-02  
    8     5.032e-03  
    9     2.007e-03  
   10     3.471e-04  
   11     1.267e-04  
   12     2.237e-05  
   13     9.270e-06  
   14     2.798e-06  
   15     1.152e-06  
   16     3.777e-07  Converged.
   ... Converged in 16 steps (norm: 3.77698e-07)
------------------------------------
  Starting TPA DIIS iterations ... 
------------------------------------ 
   It     Res. Norm  Remark
------------------------------------
                       Guess.
    1     8.165e-01  
    2     7.027e-01  
    3     3.065e-01  
    4     2.569e-01  
    5     4.042e-02  
    6     1.801e-02  
    7     3.939e-03  
    8     1.657e-03  
    9     5.384e-04  
   10     5.198e-05  
   11     1.657e-05  
   12     7.156e-06  
   13     5.688e-06  
   14     1.781e-06  
   15     5.492e-07  Converged.
   ... Converged in 15 steps (norm: 5.4922e-07)
------------------------------------
  Starting TPA DIIS iterations ... 
------------------------------------ 
   It     Res. Norm  Remark
------------------------------------
                       Guess.
    1     1.048e+01  
    2     1.842e+01  
    3     2.733e+00  
    4     1.057e+00  
    5     2.999e-01  
    6     1.348e-01  
    7     3.938e-02  
    8     6.774e-03  
    9     2.785e-03  
   10     4.794e-04  
   11     1.803e-04  
   12     2.948e-05  
   13     1.918e-05  
   14     7.958e-06  
   15     4.630e-06  
   16     2.088e-06  
   17     8.739e-07  Converged.
   ... Converged in 17 steps (norm: 8.7385e-07)
------------------------------------
  Starting TPA DIIS iterations ... 
------------------------------------ 
   It     Res. Norm  Remark
------------------------------------
                       Guess.
    1     9.948e+00  
    2     1.748e+01  
    3     2.607e+00  
    4     1.042e+00  
    5     2.989e-01  
    6     1.363e-01  
    7     3.895e-02  
    8     6.915e-03  
    9     2.817e-03  
   10     4.864e-04  
   11     1.819e-04  
   12     3.328e-05  
   13     1.431e-05  
   14     4.448e-06  
   15     1.955e-06  
   16     6.426e-07  Converged.
   ... Converged in 16 steps (norm: 6.4257e-07)
------------------------------------
  Starting TPA DIIS iterations ... 
------------------------------------ 
   It     Res. Norm  Remark
------------------------------------
                       Guess.
    1     8.515e-01  
    2     7.778e-01  
    3     3.575e-01  
    4     3.319e-01  
    5     5.119e-02  
    6     2.374e-02  
    7     5.625e-03  
    8     1.873e-03  
    9     6.905e-04  
   10     7.059e-05  
   11     2.349e-05  
   12     9.593e-06  
   13     7.052e-06  
   14     2.976e-06  
   15     8.028e-07  Converged.
   ... Converged in 15 steps (norm: 8.02838e-07)
------------------------------------
  Starting TPA DIIS iterations ... 
------------------------------------ 
   It     Res. Norm  Remark
------------------------------------
                       Guess.
    1     1.142e+01  
    2     2.062e+01  
    3     2.977e+00  
    4     1.205e+00  
    5     3.442e-01  
    6     1.561e-01  
    7     4.527e-02  
    8     7.780e-03  
    9     3.228e-03  
   10     5.539e-04  
   11     2.105e-04  
   12     3.453e-05  
   13     2.387e-05  
   14     1.050e-05  
   15     6.005e-06  
   16     2.744e-06  
   17     1.068e-06  
   18     4.956e-07  Converged.
   ... Converged in 18 steps (norm: 4.95606e-07)
------------------------------------
  Starting TPA DIIS iterations ... 
------------------------------------ 
   It     Res. Norm  Remark
------------------------------------
                       Guess.
    1     1.084e+01  
    2     1.956e+01  
    3     2.840e+00  
    4     1.187e+00  
    5     3.430e-01  
    6     1.579e-01  
    7     4.479e-02  
    8     7.948e-03  
    9     3.269e-03  
   10     5.631e-04  
   11     2.125e-04  
   12     3.957e-05  
   13     1.717e-05  
   14     5.472e-06  
   15     2.515e-06  
   16     8.163e-07  Converged.
   ... Converged in 16 steps (norm: 8.16298e-07)
------------------------------------
  Starting TPA DIIS iterations ... 
------------------------------------ 
   It     Res. Norm  Remark
------------------------------------
                       Guess.
    1     8.672e-01  
    2     8.140e-01  
    3     3.826e-01  
    4     3.663e-01  
    5     5.692e-02  
    6     2.664e-02  
    7     6.543e-03  
    8     1.932e-03  
    9     7.645e-04  
   10     8.203e-05  
   11     2.748e-05  
   12     1.082e-05  
   13     7.139e-06  
   14     3.658e-06  
   15     9.309e-07  Converged.
   ... Converged in 15 steps (norm: 9.30887e-07)
------------------------------------
  Starting TPA DIIS iterations ... 
------------------------------------ 
   It     Res. Norm  Remark
------------------------------------
                       Guess.
    1     1.239e+01  
    2     2.295e+01  
    3     3.226e+00  
    4     1.363e+00  
    5     3.916e-01  
    6     1.790e-01  
    7     5.157e-02  
    8     8.859e-03  
    9     3.706e-03  
   10     6.337e-04  
   11     2.432e-04  
   12     4.007e-05  
   13     2.921e-05  
   14     1.348e-05  
   15     7.686e-06  
   16     3.561e-06  
   17     1.300e-06  
   18     5.789e-07  Converged.
   ... Converged in 18 steps (norm: 5.78889e-07)
------------------------------------
  Starting TPA DIIS iterations ... 
------------------------------------ 
   It     Res. Norm  Remark
------------------------------------
                       Guess.
    1     1.176e+01  
    2     2.178e+01  
    3     3.076e+00  
    4     1.341e+00  
    5     3.903e-01  
    6     1.812e-01  
    7     5.103e-02  
    8     9.057e-03  
    9     3.758e-03  
   10     6.455e-04  
   11     2.456e-04  
   12     4.654e-05  
   13     2.030e-05  
   14     6.674e-06  
   15     3.218e-06  
   16     1.028e-06  
   17     4.875e-07  Converged.
   ... Converged in 17 steps (norm: 4.87545e-07)
------------------------------------
  Starting TPA DIIS iterations ... 
------------------------------------ 
   It     Res. Norm  Remark
------------------------------------
                       Guess.
    1     8.821e-01  
    2     8.501e-01  
    3     4.077e-01  
    4     3.984e-01  
    5     6.294e-02  
    6     2.954e-02  
    7     7.513e-03  
    8     1.976e-03  
    9     8.386e-04  
   10     9.444e-05  
   11     3.189e-05  
   12     1.211e-05  
   13     6.990e-06  
   14     4.216e-06  
   15     1.033e-06  
   16     9.642e-07  Converged.
   ... Converged in 16 steps (norm: 9.64203e-07)
------------------------------------
  Two-photon absorbption ...  CPU 77.46 s  wall 18.63 s
  Transition density matrix of state singlet_A_1 printed to ASCII file 'State_singlet_A_1_Transition.txt'
  Transition density matrix of state singlet_A_2 printed to ASCII file 'State_singlet_A_2_Transition.txt'
  Transition density matrix of state singlet_A_3 printed to ASCII file 'State_singlet_A_3_Transition.txt'
  Transition density matrix of state singlet_A_4 printed to ASCII file 'State_singlet_A_4_Transition.txt'
  Transition density matrix of state singlet_A_5 printed to ASCII file 'State_singlet_A_5_Transition.txt'
  Transition density matrix of state singlet_A_6 printed to ASCII file 'State_singlet_A_6_Transition.txt'
  Transition density matrix of state singlet_A_7 printed to ASCII file 'State_singlet_A_7_Transition.txt'
  Transition density matrix of state singlet_A_8 printed to ASCII file 'State_singlet_A_8_Transition.txt'
  Transition density matrix of state singlet_A_9 printed to ASCII file 'State_singlet_A_9_Transition.txt'
  Transition density matrix of state singlet_A_10 printed to ASCII file 'State_singlet_A_10_Transition.txt'
  Transition properties ...  CPU 0.16 s  wall 0.39 s
  Difference density matrix of state singlet_A_1 printed to ASCII file 'State_singlet_A_1_Difference.txt'
  Total density matrix of state singlet_A_1 printed to ASCII file 'State_singlet_A_1_Total.txt'
  Difference density matrix of state singlet_A_2 printed to ASCII file 'State_singlet_A_2_Difference.txt'
  Total density matrix of state singlet_A_2 printed to ASCII file 'State_singlet_A_2_Total.txt'
  Difference density matrix of state singlet_A_3 printed to ASCII file 'State_singlet_A_3_Difference.txt'
  Total density matrix of state singlet_A_3 printed to ASCII file 'State_singlet_A_3_Total.txt'
  Difference density matrix of state singlet_A_4 printed to ASCII file 'State_singlet_A_4_Difference.txt'
  Total density matrix of state singlet_A_4 printed to ASCII file 'State_singlet_A_4_Total.txt'
  Difference density matrix of state singlet_A_5 printed to ASCII file 'State_singlet_A_5_Difference.txt'
  Total density matrix of state singlet_A_5 printed to ASCII file 'State_singlet_A_5_Total.txt'
  Difference density matrix of state singlet_A_6 printed to ASCII file 'State_singlet_A_6_Difference.txt'
  Total density matrix of state singlet_A_6 printed to ASCII file 'State_singlet_A_6_Total.txt'
  Difference density matrix of state singlet_A_7 printed to ASCII file 'State_singlet_A_7_Difference.txt'
  Total density matrix of state singlet_A_7 printed to ASCII file 'State_singlet_A_7_Total.txt'
  Difference density matrix of state singlet_A_8 printed to ASCII file 'State_singlet_A_8_Difference.txt'
  Total density matrix of state singlet_A_8 printed to ASCII file 'State_singlet_A_8_Total.txt'
  Difference density matrix of state singlet_A_9 printed to ASCII file 'State_singlet_A_9_Difference.txt'
  Total density matrix of state singlet_A_9 printed to ASCII file 'State_singlet_A_9_Total.txt'
  Difference density matrix of state singlet_A_10 printed to ASCII file 'State_singlet_A_10_Difference.txt'
  Total density matrix of state singlet_A_10 printed to ASCII file 'State_singlet_A_10_Total.txt'
  Properties ...  CPU 0.30 s  wall 0.60 s
  ISR TDMS ...  CPU 8.89 s  wall 3.17 s
  ISR transition properties ...  CPU 0.17 s  wall 0.08 s
  Sum-over-states TPA ...  CPU 0.00 s  wall 0.00 s

--------------------------------------------------------------------------------
                   State-averaged natural transition orbitals
--------------------------------------------------------------------------------
--------------------------------------------------------------------------------
  SA-NTO decomposition ...  CPU 0.01 s  wall 0.02 s

--------------------------------------------------------------------------------
                             Excited State Summary
--------------------------------------------------------------------------------
--------------------------------------------------------------------------------

  Excited state 1 (singlet, A)                                     [converged]
  ----------------------------------------------------------------------------
  Term symbol:  2 (1) A                                     R^2 =  8.19889e-14

  Total energy:                                            -77.9985379687 a.u.
  Excitation energy:                                               8.736826 eV

  Osc. strength:                                                      0.445487
  Trans. dip. moment [a.u.]:           [   1.044976,   -0.994615,    0.003520]
  <i|r^2|0> [a.u.]:                    [   6.160983,   -0.246047,   -0.000277]
  Two-photon absorption cross-section (SoS) [a.u.]:                   0.000916
  Two-photon absorption matrix (SoS) [a.u.]:
                                       |    0.005695   -0.001262   -0.004595 |
                                       |   -0.001262    0.002242    0.002878 |
                                       |   -0.004595    0.002878    0.005858 |
  Two-photon absorption cross-section [a.u.]:                         0.001636
  Two-photon absorption matrix [a.u.]:
                                       |    0.001707   -0.002422   -0.008345 |
                                       |   -0.002422   -0.005099    0.010189 |
                                       |   -0.008345    0.010189    0.004549 |

  Dip. moment [a.u.]:                  [  -0.000616,   -0.000467,    0.007199]
  Total dipole [Debye]:                                               0.018402
  <r^2> [a.u.]:                        [ 176.120475,   35.653059,   11.866915]
  Total <r^2> [a.u.]:                                               223.640449

  V1^2 = 0.9715, V2^2 = 0.0285

  Important amplitudes:
      occ i     occ j     vir a      vir b          v   
    -----------------------------------------------------
     8 (A) A              9 (A) A                -0.6811
     6 (A) A             14 (A) A                -0.0623
     4 (A) A             10 (A) A                -0.0606
     7 (A) A             16 (A) A                 0.0569
     5 (A) A             13 (A) A                -0.0513
     6 (A) A             23 (A) A                -0.0486
     8 (A) A             20 (A) A                 0.0349
     6 (A) A             19 (A) A                -0.0308
     3 (A) A             12 (A) A                 0.0281
     5 (A) A             22 (A) A                -0.0215
     7 (A) A             11 (A) A                 0.0209
     4 (A) A             24 (A) A                -0.0187
     3 (A) A             26 (A) A                -0.0185
     8 (A) A   8 (A) B   17 (A) A   20 (A) B     -0.0184
     8 (A) A   8 (A) B    9 (A) A   28 (A) B      0.0168
     6 (A) A             26 (A) A                -0.0163
     7 (A) A             21 (A) A                 0.0148
     3 (A) A             14 (A) A                -0.0139
     6 (A) A             12 (A) A                -0.0132
     3 (A) A   4 (A) B    9 (A) A    9 (A) B      0.0129
     3 (A) A             19 (A) A                -0.0119
     8 (A) A   8 (A) B   18 (A) A   19 (A) B      0.0113
     7 (A) A             32 (A) A                 0.0096
     7 (A) A             36 (A) A                 0.0086
     3 (A) A             23 (A) A                -0.0080
     8 (A) A   8 (A) B   25 (A) A   29 (A) B      0.0075
     6 (A) A             35 (A) A                -0.0072
     6 (A) A             40 (A) A                -0.0068
     3 (A) A   6 (A) B    9 (A) A   28 (A) B      0.0065
     6 (A) A   8 (A) A   19 (A) A   28 (A) A     -0.0061
     5 (A) A   7 (A) B    9 (A) A    9 (A) B     -0.0060
     5 (A) A   8 (A) B   11 (A) A   20 (A) B     -0.0059
     7 (A) A   8 (A) B   13 (A) A   20 (A) B      0.0059
     5 (A) A   8 (A) B   16 (A) A    9 (A) B      0.0059
     5 (A) A   8 (A) B   11 (A) A    9 (A) B     -0.0059
     3 (A) A   5 (A) B    9 (A) A   25 (A) B      0.0058
     7 (A) A   8 (A) B   22 (A) A   20 (A) B      0.0057
     3 (A) A             40 (A) A                -0.0057
     6 (A) A   8 (A) A    9 (A) A   18 (A) A      0.0057
     8 (A) A   8 (A) B   19 (A) A   30 (A) B      0.0056
    -----------------------------------------------------

  Density matrix analysis:
  ------------------------
  NOs
    Occupation of frontier NOs:
       0.9495   1.0217
    Number of electrons: 16.000000
    Number of unpaired electrons: n_u =  2.31341, n_u,nl =  2.03264
    NO participation ratio (PR_NO):  2.863840
  
  
  Mulliken Population Analysis
  Atom      Charge (e)              h+              e-           Del q
  --------------------------------------------------------------------
   1 H        0.058736        0.020298       -0.012552        0.007746
   2 C       -0.115843        0.490887       -0.506027       -0.015140
   3 H        0.058083        0.020188       -0.012623        0.007565
   4 C       -0.116964        0.490741       -0.506167       -0.015426
   5 H        0.057800        0.020214       -0.012670        0.007544
   6 H        0.058188        0.020346       -0.012633        0.007713
  --------------------------------------------------------------------
  Sum:        0.000000        1.062674       -1.062674        0.000000
  
  Multipole moment analysis of the density matrix
    Molecular charge:                      0.000000
    Number of electrons:                   16.000000
      Center of electronic charge [Ang]: [ -1.560556,  -0.065587,  -0.002010]
    Total nuclear charge:                  16.000000
      Center of nuclear charge [Ang]:    [ -1.560576,  -0.065602,  -0.001772]
    Dipole moment [D]:                     0.018402
      Cartesian components [D]:          [ -0.001566,  -0.001186,   0.018297]
    RMS size of the density [Ang]:         1.214276
      Cartesian components [Ang]:        [  0.804418,   0.787204,   0.455728]
  
  Exciton analysis of the difference density matrix
    <r_h> [Ang]:                  [ -1.560168,  -0.065637,  -0.004923]
    <r_e> [Ang]:                  [ -1.560334,  -0.065376,  -0.005599]
    |<r_e - r_h>| [Ang]:            0.000743
    Hole size [Ang]:                1.285492
      Cartesian components [Ang]: [  0.728495,   0.712746,   0.783440]
    Electron size [Ang]:            1.463422
      Cartesian components [Ang]: [  0.854306,   0.830681,   0.849549]

  Transition density matrix analysis:
  -----------------------------------
  
  CT numbers (Mulliken)
    omega =     0.9535
    <Phe> =    -0.1607
  
  Exciton analysis of the transition density matrix
    Trans. dipole moment [D]:             1.833428
      Cartesian components [D]:         [  1.328031,  -1.264029,   0.004474]
    <r_h> [Ang]:                        [ -1.560030,  -0.065822,  -0.004373]
    <r_e> [Ang]:                        [ -1.560329,  -0.065326,  -0.006062]
    |<r_e - r_h>| [Ang]:                  0.001785
    Hole size [Ang]:                      1.214154
      Cartesian components [Ang]:       [  0.649614,   0.636452,   0.804426]
    Electron size [Ang]:                  1.486309
      Cartesian components [Ang]:       [  0.864747,   0.839625,   0.869687]
    RMS electron-hole separation [Ang]:   1.936920
      Cartesian components [Ang]:       [  1.106947,   1.075375,   1.170425]
    Covariance(r_h, r_e) [Ang^2]:        -0.034185
    Correlation coefficient:             -0.018943
    Center-of-mass size [Ang]:            0.950646
      Cartesian components [Ang]:       [  0.527787,   0.515668,   0.599379]

  Decomposition into state-averaged NTOs
    H- 0 -> L+ 0: -0.6698 ( 89.7%)
    H- 2 -> L+ 5: -0.0836 (  1.4%)
                   omega =  95.4%
  ----------------------------------------------------------------------------


  Excited state 2 (singlet, A)                                     [converged]
  ----------------------------------------------------------------------------
  Term symbol:  3 (1) A                                     R^2 =  6.66701e-14

  Total energy:                                            -77.9869155163 a.u.
  Excitation energy:                                               9.053089 eV

  Osc. strength:                                                      0.000012
  Trans. dip. moment [a.u.]:           [   0.001455,   -0.007108,    0.000125]
  <i|r^2|0> [a.u.]:                    [  -0.077376,   -0.066225,    0.150354]
  Two-photon absorption cross-section (SoS) [a.u.]:                   4.875681
  Two-photon absorption matrix (SoS) [a.u.]:
                                       |   -0.087686   -0.060154    0.535361 |
                                       |   -0.060154   -0.030174    0.555042 |
                                       |    0.535361    0.555042    0.117124 |
  Two-photon absorption cross-section [a.u.]:                         0.150203
  Two-photon absorption matrix [a.u.]:
                                       |   -0.087878    0.002945   -0.060859 |
                                       |    0.002945    0.103591   -0.075651 |
                                       |   -0.060859   -0.075651   -0.015018 |

  Dip. moment [a.u.]:                  [  -0.007297,    0.006577,    0.013481]
  Total dipole [Debye]:                                               0.042397
  <r^2> [a.u.]:                        [ 174.507990,   33.960750,   13.173027]
  Total <r^2> [a.u.]:                                               221.641767

  V1^2 = 0.9542, V2^2 = 0.0458

  Important amplitudes:
      occ i     occ j     vir a      vir b          v   
    -----------------------------------------------------
     7 (A) A              9 (A) A                -0.6693
     8 (A) A             11 (A) A                 0.1479
     7 (A) A             20 (A) A                 0.0759
     5 (A) A   8 (A) B    9 (A) A    9 (A) B     -0.0316
     8 (A) A             16 (A) A                -0.0273
     8 (A) A             21 (A) A                 0.0175
     5 (A) A             28 (A) A                -0.0151
     4 (A) A   7 (A) B    9 (A) A   19 (A) B      0.0135
     5 (A) A   7 (A) B    9 (A) A   16 (A) B     -0.0134
     7 (A) A   8 (A) B   20 (A) A   17 (A) B     -0.0105
     7 (A) A   8 (A) A    9 (A) A   28 (A) A     -0.0098
     5 (A) A   8 (A) B    9 (A) A   20 (A) B      0.0096
     4 (A) A   6 (A) B    9 (A) A   16 (A) B     -0.0091
     5 (A) A   6 (A) A    9 (A) A   23 (A) A      0.0091
     5 (A) A   6 (A) A    9 (A) A   14 (A) A      0.0089
     5 (A) A   6 (A) B    9 (A) A   19 (A) B      0.0087
     8 (A) A   7 (A) B    9 (A) A   28 (A) B      0.0085
     4 (A) A   5 (A) A    9 (A) A   10 (A) A     -0.0085
     6 (A) A   7 (A) B    9 (A) A   18 (A) B      0.0083
     5 (A) A   6 (A) B    9 (A) A   23 (A) B      0.0080
     3 (A) A   7 (A) B    9 (A) A   18 (A) B     -0.0080
     5 (A) A   7 (A) A    9 (A) A   16 (A) A     -0.0079
     4 (A) A   8 (A) B    9 (A) A   25 (A) B     -0.0076
     7 (A) A   8 (A) B   17 (A) A   20 (A) B     -0.0074
     4 (A) A   7 (A) B   19 (A) A    9 (A) B      0.0074
     5 (A) A   5 (A) B    9 (A) A   13 (A) B      0.0072
     7 (A) A   8 (A) B   19 (A) A   18 (A) B      0.0072
     5 (A) A   8 (A) A    9 (A) A   20 (A) A      0.0069
     4 (A) A   5 (A) B    9 (A) A   18 (A) B      0.0068
     7 (A) A   7 (A) B   20 (A) A   22 (A) B      0.0065
     7 (A) A   8 (A) B   17 (A) A    9 (A) B      0.0065
     5 (A) A   6 (A) B    9 (A) A   14 (A) B      0.0063
     4 (A) A   7 (A) A    9 (A) A   19 (A) A      0.0061
     4 (A) A   5 (A) B   10 (A) A    9 (A) B      0.0061
     5 (A) A             38 (A) A                -0.0060
     5 (A) A   7 (A) B   11 (A) A   20 (A) B     -0.0060
     4 (A) A   7 (A) B    9 (A) A   14 (A) B     -0.0060
     6 (A) A   7 (A) A   19 (A) A   28 (A) A     -0.0057
     4 (A) A   8 (A) A    9 (A) A   25 (A) A     -0.0057
     8 (A) A             12 (A) A                 0.0053
    -----------------------------------------------------

  Density matrix analysis:
  ------------------------
  NOs
    Occupation of frontier NOs:
       0.9582   1.0535
    Number of electrons: 16.000000
    Number of unpaired electrons: n_u =  2.35532, n_u,nl =  2.06260
    NO participation ratio (PR_NO):  3.025973
  
  
  Mulliken Population Analysis
  Atom      Charge (e)              h+              e-           Del q
  --------------------------------------------------------------------
   1 H        0.148031        0.121141       -0.024100        0.097041
   2 C       -0.302081        0.270799       -0.472178       -0.201379
   3 H        0.153129        0.127428       -0.024818        0.102610
   4 C       -0.302676        0.273246       -0.474385       -0.201139
   5 H        0.154776        0.128844       -0.024324        0.104520
   6 H        0.148822        0.122679       -0.024332        0.098347
  --------------------------------------------------------------------
  Sum:        0.000000        1.044137       -1.044137        0.000000
  
  Multipole moment analysis of the density matrix
    Molecular charge:                      0.000000
    Number of electrons:                   16.000000
      Center of electronic charge [Ang]: [ -1.560335,  -0.065820,  -0.002218]
    Total nuclear charge:                  16.000000
      Center of nuclear charge [Ang]:    [ -1.560576,  -0.065602,  -0.001772]
    Dipole moment [D]:                     0.042397
      Cartesian components [D]:          [ -0.018547,   0.016716,   0.034264]
    RMS size of the density [Ang]:         1.200060
      Cartesian components [Ang]:        [  0.787119,   0.768142,   0.480153]
  
  Exciton analysis of the difference density matrix
    <r_h> [Ang]:                  [ -1.564654,  -0.062035,  -0.001068]
    <r_e> [Ang]:                  [ -1.561438,  -0.065339,  -0.004939]
    |<r_e - r_h>| [Ang]:            0.006021
    Hole size [Ang]:                1.486313
      Cartesian components [Ang]: [  0.997418,   1.003958,   0.454261]
    Electron size [Ang]:            1.476823
      Cartesian components [Ang]: [  0.880705,   0.859574,   0.816393]

  Transition density matrix analysis:
  -----------------------------------
  
  CT numbers (Mulliken)
    omega =     0.9218
    <Phe> =    -0.0122
  
  Exciton analysis of the transition density matrix
    Trans. dipole moment [D]:             0.009222
      Cartesian components [D]:         [  0.001850,  -0.009034,   0.000159]
    <r_h> [Ang]:                        [ -1.565397,  -0.061455,  -0.000229]
    <r_e> [Ang]:                        [ -1.560850,  -0.065809,  -0.005830]
    |<r_e - r_h>| [Ang]:                  0.008426
    Hole size [Ang]:                      1.515029
      Cartesian components [Ang]:       [  1.019881,   1.028661,   0.443861]
    Electron size [Ang]:                  1.473878
      Cartesian components [Ang]:       [  0.871293,   0.848854,   0.832234]
    RMS electron-hole separation [Ang]:   2.093864
      Cartesian components [Ang]:       [  1.325511,   1.318723,   0.942474]
    Covariance(r_h, r_e) [Ang^2]:         0.041716
    Correlation coefficient:              0.018682
    Center-of-mass size [Ang]:            1.066661
      Cartesian components [Ang]:       [  0.678538,   0.674237,   0.471971]

  Decomposition into state-averaged NTOs
    H- 1 -> L+ 0: -0.6617 ( 87.6%)
    H- 0 -> L+ 2: -0.1479 (  4.4%)
                   omega =  92.2%
  ----------------------------------------------------------------------------


  Excited state 3 (singlet, A)                                     [converged]
  ----------------------------------------------------------------------------
  Term symbol:  4 (1) A                                     R^2 =  4.06232e-14

  Total energy:                                            -77.9825791470 a.u.
  Excitation energy:                                               9.171088 eV

  Osc. strength:                                                      0.025331
  Trans. dip. moment [a.u.]:           [  -0.000959,   -0.033958,    0.334042]
  <i|r^2|0> [a.u.]:                    [  -0.003102,   -0.001896,   -0.000161]
  Two-photon absorption cross-section (SoS) [a.u.]:                   0.023282
  Two-photon absorption matrix (SoS) [a.u.]:
                                       |   -0.019630   -0.001794    0.011057 |
                                       |   -0.001794    0.005871    0.007271 |
                                       |    0.011057    0.007271   -0.053038 |
  Two-photon absorption cross-section [a.u.]:                         0.025777
  Two-photon absorption matrix [a.u.]:
                                       |   -0.035657    0.006864    0.011674 |
                                       |    0.006864   -0.015437    0.001716 |
                                       |    0.011674    0.001716   -0.032578 |

  Dip. moment [a.u.]:                  [  -0.001972,    0.008354,   -0.007539]
  Total dipole [Debye]:                                               0.029037
  <r^2> [a.u.]:                        [ 180.845225,   40.612373,   11.027775]
  Total <r^2> [a.u.]:                                               232.485373

  V1^2 = 0.9587, V2^2 = 0.0413

  Important amplitudes:
      occ i     occ j     vir a      vir b          v   
    -----------------------------------------------------
     8 (A) A             10 (A) A                -0.6891
     8 (A) A             24 (A) A                -0.0507
     8 (A) A             18 (A) A                 0.0312
     4 (A) A              9 (A) A                -0.0237
     8 (A) A   8 (A) B    9 (A) A   12 (A) B      0.0219
     8 (A) A   8 (A) B   10 (A) A   17 (A) B     -0.0173
     8 (A) A             15 (A) A                -0.0169
     5 (A) A   8 (A) B   11 (A) A   10 (A) B     -0.0165
     7 (A) A   8 (A) B   13 (A) A   10 (A) B      0.0141
     4 (A) A   8 (A) B   12 (A) A   10 (A) B      0.0111
     6 (A) A   8 (A) A   10 (A) A   15 (A) A      0.0110
     7 (A) A   8 (A) B   22 (A) A   10 (A) B      0.0108
     6 (A) A   8 (A) B   15 (A) A   10 (A) B     -0.0108
     4 (A) A   8 (A) A   10 (A) A   12 (A) A     -0.0106
     7 (A) A   8 (A) A   10 (A) A   22 (A) A     -0.0099
     7 (A) A   8 (A) A   10 (A) A   13 (A) A     -0.0097
     5 (A) A   8 (A) B   21 (A) A   10 (A) B     -0.0094
     5 (A) A   8 (A) A   10 (A) A   11 (A) A      0.0094
     6 (A) A   8 (A) A   10 (A) A   18 (A) A      0.0088
     6 (A) A   8 (A) B   10 (A) A   10 (A) B      0.0087
     7 (A) A   8 (A) A   12 (A) A   16 (A) A     -0.0082
     5 (A) A   8 (A) A   10 (A) A   21 (A) A      0.0080
     3 (A) A   4 (A) B   10 (A) A    9 (A) B      0.0079
     4 (A) A   8 (A) B   19 (A) A   10 (A) B     -0.0075
     8 (A) A   8 (A) B    9 (A) A   23 (A) B      0.0075
     8 (A) A   8 (A) B   10 (A) A   28 (A) B      0.0073
     3 (A) A   8 (A) B   10 (A) A   10 (A) B     -0.0072
     5 (A) A   8 (A) B   10 (A) A   11 (A) B     -0.0071
     3 (A) A   8 (A) A   10 (A) A   24 (A) A      0.0071
     7 (A) A   8 (A) B   16 (A) A   12 (A) B      0.0070
     3 (A) A   8 (A) B   10 (A) A   18 (A) B      0.0069
     8 (A) A   8 (A) B    9 (A) A   19 (A) B     -0.0068
     6 (A) A   8 (A) B   18 (A) A   10 (A) B     -0.0067
     3 (A) A   6 (A) B   10 (A) A   28 (A) B      0.0062
     7 (A) A   8 (A) B   12 (A) A   11 (A) B     -0.0058
     6 (A) A             28 (A) A                -0.0057
     3 (A) A   5 (A) B   10 (A) A   25 (A) B      0.0056
     5 (A) A   8 (A) A   10 (A) A   16 (A) A     -0.0056
     3 (A) A   8 (A) A   10 (A) A   18 (A) A      0.0056
     4 (A) A   8 (A) A   10 (A) A   23 (A) A     -0.0055
    -----------------------------------------------------

  Density matrix analysis:
  ------------------------
  NOs
    Occupation of frontier NOs:
       0.9814   0.9850
    Number of electrons: 16.000000
    Number of unpaired electrons: n_u =  2.28523, n_u,nl =  2.02440
    NO participation ratio (PR_NO):  2.691832
  
  
  Mulliken Population Analysis
  Atom      Charge (e)              h+              e-           Del q
  --------------------------------------------------------------------
   1 H       -0.163086        0.053819       -0.267895       -0.214076
   2 C        0.327706        0.538895       -0.110486        0.428409
   3 H       -0.165567        0.053790       -0.269875       -0.216085
   4 C        0.326595        0.537607       -0.109474        0.428133
   5 H       -0.162967        0.053944       -0.267167       -0.213223
   6 H       -0.162681        0.053907       -0.267063       -0.213156
  --------------------------------------------------------------------
  Sum:        0.000000        1.291961       -1.291961       -0.000000
  
  Multipole moment analysis of the density matrix
    Molecular charge:                      0.000000
    Number of electrons:                   16.000000
      Center of electronic charge [Ang]: [ -1.560511,  -0.065879,  -0.001522]
    Total nuclear charge:                  16.000000
      Center of nuclear charge [Ang]:    [ -1.560576,  -0.065602,  -0.001772]
    Dipole moment [D]:                     0.029037
      Cartesian components [D]:          [ -0.005012,   0.021233,  -0.019163]
    RMS size of the density [Ang]:         1.276468
      Cartesian components [Ang]:        [  0.854353,   0.840505,   0.439322]
  
  Exciton analysis of the difference density matrix
    <r_h> [Ang]:                  [ -1.560064,  -0.065959,  -0.003594]
    <r_e> [Ang]:                  [ -1.559645,  -0.069356,   0.001887]
    |<r_e - r_h>| [Ang]:            0.006462
    Hole size [Ang]:                1.410228
      Cartesian components [Ang]: [  0.833883,   0.819888,   0.788142]
    Electron size [Ang]:            2.075915
      Cartesian components [Ang]: [  1.372939,   1.377085,   0.726704]

  Transition density matrix analysis:
  -----------------------------------
  
  CT numbers (Mulliken)
    omega =     0.9259
    <Phe> =    -0.0109
  
  Exciton analysis of the transition density matrix
    Trans. dipole moment [D]:             0.426715
      Cartesian components [D]:         [ -0.001219,  -0.043157,   0.424525]
    <r_h> [Ang]:                        [ -1.559881,  -0.065732,  -0.005179]
    <r_e> [Ang]:                        [ -1.559270,  -0.070708,   0.003325]
    |<r_e - r_h>| [Ang]:                  0.009872
    Hole size [Ang]:                      1.212932
      Cartesian components [Ang]:       [  0.636306,   0.623683,   0.823007]
    Electron size [Ang]:                  2.296309
      Cartesian components [Ang]:       [  1.517494,   1.524714,   0.803426]
    RMS electron-hole separation [Ang]:   2.587087
      Cartesian components [Ang]:       [  1.638019,   1.640363,   1.148533]
    Covariance(r_h, r_e) [Ang^2]:         0.025658
    Correlation coefficient:              0.009212
    Center-of-mass size [Ang]:            1.303414
      Cartesian components [Ang]:       [  0.826475,   0.827149,   0.575893]

  Decomposition into state-averaged NTOs
    H- 0 -> L+ 1: -0.6797 ( 92.4%)
                   omega =  92.6%
  ----------------------------------------------------------------------------


  Excited state 4 (singlet, A)                                     [converged]
  ----------------------------------------------------------------------------
  Term symbol:  5 (1) A                                     R^2 =  4.57854e-14

  Total energy:                                            -77.9582434002 a.u.
  Excitation energy:                                               9.833297 eV

  Osc. strength:                                                      0.000001
  Trans. dip. moment [a.u.]:           [   0.000856,   -0.001685,   -0.000024]
  <i|r^2|0> [a.u.]:                    [   0.026813,    0.014463,   -0.036415]
  Two-photon absorption cross-section (SoS) [a.u.]:                 149.734835
  Two-photon absorption matrix (SoS) [a.u.]:
                                       |    0.420629    0.329512   -3.005783 |
                                       |    0.329512    0.233230   -3.040798 |
                                       |   -3.005783   -3.040798   -0.650274 |
  Two-photon absorption cross-section [a.u.]:                        92.101136
  Two-photon absorption matrix [a.u.]:
                                       |    0.399681    0.262302   -2.344136 |
                                       |    0.262302    0.115240   -2.394230 |
                                       |   -2.344136   -2.394230   -0.509923 |

  Dip. moment [a.u.]:                  [  -0.005389,    0.000153,   -0.008857]
  Total dipole [Debye]:                                               0.026355
  <r^2> [a.u.]:                        [ 181.257956,   40.546429,   10.764029]
  Total <r^2> [a.u.]:                                               232.568413

  V1^2 = 0.9635, V2^2 = 0.0365

  Important amplitudes:
      occ i     occ j     vir a      vir b          v   
    -----------------------------------------------------
     8 (A) A             11 (A) A                -0.6697
     7 (A) A              9 (A) A                -0.1499
     8 (A) A             21 (A) A                -0.0781
     8 (A) A             16 (A) A                 0.0646
     8 (A) A   8 (A) B    9 (A) A   13 (A) B     -0.0167
     5 (A) A   8 (A) B   11 (A) A   11 (A) B     -0.0155
     8 (A) A   8 (A) B   11 (A) A   17 (A) B     -0.0140
     7 (A) A             20 (A) A                 0.0137
     7 (A) A   8 (A) B   13 (A) A   11 (A) B      0.0127
     8 (A) A             12 (A) A                -0.0115
     5 (A) A   8 (A) A   11 (A) A   21 (A) A      0.0110
     4 (A) A   8 (A) B   12 (A) A   11 (A) B      0.0110
     8 (A) A   8 (A) B    9 (A) A   22 (A) B     -0.0108
     7 (A) A   8 (A) A   11 (A) A   22 (A) A     -0.0096
     6 (A) A   8 (A) B   15 (A) A   11 (A) B     -0.0090
     6 (A) A   8 (A) B   10 (A) A   11 (A) B      0.0090
     7 (A) A   8 (A) B   22 (A) A   11 (A) B      0.0089
     3 (A) A   4 (A) B   11 (A) A    9 (A) B      0.0083
     6 (A) A              9 (A) A                 0.0082
     3 (A) A   8 (A) B   11 (A) A   18 (A) B      0.0081
     6 (A) A   8 (A) A   11 (A) A   15 (A) A      0.0080
     7 (A) A   8 (A) A   13 (A) A   16 (A) A      0.0078
     7 (A) A   8 (A) A   11 (A) A   13 (A) A     -0.0077
     5 (A) A   8 (A) B   21 (A) A   11 (A) B     -0.0071
     4 (A) A   8 (A) B   19 (A) A   11 (A) B     -0.0070
     5 (A) A   8 (A) B    9 (A) A    9 (A) B     -0.0067
     4 (A) A   8 (A) A   11 (A) A   12 (A) A     -0.0062
     6 (A) A   8 (A) A   11 (A) A   18 (A) A      0.0062
     3 (A) A   6 (A) B   11 (A) A   28 (A) B      0.0060
     6 (A) A   8 (A) B   18 (A) A   11 (A) B     -0.0060
     7 (A) A   8 (A) B   16 (A) A   13 (A) B     -0.0057
     3 (A) A   8 (A) A   11 (A) A   18 (A) A      0.0056
     5 (A) A   8 (A) B   10 (A) A   10 (A) B     -0.0056
     3 (A) A   8 (A) B   11 (A) A   30 (A) B      0.0055
     3 (A) A   5 (A) B   11 (A) A   25 (A) B      0.0054
     6 (A) A   8 (A) B   11 (A) A   10 (A) B      0.0054
     7 (A) A   8 (A) B   12 (A) A   10 (A) B     -0.0054
     8 (A) A   8 (A) B   20 (A) A   22 (A) B      0.0053
     3 (A) A   8 (A) A   11 (A) A   24 (A) A      0.0053
     5 (A) A   8 (A) A   11 (A) A   16 (A) A     -0.0048
    -----------------------------------------------------

  Density matrix analysis:
  ------------------------
  NOs
    Occupation of frontier NOs:
       0.9409   1.0276
    Number of electrons: 16.000000
    Number of unpaired electrons: n_u =  2.31914, n_u,nl =  2.04898
    NO participation ratio (PR_NO):  2.913384
  
  
  Mulliken Population Analysis
  Atom      Charge (e)              h+              e-           Del q
  --------------------------------------------------------------------
   1 H       -0.144957        0.045677       -0.241624       -0.195947
   2 C        0.275103        0.497233       -0.121427        0.375806
   3 H       -0.130286        0.046978       -0.227782       -0.180805
   4 C        0.273162        0.496942       -0.122243        0.374700
   5 H       -0.130017        0.047096       -0.227368       -0.180273
   6 H       -0.143006        0.045766       -0.239247       -0.193481
  --------------------------------------------------------------------
  Sum:        0.000000        1.179691       -1.179691       -0.000000
  
  Multipole moment analysis of the density matrix
    Molecular charge:                      -0.000000
    Number of electrons:                   16.000000
      Center of electronic charge [Ang]: [ -1.560398,  -0.065607,  -0.001479]
    Total nuclear charge:                  16.000000
      Center of nuclear charge [Ang]:    [ -1.560576,  -0.065602,  -0.001772]
    Dipole moment [D]:                     0.026355
      Cartesian components [D]:          [ -0.013697,   0.000390,  -0.022512]
    RMS size of the density [Ang]:         1.277190
      Cartesian components [Ang]:        [  0.858776,   0.839840,   0.434036]
  
  Exciton analysis of the difference density matrix
    <r_h> [Ang]:                  [ -1.560255,  -0.065480,  -0.003846]
    <r_e> [Ang]:                  [ -1.558264,  -0.065522,   0.002747]
    |<r_e - r_h>| [Ang]:            0.006888
    Hole size [Ang]:                1.394774
      Cartesian components [Ang]: [  0.817922,   0.807104,   0.790558]
    Electron size [Ang]:            2.124128
      Cartesian components [Ang]: [  1.440334,   1.406026,   0.678562]

  Transition density matrix analysis:
  -----------------------------------
  
  CT numbers (Mulliken)
    omega =     0.9298
    <Phe> =    -0.0135
  
  Exciton analysis of the transition density matrix
    Trans. dipole moment [D]:             0.002402
      Cartesian components [D]:         [  0.001088,  -0.002142,  -0.000031]
    <r_h> [Ang]:                        [ -1.560364,  -0.065444,  -0.004961]
    <r_e> [Ang]:                        [ -1.557963,  -0.065376,   0.003685]
    |<r_e - r_h>| [Ang]:                  0.008974
    Hole size [Ang]:                      1.227874
      Cartesian components [Ang]:       [  0.657417,   0.650529,   0.807645]
    Electron size [Ang]:                  2.262305
      Cartesian components [Ang]:       [  1.534577,   1.497807,   0.720882]
    RMS electron-hole separation [Ang]:   2.563374
      Cartesian components [Ang]:       [  1.660923,   1.625178,   1.082135]
    Covariance(r_h, r_e) [Ang^2]:         0.027446
    Correlation coefficient:              0.009880
    Center-of-mass size [Ang]:            1.292342
      Cartesian components [Ang]:       [  0.838985,   0.820369,   0.541522]

  Decomposition into state-averaged NTOs
    H- 0 -> L+ 2:  0.6651 ( 88.5%)
    H- 1 -> L+ 0: -0.1479 (  4.4%)
                   omega =  93.0%
  ----------------------------------------------------------------------------


  Excited state 5 (singlet, A)                                     [converged]
  ----------------------------------------------------------------------------
  Term symbol:  6 (1) A                                     R^2 =  3.06338e-13

  Total energy:                                            -77.9443243255 a.u.
  Excitation energy:                                              10.212055 eV

  Osc. strength:                                                      0.000000
  Trans. dip. moment [a.u.]:           [  -0.000348,   -0.000129,   -0.000290]
  <i|r^2|0> [a.u.]:                    [  -0.096191,    0.098005,   -0.010734]
  Two-photon absorption cross-section (SoS) [a.u.]:                 178.239853
  Two-photon absorption matrix (SoS) [a.u.]:
                                       |   -0.427220    0.020934    3.349971 |
                                       |    0.020934    0.285049   -3.303778 |
                                       |    3.349971   -3.303778   -0.049493 |
  Two-photon absorption cross-section [a.u.]:                        79.921258
  Two-photon absorption matrix [a.u.]:
                                       |   -0.345685   -0.022730    2.220241 |
                                       |   -0.022730    0.127375   -2.231057 |
                                       |    2.220241   -2.231057   -0.022083 |

[...]
    16   -1.286448003588e-03
    17   -1.942151445121e-03
    18   -1.236472258203e-04
    19   -3.321476259604e-03
    20    1.067994163859e-02
    21    9.333994743687e-01
    22   -2.760090036903e-04
    23    1.396008029891e-02
    24    9.044119115754e-04
    25    7.023702291637e-02
    26   -5.221990570823e-02
    27   -1.398791766382e+00
    28    9.774373128401e-02
    29   -9.280536422875e-02
    30   -5.125244155811e-03
    31    3.849120407854e-01
    32   -3.622724976221e-01
    33   -2.032993228916e-02
    34    1.561996928906e-02
    35   -1.065524420526e-03
    36   -2.167248860016e-03
    37   -1.554446673450e-04
    38   -3.138047761790e-03
    39    9.934721996964e-03
    40    9.326408474992e-01
    41    2.351102859152e-04
    42   -1.390535636981e-02
    43   -1.037421151852e-03
    44    9.952133979251e-03
    45    9.388602366491e-01
    46    1.413841523602e-02
    47    3.645181212718e-04
    48    4.715532563255e-04
Sym=X
Ene= 0.232959
Spin=Alpha
Occup=0
     1    2.617390374684e-02
     2    1.231775971215e+00
     3   -1.426797407835e-02
     4   -3.822347019763e-03
     5   -8.459701182593e-04
     6    2.875662545704e-03
     7   -3.399559736127e-03
     8   -4.351663774791e-02
     9   -1.545834959046e-01
    10   -1.588646252769e-01
    11   -1.669121539774e-02
    12   -5.562316871574e-01
    13   -5.587118387401e-01
    14   -5.935558166977e-02
    15    4.922867939632e-04
    16    1.824157217524e-04
    17    2.141152715874e-04
    18   -2.035432060215e-04
    19   -3.411985454836e-04
    20   -2.509410074484e-02
    21   -1.163001783842e+00
    22   -2.490748748395e-03
    23   -1.362393097597e-02
    24   -9.744958398276e-04
    25   -2.768727882551e-03
    26    3.270126742168e-03
    27    4.127875902684e-02
    28   -1.539280405150e-01
    29   -1.590835658156e-01
    30   -1.672064086686e-02
    31   -5.489055765587e-01
    32   -5.543478640431e-01
    33   -5.895827176431e-02
    34   -5.642535002863e-04
    35   -3.249613396566e-04
    36   -3.728575215552e-04
    37    3.743228063631e-04
    38    3.951838280206e-04
    39    2.520379909436e-02
    40    1.157212303052e+00
    41   -2.440234392966e-03
    42   -1.360474249968e-02
    43   -9.980947664522e-04
    44   -2.611755262697e-02
    45   -1.223015155173e+00
    46   -1.425098262670e-02
    47   -3.787994380382e-03
    48   -8.199444492189e-04
Sym=X
Ene= 0.239405
Spin=Alpha
Occup=0
     1   -1.596931273393e-02
     2   -1.052223511939e+00
     3    1.652782991168e-02
     4    9.105026486986e-03
     5    1.365927247115e-03
     6   -8.650537635064e-02
     7    7.972981148880e-02
     8    1.593222865731e+00
     9    5.331228942629e-02
    10   -6.053507945335e-02
    11   -1.097170404979e-04
    12    2.111401743131e-01
    13   -2.356835105195e-01
    14    1.637556867759e-03
    15   -2.254466372753e-02
    16    2.869871980009e-03
    17    2.735567428428e-03
    18   -5.249032793369e-04
    19    1.286557965949e-02
    20   -1.704472338357e-02
    21   -1.123851036427e+00
    22   -8.536098121864e-03
    23   -1.776139063293e-02
    24   -1.418975210241e-03
    25    8.642934303396e-02
    26   -7.928003001980e-02
    27   -1.595987771474e+00
    28    5.360218504443e-02
    29   -6.092429967205e-02
    30   -4.991528658327e-03
    31    2.124295040414e-01
    32   -2.394243828987e-01
    33   -1.899115735670e-02
    34    2.259870453546e-02
    35   -2.409574425648e-03
    36   -3.207185306688e-03
    37    6.615894116627e-04
    38   -1.278835024250e-02
    39    1.676867297542e-02
    40    1.128539529490e+00
    41   -8.616621669519e-03
    42   -1.783311270060e-02
    43   -1.757198278864e-03
    44    1.564718027517e-02
    45    1.050733030265e+00
    46    1.648542773955e-02
    47    9.275926685908e-03
    48    1.049791066303e-03
Sym=X
Ene= 0.303263
Spin=Alpha
Occup=0
     1   -2.084601339732e-02
     2    1.691659223701e+00
     3   -2.290847241868e-02
     4    2.736781632888e-04
     5   -1.266822305589e-03
     6   -1.926077347845e-04
     7    1.919088630636e-04
     8    9.045181964521e-04
     9   -1.339399444309e-01
    10   -1.395319407773e-01
    11   -1.457191493139e-02
    12   -1.143790585649e+00
    13   -1.193926539681e+00
    14   -1.248913722968e-01
    15   -1.514196439884e-04
    16   -1.830057673448e-03
    17    1.654044056436e-03
    18   -3.266284189398e-02
    19   -1.595083403043e-03
    20    1.993743387127e-02
    21   -1.689318629009e+00
    22    1.434128550920e-03
    23   -2.290816656535e-02
    24   -1.085541245874e-03
    25    7.079566887023e-05
    26    2.932870739736e-04
    27   -1.076609349500e-02
    28    1.347397515609e-01
    29    1.402724708373e-01
    30    1.476788772754e-02
    31    1.140144462111e+00
    32    1.197073909641e+00
    33    1.252648349175e-01
    34    2.062698865543e-04
    35   -1.042243174919e-03
    36    2.474153088191e-03
    37   -3.248208258000e-02
    38   -1.807037411068e-03
    39    1.937111936435e-02
    40   -1.690521072176e+00
    41   -1.635359610573e-03
    42    2.283074344816e-02
    43    1.327024839233e-03
    44   -2.026257978092e-02
    45    1.699697917528e+00
    46    2.305192521406e-02
    47   -3.390749908057e-04
    48    1.033489990354e-03
Sym=X
Ene= 0.462041
Spin=Alpha
Occup=0
     1   -1.151857444379e-01
     2   -7.148881549623e-01
     3   -1.564421544489e-02
     4   -1.038186701508e-02
     5   -1.360696718367e-03
     6    6.080313722222e-02
     7    1.735486114515e-02
     8   -3.592115588647e+00
     9    1.030761513260e-01
    10   -9.890248161588e-02
    11   -2.342629504964e-03
    12    2.425777706156e+00
    13   -2.303773716353e+00
    14    7.044152336386e-03
    15    5.367390506645e-02
    16   -3.364707492478e-03
    17   -4.637791021670e-03
    18   -7.269998579080e-04
    19    1.800261153291e-02
    20   -1.216179732953e-01
    21   -7.017003408379e-01
    22    8.669893440157e-03
    23    1.641072600395e-02
    24    1.361788029773e-03
    25   -6.095980412699e-02
    26   -1.627590846737e-02
    27    3.591976558615e+00
    28    1.053222760097e-01
    29   -1.002648165927e-01
    30   -5.207044360414e-03
    31    2.423781379394e+00
    32   -2.297226666819e+00
    33   -5.872897201283e-03
    34   -5.268788082712e-02
    35    3.533308836176e-03
    36    4.282986408484e-03
    37    5.705287179229e-04
    38   -1.907322835765e-02
    39    1.157471429175e-01
    40    7.064822931341e-01
    41    8.502016647474e-03
    42    1.627654019674e-02
    43    1.251755666149e-03
    44    1.100957788032e-01
    45    7.205271134000e-01
    46   -1.541658729983e-02
    47   -9.997421642390e-03
    48   -1.453814220054e-03
Sym=X
Ene= 0.577501
Spin=Alpha
Occup=0
     1    2.464907054007e-01
     2    4.161167804520e-02
     3   -1.852461006498e-02
     4    2.567887101539e-02
     5    5.677876353780e-04
     6   -4.443824064472e-03
     7   -1.572597191693e-01
     8   -4.665945429853e-01
     9    2.986009193739e-01
    10   -2.882534626316e-01
    11   -4.740436814979e-04
    12   -7.190841155713e-01
    13    6.963538243975e-01
    14    7.083258485735e-03
    15   -5.859835285219e-03
    16    3.829746634243e-03
    17    3.776724831617e-03
    18   -4.628521038082e-03
    19    6.020782443839e-02
    20    2.557436567439e-01
    21    2.834416816984e-02
    22   -2.643292956233e-02
    23    1.641405984696e-02
    24   -3.564499727454e-04
    25   -5.660597824507e-03
    26   -1.579573007367e-01
    27   -4.088188260544e-01
    28   -2.970646683816e-01
    29    2.855519194714e-01
    30   -1.692421902699e-04
    31    7.632553928619e-01
    32   -7.331148270529e-01
    33   -9.749590191561e-03
    34   -5.845722374174e-03
    35    3.807121131399e-03
    36    3.791165367314e-03
    37   -4.006825005401e-03
    38    6.017052165671e-02
    39    2.510060934087e-01
    40    4.838273797563e-02
    41    2.729129137847e-02
    42   -1.702240130261e-02
    43    9.182472258585e-05
    44    2.486146803301e-01
    45    5.787617493046e-02
    46    1.843581257184e-02
    47   -2.580088817231e-02
    48   -8.621976784451e-04
Sym=X
Ene= 0.615140
Spin=Alpha
Occup=0
     1   -5.230688999165e-01
     2    1.993969619621e-01
     3   -6.142773184769e-02
     4    3.755936818940e-02
     5   -9.944237635095e-04
     6   -6.550196423949e-04
     7    1.745165775430e-04
     8   -2.085930395254e-02
     9   -4.054337493207e-02
    10   -3.832353536227e-02
    11   -4.317510808773e-03
    12    3.081414782714e-01
    13    2.758352077045e-01
    14    3.103462664807e-02
    15    2.066782038935e-03
    16   -8.063957780955e-03
    17    7.730259180319e-03
    18   -1.479580964935e-01
    19   -6.385103884960e-03
    20    5.071435099878e-01
    21   -2.055543767495e-01
    22    4.184701673311e-02
    23   -5.837914324379e-02
    24   -1.180012252637e-03
    25    4.815288824415e-04
    26   -6.481189928676e-04
    27    2.672519473047e-02
    28   -4.029909815795e-02
    29   -4.000030956700e-02
    30   -4.373542739449e-03
    31    3.075984481210e-01
    32    2.860036894219e-01
    33    3.198788270572e-02
    34   -1.819292613531e-03
    35    5.889639390400e-03
    36   -1.016465053620e-02
    37    1.491485995574e-01
    38    6.298612447384e-03
    39   -5.147424652732e-01
    40    2.095745265044e-01
    41    4.100480491718e-02
    42   -5.852570398014e-02
    43   -1.974256472584e-03
    44    5.222005607824e-01
    45   -2.024353700183e-01
    46   -6.153005775188e-02
    47    3.748906914444e-02
    48   -2.476950596709e-04
Sym=X
Ene= 0.689155
Spin=Alpha
Occup=0
     1    7.653803493607e-03
     2    4.460376912711e-03
     3    1.732698093239e-03
     4    2.076888490714e-03
     5   -2.092621007986e-02
     6    5.004610387438e-04
     7    2.606226338289e-03
     8    4.231585394345e-03
     9    3.138022501706e-02
    10    4.000807618984e-02
    11   -6.703554508971e-01
    12   -4.262810080417e-02
    13   -2.330280573267e-02
    14    6.136487799648e-01
    15   -1.503091478953e-03
    16    8.285159344458e-02
    17   -7.812987458274e-02
    18   -8.710237899328e-03
    19    1.236244780205e-03
    20    7.641123296296e-03
    21    4.261082981810e-03
    22    1.542014049708e-04
    23    4.534691012062e-04
    24   -2.101009961929e-02
    25    1.234497614612e-05
    26    7.371118315593e-03
    27   -1.036300909736e-02
    28    3.372061787805e-02
    29    3.818067178677e-02
    30   -6.700190422881e-01
    31   -4.496266090918e-02
    32   -2.173238425646e-02
    33    6.132232235729e-01
    34   -1.818444777399e-03
    35   -8.261843447250e-02
    36    7.862924331426e-02
    37    8.609882239240e-03
    38   -2.002363366232e-05
    39   -4.718996690386e-04
    40   -1.025053886151e-02
    41    7.698174840532e-04
    42    3.020773970415e-03
    43   -2.083073628887e-02
    44   -5.793038972246e-04
    45   -1.016752022822e-02
    46   -7.728578014916e-04
    47    1.424448282896e-03
    48   -2.121394449358e-02
Sym=X
Ene= 0.708949
Spin=Alpha
Occup=0
     1   -4.753882580309e-01
     2    1.591914416553e-01
     3   -8.075440689065e-02
     4   -4.427190079111e-02
     5   -7.316865042282e-03
     6   -4.786017975104e-02
     7   -3.198257938881e-01
     8    5.102433903072e-01
     9    2.040078487532e-01
    10   -1.916506290311e-01
    11   -6.658608371879e-03
    12   -9.901220204319e-02
    13    8.080896825771e-02
    14   -3.667487803598e-03
    15    1.941598220661e-01
    16   -2.130227382104e-02
    17   -2.315084728791e-02
    18    3.221609238896e-03
    19   -7.744339180289e-02
    20   -4.790720159525e-01
    21    1.499262030341e-01
    22    4.097239959698e-02
    23    8.175400866151e-02
    24    5.928676105463e-03
    25   -4.666496131653e-02
    26   -3.209285951632e-01
    27    4.619683894228e-01
    28   -2.036455866437e-01
    29    1.925937954590e-01
    30   -5.207470064382e-03
    31    6.288627890749e-02
    32   -5.283750774176e-02
    33    1.739975350789e-02
    34    1.935322572588e-01
    35   -2.113322202720e-02
    36   -2.314187460245e-02
    37    2.434515448967e-03
    38   -7.560178672154e-02
    39   -4.723974890404e-01
    40    1.362841701537e-01
    41   -4.077371451603e-02
    42   -8.089159845042e-02
    43   -6.386811245716e-03
    44   -4.740546583452e-01
    45    1.446549744051e-01
    46    8.052091031414e-02
    47    4.392554826331e-02
    48    6.807164819713e-03
Sym=X
Ene= 0.784572
Spin=Alpha
Occup=0
     1    5.259062838732e-01
     2   -4.685815201814e-01
     3    1.100794225474e-01
     4    2.594035884895e-02
     5    7.217738045978e-03
     6    9.092443002796e-02
     7   -2.158567130441e-01
     8   -6.419836173658e-01
     9    1.101214775149e-01
    10   -1.064449501424e-01
    11    1.161318514324e-02
    12    3.188565222648e-01
    13   -2.919455710321e-01
    14   -1.938454316025e-02
    15   -2.061960951807e-01
    16    1.852545619089e-02
    17    2.071972790377e-02
    18   -1.507521787078e-03
    19    9.198183049201e-03
    20    5.361594454207e-01
    21   -4.687298276610e-01
    22   -2.028913040526e-02
    23   -1.124292520294e-01
    24   -7.109630604202e-03
    25   -9.138591146110e-02
    26    2.130384619645e-01
    27    6.564472223592e-01
    28    1.128420491190e-01
    29   -1.038813536055e-01
    30   -7.594710670761e-03
    31    3.068646396255e-01
    32   -2.916096138319e-01
    33    1.853601609682e-02
    34    2.077056599428e-01
    35   -1.598205084016e-02
    36   -2.381926651484e-02
    37    2.077616519064e-03
    38   -8.915499238736e-03
    39   -5.430626633642e-01
    40    4.700874930294e-01
    41   -2.057898581253e-02
    42   -1.132153084527e-01
    43   -7.780026534956e-03
    44   -5.306946430826e-01
    45    4.618864790314e-01
    46    1.097447890033e-01
    47    2.678497894428e-02
    48    6.813002484687e-03
Sym=X
Ene= 0.807965
Spin=Alpha
Occup=0
     1    6.092303280073e-03
     2   -6.692868187621e-03
     3    2.917737639230e-03
     4    1.945353550657e-03
     5   -3.371112351916e-02
     6    1.351722065667e-03
     7   -6.505960748576e-03
     8    8.670417223086e-05
     9    4.207304302737e-02
    10    3.921081274563e-02
    11   -7.629281979698e-01
    12   -5.541864789497e-02
    13   -6.388910599975e-02
    14    1.126852487061e+00
    15   -3.363247508611e-03
    16   -6.500637274309e-02
    17    6.215106351335e-02
    18    6.911231924532e-03
    19   -8.067127872119e-04
    20    6.285919796878e-03
    21   -5.929523976860e-03
    22    1.807388792191e-03
    23    7.992825254027e-04
    24   -3.458389416318e-02
    25   -9.880194062529e-04
    26   -1.622774221202e-03
    27    4.391333578968e-03
    28   -3.480898646364e-02
    29   -4.688366363968e-02
    30    7.631973016656e-01
    31    5.947955581178e-02
    32    6.142940755659e-02
    33   -1.126961520272e+00
    34    3.705110964923e-03
    35   -6.546810807525e-02
    36    6.150063615510e-02
    37    6.731085013220e-03
    38    7.225740214991e-04
    39   -6.194128720577e-03
    40    8.383963757583e-03
    41   -9.395533009895e-04
    42   -5.132824686844e-03
    43    3.403523364367e-02
    44   -6.086076686279e-03
    45    8.631640542451e-03
    46    1.511395151863e-03
    47   -2.489050610557e-03
    48    3.392511153508e-02
Sym=X
Ene= 0.862232
Spin=Alpha
Occup=0
     1    1.403050640209e-02
     2   -1.095413347898e+00
     3    1.484956796688e-01
     4    5.642609102313e-02
     5    9.925002607454e-03
     6    3.326284970665e-04
     7   -1.499532449980e-03
     8    3.259503472232e-03
     9   -4.059253851084e-01
    10   -4.294895737850e-01
    11   -4.444172403695e-02
    12    9.458059677940e-01
    13    9.991599344313e-01
    14    1.034487858220e-01
    15   -1.094706523179e-03
    16    1.141528803230e-02
    17   -1.387625367116e-02
    18    2.353266969636e-01
    19    9.212898592872e-03
    20   -1.321075137819e-02
    21    1.102852061887e+00
    22    5.037905416678e-02
    23    1.511684575652e-01
    24    1.179186383216e-02
    25   -3.265150121603e-04
    26    1.169847665823e-03
    27   -2.418934225832e-03
    28   -4.059170916856e-01
    29   -4.306369368971e-01
    30   -4.515388969227e-02
    31    9.461695239504e-01
    32    1.004319528979e+00
    33    1.052624355521e-01
    34    1.205927047578e-03
    35   -1.109700194927e-02
    36    1.431101510003e-02
    37   -2.363854603641e-01
    38   -9.965628819799e-03
    39    1.118922985574e-02
    40   -1.102962409370e+00
    41    4.895298588043e-02
    42    1.514399703515e-01
    43    1.260092664303e-02
    44   -1.206635773790e-02
    45    1.095026064427e+00
    46    1.489676869229e-01
    47    5.560708571297e-02
    48    9.130773828596e-03
Sym=X
Ene= 0.935872
Spin=Alpha
Occup=0
     1    1.127597132071e-01
     2   -1.280301599534e+00
     3    1.809487338034e-01
     4   -5.415643703980e-03
     5    9.936397878370e-03
     6   -9.758270256327e-05
     7    4.816541136795e-03
     8   -4.619573942487e-03
     9   -4.738447723987e-01
    10   -4.988683494235e-01
    11   -5.191267742684e-02
    12    1.469166540085e+00
    13    1.539264005705e+00
    14    1.606385208963e-01
    15    1.612028935036e-03
    16    7.788953324694e-03
    17   -4.911718663660e-03
    18    1.202857376023e-01
    19    2.395548090772e-03
    20   -1.172958135740e-01
    21    1.287024071954e+00
    22   -1.153199766105e-02
    23    1.832432211278e-01
    24    8.589721970853e-03
    25    1.666745940092e-04
    26    4.043599891241e-03
    27   -3.554697517682e-03
    28    4.728456447720e-01
    29    4.988386294327e-01
    30    5.205506304593e-02
    31   -1.466219826542e+00
    32   -1.535758039248e+00
    33   -1.608745529438e-01
    34    1.993383838250e-05
    35    5.458724246735e-03
    36   -7.591665148173e-03
    37    1.205341536038e-01
    38    3.715528794522e-03
    39   -1.164564317045e-01
    40    1.283732159858e+00
    41    1.303753737886e-02
    42   -1.823143393705e-01
    43   -9.886458549921e-03
    44    1.150259254659e-01
    45   -1.283010278072e+00
    46   -1.814699369948e-01
    47    5.969557327226e-03
    48   -8.671881942721e-03
Sym=X
Ene= 0.972457
Spin=Alpha
Occup=0
     1   -6.475929640686e-02
     2    9.252753053050e-01
     3   -9.090425529226e-02
     4   -9.854190472343e-02
     5   -9.607196621470e-03
     6    2.534712852075e-02
     7    2.536970003284e-01
     8    5.172673857954e-01
     9    4.806862350807e-01
    10   -4.551702124191e-01
    11    4.245643015739e-04
    12   -1.492629888136e+00
    13    1.410145388321e+00
    14   -2.516254702466e-03
    15   -5.388716882126e-02
    16   -1.004119750610e-02
    17   -1.238626475565e-02
    18    1.318671530849e-02
    19   -3.016719923474e-01
    20   -6.223958435922e-02
    21    9.109143335792e-01
    22    9.531343797655e-02
    23    9.310966707889e-02
    24    1.061520538443e-02
    25   -2.517336314287e-02
    26   -2.371408104562e-01
    27   -5.448512887650e-01
    28    4.792693365372e-01
    29   -4.535864980509e-01
    30   -6.847855624991e-03
    31   -1.488801607316e+00
    32    1.410671907824e+00
    33    1.776468197836e-02
    34    5.290491075468e-02
    35    9.478395097677e-03
    36    1.272139201411e-02
    37   -1.322702694586e-02
    38    2.989872864119e-01
    39    6.184632305712e-02
    40   -9.040528077895e-01
    41    9.414011825703e-02
    42    9.202859212523e-02
    43    1.190440303734e-02
    44    6.602550653958e-02
    45   -9.150458810697e-01
    46   -8.954476546762e-02
    47   -9.790413930834e-02
    48   -8.067073328938e-03
[5D]

======= END OF MOLDEN-FORMATTED INPUT FILE =======


        *************************************************************
        *                                                           *
        *  Thank you very much for using Q-Chem.  Have a nice day.  *
        *                                                           *
        *************************************************************


