                  Welcome to Q-Chem
     A Quantum Leap Into The Future Of Chemistry


 Q-Chem 5.4 (devel), Q-Chem, Inc., Pleasanton, CA (2021)

 E. Epifanovsky,  A. T. B. Gilbert,  Xintian Feng,  Joonho Lee,  Yuezhi Mao,  
 N. Mardirossian,  P. Pokhilko,  A. White,  M. Wormit,  M. P. Coons,  
 A. L. Dempwolff,  Zhengting Gan,  D. Hait,  P. R. Horn,  L. D. Jacobson,  
 I. Kaliman,  J. Kussmann,  A. W. Lange,  Ka Un Lao,  D. S. Levine,  Jie Liu,  
 S. C. McKenzie,  A. F. Morrison,  K. Nanda,  F. Plasser,  D. R. Rehn,  
 M. L. Vidal,  Zhi-Qiang You,  Ying Zhu,  B. Alam,  B. Albrecht,  
 A. Aldossary,  E. Alguire,  J. H. Andersen,  D. Barton,  K. Begam,  A. Behn,  
 Y. A. Bernard,  E. J. Berquist,  H. Burton,  A. Carreras,  K. Carter-Fenk,  
 R. Chakraborty,  A. D. Chien,  K. D. Closser,  V. Cofer-Shabica,  
 S. Dasgupta,  Jia Deng,  M. de Wergifosse,  M. Diedenhofen,  Hainam Do,  
 S. Ehlert,  Po-Tung Fang,  S. Fatehi,  Qingguo Feng,  T. Friedhoff,  
 J. Gayvert,  Qinghui Ge,  G. Gidofalvi,  M. Goldey,  J. Gomes,  
 C. Gonzalez-Espinoza,  S. Gulania,  A. Gunina,  M. W. D. Hanson-Heine,  
 P. H. P. Harbach,  A. W. Hauser,  M. F. Herbst,  M. Hernandez Vera,  
 M. Hodecker,  Z. C. Holden,  S. Houck,  Xunkun Huang,  Kerwin Hui,  
 B. C. Huynh,  M. Ivanov,  Hyunjun Ji,  Hanjie Jiang,  B. Kaduk,  S. Kaehler,  
 K. Khistyaev,  Jaehoon Kim,  P. Klunzinger,  Z. Koczor-Benda,  
 Joong Hoon Koh,  D. Kosenkov,  L. Koulias,  T. Kowalczyk,  C. M. Krauter,  
 K. Kue,  A. Kunitsa,  T. Kus,  A. Landau,  K. V. Lawler,  D. Lefrancois,  
 S. Lehtola,  Rain Li,  Yi-Pei Li,  Jiashu Liang,  M. Liebenthal,  
 Hung-Hsuan Lin,  You-Sheng Lin,  Fenglai Liu,  Kuan-Yu Liu,  
 M. Loipersberger,  A. Luenser,  A. Manjanath,  P. Manohar,  E. Mansoor,  
 S. F. Manzer,  Shan-Ping Mao,  A. V. Marenich,  T. Markovich,  S. Mason,  
 S. A. Maurer,  P. F. McLaughlin,  M. F. S. J. Menger,  J.-M. Mewes,  
 S. A. Mewes,  P. Morgante,  J. W. Mullinax,  K. J. Oosterbaan,  G. Paran,  
 Alexander C. Paul,  Suranjan K. Paul,  F. Pavosevic,  Zheng Pei,  S. Prager,  
 E. I. Proynov,  E. Ramos,  B. Rana,  A. E. Rask,  A. Rettig,  R. M. Richard,  
 F. Rob,  E. Rossomme,  T. Scheele,  M. Scheurer,  M. Schneider,  
 N. Sergueev,  S. M. Sharada,  W. Skomorowski,  D. W. Small,  C. J. Stein,  
 Yu-Chuan Su,  E. J. Sundstrom,  Zhen Tao,  J. Thirman,  T. Tsuchimochi,  
 N. M. Tubman,  S. P. Veccham,  O. Vydrov,  J. Wenzel,  J. Witte,  A. Yamada,  
 Kun Yao,  S. Yeganeh,  S. R. Yost,  A. Zech,  Igor Ying Zhang,  Xing Zhang,  
 Yu Zhang,  D. Zuev,  A. Aspuru-Guzik,  A. T. Bell,  N. A. Besley,  
 K. B. Bravaya,  B. R. Brooks,  D. Casanova,  Jeng-Da Chai,  S. Coriani,  
 C. J. Cramer,  A. E. DePrince, III,  R. A. DiStasio Jr.,  A. Dreuw,  
 B. D. Dunietz,  T. R. Furlani,  W. A. Goddard III,  S. Grimme,  
 S. Hammes-Schiffer,  T. Head-Gordon,  W. J. Hehre,  Chao-Ping Hsu,  
 T.-C. Jagau,  Yousung Jung,  A. Klamt,  Jing Kong,  D. S. Lambrecht,  
 WanZhen Liang,  N. J. Mayhall,  C. W. McCurdy,  J. B. Neaton,  
 C. Ochsenfeld,  J. A. Parkhill,  R. Peverati,  V. A. Rassolov,  Yihan Shao,  
 L. V. Slipchenko,  T. Stauch,  R. P. Steele,  J. E. Subotnik,  
 A. J. W. Thom,  A. Tkatchenko,  D. G. Truhlar,  T. Van Voorhis,  
 T. A. Wesolowski,  K. B. Whaley,  H. L. Woodcock III,  P. M. Zimmerman,  
 S. Faraji,  P. M. W. Gill,  M. Head-Gordon,  J. M. Herbert,  A. I. Krylov

 Additional authors for Version 5.4.1: 
 S. Kotaru,  Shaozhi Li,  Xiangyuan Li,  F. Matz,  A. Molle,  Haisheng Ren,  
 Yingli Su,  Hung-Yi Tsai,  C. Utku,  Fang Wang

 Contributors to earlier versions of Q-Chem not listed above: 
 R. D. Adamson,  B. Austin,  R. Baer,  J. Baker,  G. J. O. Beran,  
 K. Brandhorst,  S. T. Brown,  E. F. C. Byrd,  A. K. Chakraborty,  
 G. K. L. Chan,  Chun-Min Chang,  Yunqing Chen,  C.-L. Cheng,  
 Siu Hung Chien,  D. M. Chipman,  D. L. Crittenden,  H. Dachsel,  
 R. J. Doerksen,  A. D. Dutoi,  R. G. Edgar,  J. Fosso-Tande,  
 L. Fusti-Molnar,  D. Ghosh,  A. Ghysels,  A. Golubeva-Zadorozhnaya,  
 J. Gonthier,  M. S. Gordon,  S. R. Gwaltney,  G. Hawkins,  J. E. Herr,  
 A. Heyden,  S. Hirata,  E. G. Hohenstein,  G. Kedziora,  F. J. Keil,  
 C. Kelley,  Jihan Kim,  R. A. King,  R. Z. Khaliullin,  P. P. Korambath,  
 W. Kurlancheek,  A. Laurent,  A. M. Lee,  M. S. Lee,  S. V. Levchenko,  
 Ching Yeh Lin,  D. Liotard,  E. Livshits,  R. C. Lochan,  I. Lotan,  
 L. A. Martinez-Martinez,  P. E. Maslen,  N. Nair,  D. P. O'Neill,  
 D. Neuhauser,  E. Neuscamman,  C. M. Oana,  R. Olivares-Amaya,  R. Olson,  
 T. M. Perrine,  B. Peters,  P. A. Pieniazek,  A. Prociuk,  Y. M. Rhee,  
 J. Ritchie,  M. A. Rohrdanz,  E. Rosta,  N. J. Russ,  H. F. Schaefer III,  
 M. W. Schmidt,  N. E. Schultz,  S. Sharma,  N. Shenvi,  C. D. Sherrill,  
 A. C. Simmonett,  A. Sodt,  T. Stein,  D. Stuck,  K. S. Thanthiriwatte,  
 V. Vanovschi,  L. Vogt,  Tao Wang,  A. Warshel,  M. A. Watson,  
 C. F. Williams,  Q. Wu,  X. Xu,  Jun Yang,  W. Zhang,  Yan Zhao

 Please cite Q-Chem as follows:
 Y. Shao et al., Mol. Phys. 113, 184-215 (2015)
 DOI: 10.1080/00268976.2014.952696

 Q-Chem 5.4.1 for Intel X86 EM64T Linux

 Parts of Q-Chem use Armadillo 9.800.1 (Horizon Scraper).
 http://arma.sourceforge.net/

 Q-Chem begins on Thu Nov 17 15:41:06 2022  

 Host: cpu198.baobab
0

     Scratch files written to /scratch/fum/qchem8777//
 Processing $rem in /home/share/wesolowski/qc5.aug2021.FDE/config/preferences:
 Processing $rem in /home/fum/.qchemrc:

 Checking the input file for inconsistencies... 	...done.

--------------------------------------------------------------
User input:
--------------------------------------------------------------
$comment
generated from CCJob.Templates
$end

$rem
sym_ignore = true
method = adc(2)
ee_states = 10
basis = cc-pVDZ
mem_static = 1024
mem_total = 40000
adc_davidson_maxiter = 900
adc_davidson_conv = 6
adc_print = 3
adc_prop_es = true
adc_prop_es2es = true
adc_prop_tpa = true
molden_format = True
state_analysis = true
print_orbitals = 15
gen_scfman = false
fde_export_density = true
fde_details = 3
$end

$molecule
0 1
H -0.0348278765 -0.2442097827 0.0636489606
C -1.0765972949 -0.5342748755 -0.0023551776
H -1.313264467 -1.5767591607 -0.0757276926
C -2.043634118 0.3926884087 0.0061254933
H -1.8137616575 1.4459188338 0.0804456828
H -3.085977293 0.114931858 -0.0593381042                     
$end
--------------------------------------------------------------
 ----------------------------------------------------------------
             Standard Nuclear Orientation (Angstroms)
    I     Atom           X                Y                Z
 ----------------------------------------------------------------
    1      H      -0.0348278765    -0.2442097827     0.0636489606
    2      C      -1.0765972949    -0.5342748755    -0.0023551776
    3      H      -1.3132644670    -1.5767591607    -0.0757276926
    4      C      -2.0436341180     0.3926884087     0.0061254933
    5      H      -1.8137616575     1.4459188338     0.0804456828
    6      H      -3.0859772930     0.1149318580    -0.0593381042
 ----------------------------------------------------------------
 Nuclear Repulsion Energy =          33.36069246 hartrees
 There are        8 alpha and        8 beta electrons
 Requested basis set is cc-pVDZ
 There are 24 shells and 48 basis functions
 Total memory of 40000 MB is distributed as follows: 
   MEM_STATIC is set to 1024 MB
   QALLOC/CCMAN JOB total memory use is  38976 MB
 Warning: actual memory use might exceed 40000 MB

 Total QAlloc Memory Limit  40000 MB
 Mega-Array Size      1001 MB
 MEM_STATIC part      1024 MB

                       Distance Matrix (Angstroms)
             H (  1)   C (  2)   H (  3)   C (  4)   H (  5)
   C (  2)  1.083410
   H (  3)  1.851895  1.071526
   C (  4)  2.108139  1.339587  2.102109
   H (  5)  2.453859  2.114577  3.067812  1.080583
   H (  6)  3.074674  2.112421  2.450428  1.080700  1.846510

 A cutoff of  1.0D-11 yielded    300 shell pairs
 There are      1220 function pairs (      1329 Cartesian)
 Smallest overlap matrix eigenvalue = 4.92E-03

 Scale SEOQF with 1.000000e-01/1.000000e-01/1.000000e+00

 Standard Electronic Orientation quadrupole field applied
 Nucleus-field energy     =     0.0000000022 hartrees
 Guess from superposition of atomic densities
 Warning:  Energy on first SCF cycle will be non-variational
 SAD guess density has 16.000000 electrons
 A restricted Hartree-Fock SCF calculation will be
 performed using Pulay DIIS extrapolation
 SCF converges when DIIS error is below 1.0E-08
 using 10 threads for integral computing
 -------------------------------------------------------
 OpenMP Integral computing Module                
 Release: version 1.0, May 2013, Q-Chem Inc. Pittsburgh 
 -------------------------------------------------------
 ---------------------------------------
  Cycle       Energy         DIIS Error
 ---------------------------------------
    1     -78.4300715068      1.01E-01
    2     -78.0173688103      7.19E-03
    3     -78.0379560645      1.83E-03
    4     -78.0394318823      5.62E-04
    5     -78.0395490612      5.80E-05
    6     -78.0395509400      9.33E-06
    7     -78.0395510012      2.33E-06
    8     -78.0395510042      9.06E-07
    9     -78.0395510045      1.33E-07
   10     -78.0395510045      3.46E-08
   11     -78.0395510045      8.18E-09 Convergence criterion met
 ---------------------------------------
 SCF time:  CPU 1.54 s  wall 2.99 s
 SCF   energy in the final basis set = -78.03955100
 Total energy in the final basis set = -78.03955100
Exporting Density Matrix to file 'Densmat_SCF.txt'.
Export successful
================================================================================
|                                                                              |
|                                 A D C  M A N                                 |
|                                                                              |
 ------------------------------------------------------------------------------ 
|                                                                              |
| Components:                                                                  |
|                                                                              |
| - libvmm - 1.3-trunk                                                         |
|   Authors:                                                                   |
|   Evgeny Epifanovsky, Ilya Kaliman                                           |
|                                                                              |
| - libtensor - 2.5-trunk                                                      |
|   Authors:                                                                   |
|   Evgeny Epifanovsky, Michael Wormit, Dmitry Zuev, Sam Manzer,               |
|   Ilya Kaliman                                                               |
|                                                                              |
| - libwfa - 1.1-trunk                                                         |
|   Authors:                                                                   |
|   Felix Plasser, Stefanie Mewes (Baeppler), Benjamin Thomitzni,              |
|   Michael Wormit, Feng Chen, Anna I. Krylov, Pavel Pokhilko                  |
|                                                                              |
| - libadc - 1.1-trunk                                                         |
|   Authors:                                                                   |
|   Michael Wormit, Adrian L. Dempwolff, Philipp H. P. Harbach,                |
|   Caroline Krauter, Dirk Rehn, Matthias Schneider, Jan Wenzel                |
|                                                                              |
| - adcman - 2.6-trunk                                                         |
|   Authors:                                                                   |
|   Michael Wormit, Adrian L. Dempwolff, Philipp H. P. Harbach,                |
|   Caroline Krauter, Daniel Lefrancois, Jan-Michael Mewes, Dirk Rehn,         |
|   Matthias Schneider, Jan Wenzel, Andreas Dreuw                              |
|                                                                              |
| Authors of earlier versions of ADCMAN:                                       |
| Andreas Dreuw, Jan Hendrik Starcke, Dirk Rehn, Michael Wormit                |
|                                                                              |
================================================================================

 Created directory /scratch/fum/qchem8777/plots
  Import QC data ...  CPU 0.00 s  wall 0.00 s

 Alpha MOs, Restricted
 -- Occupied --                  
-11.236 -11.234  -1.031  -0.791  -0.642  -0.580  -0.507  -0.372
  1 A     2 A     3 A     4 A     5 A     6 A     7 A     8 A                  
 -- Virtual --                   
  0.167   0.204   0.234   0.240   0.303   0.460   0.578   0.615
  9 A    10 A    11 A    12 A    13 A    14 A    15 A    16 A                  
  0.691   0.710   0.783   0.807   0.864   0.936   0.969   1.010
 17 A    18 A    19 A    20 A    21 A    22 A    23 A    24 A                  
  1.131   1.232   1.255   1.264   1.292   1.604   1.724   1.750
 25 A    26 A    27 A    28 A    29 A    30 A    31 A    32 A                  
  1.819   1.857   1.866   1.922   1.976   1.981   2.217   2.254
 33 A    34 A    35 A    36 A    37 A    38 A    39 A    40 A                  
  2.376   2.456   2.504   2.628   2.727   2.823   3.144   3.394
 41 A    42 A    43 A    44 A    45 A    46 A    47 A    48 A                  

 Beta MOs, Restricted
 -- Occupied --                  
-11.236 -11.234  -1.031  -0.791  -0.642  -0.580  -0.507  -0.372
  1 A     2 A     3 A     4 A     5 A     6 A     7 A     8 A                  
 -- Virtual --                   
  0.167   0.204   0.234   0.240   0.303   0.460   0.578   0.615
  9 A    10 A    11 A    12 A    13 A    14 A    15 A    16 A                  
  0.691   0.710   0.783   0.807   0.864   0.936   0.969   1.010
 17 A    18 A    19 A    20 A    21 A    22 A    23 A    24 A                  
  1.131   1.232   1.255   1.264   1.292   1.604   1.724   1.750
 25 A    26 A    27 A    28 A    29 A    30 A    31 A    32 A                  
  1.819   1.857   1.866   1.922   1.976   1.981   2.217   2.254
 33 A    34 A    35 A    36 A    37 A    38 A    39 A    40 A                  
  2.376   2.456   2.504   2.628   2.727   2.823   3.144   3.394
 41 A    42 A    43 A    44 A    45 A    46 A    47 A    48 A                  
  Import AO data ...  CPU 0.00 s  wall 0.00 s
  Using point group: C1
  Irreducible representations in point group: A
  Molecular orbitals: 
  Occupied MOs:
  Block   0:   1 (  A) A   2 (  A) A   3 (  A) A   4 (  A) A   5 (  A) A
                  -11.24      -11.23      -1.031     -0.7909     -0.6415
               6 (  A) A   7 (  A) A   8 (  A) A
                 -0.5803     -0.5066     -0.3723
  Block   1:   1 (  A) B   2 (  A) B   3 (  A) B   4 (  A) B   5 (  A) B
                  -11.24      -11.23      -1.031     -0.7909     -0.6415
               6 (  A) B   7 (  A) B   8 (  A) B
                 -0.5803     -0.5066     -0.3723
  Virtual MOs:
  Block   0:   9 (  A) A  10 (  A) A  11 (  A) A  12 (  A) A  13 (  A) A
                  0.1668      0.2036      0.2335      0.2396      0.3029
              14 (  A) A  15 (  A) A  16 (  A) A  17 (  A) A  18 (  A) A
                  0.4604      0.5784      0.6154      0.6906      0.7095
              19 (  A) A  20 (  A) A  21 (  A) A  22 (  A) A
                   0.783      0.8072      0.8638      0.9357
  Block   1:  23 (  A) A  24 (  A) A  25 (  A) A  26 (  A) A  27 (  A) A
                  0.9691        1.01       1.131       1.232       1.255
              28 (  A) A  29 (  A) A  30 (  A) A  31 (  A) A  32 (  A) A
                   1.264       1.292       1.604       1.724        1.75
              33 (  A) A  34 (  A) A  35 (  A) A  36 (  A) A
                   1.819       1.857       1.866       1.922
  Block   2:  37 (  A) A  38 (  A) A  39 (  A) A  40 (  A) A  41 (  A) A
                   1.976       1.981       2.217       2.254       2.376
              42 (  A) A  43 (  A) A  44 (  A) A  45 (  A) A  46 (  A) A
                   2.456       2.504       2.628       2.727       2.823
              47 (  A) A  48 (  A) A
                   3.144       3.394
  Block   3:   9 (  A) B  10 (  A) B  11 (  A) B  12 (  A) B  13 (  A) B
                  0.1668      0.2036      0.2335      0.2396      0.3029
              14 (  A) B  15 (  A) B  16 (  A) B  17 (  A) B  18 (  A) B
                  0.4604      0.5784      0.6154      0.6906      0.7095
              19 (  A) B  20 (  A) B  21 (  A) B  22 (  A) B
                   0.783      0.8072      0.8638      0.9357
  Block   4:  23 (  A) B  24 (  A) B  25 (  A) B  26 (  A) B  27 (  A) B
                  0.9691        1.01       1.131       1.232       1.255
              28 (  A) B  29 (  A) B  30 (  A) B  31 (  A) B  32 (  A) B
                   1.264       1.292       1.604       1.724        1.75
              33 (  A) B  34 (  A) B  35 (  A) B  36 (  A) B
                   1.819       1.857       1.866       1.922
  Block   5:  37 (  A) B  38 (  A) B  39 (  A) B  40 (  A) B  41 (  A) B
                   1.976       1.981       2.217       2.254       2.376
              42 (  A) B  43 (  A) B  44 (  A) B  45 (  A) B  46 (  A) B
                   2.456       2.504       2.628       2.727       2.823
              47 (  A) B  48 (  A) B
                   3.144       3.394
  Import MO data ...  CPU 0.01 s  wall 0.00 s
  Import HF data ...  CPU 0.08 s  wall 0.03 s
  Import 2e integrals ...  CPU 0.68 s  wall 0.13 s

--------------------------------------------------------------------------------
                                   HF Summary                                   
--------------------------------------------------------------------------------
  Energy:                                                  -78.0395510045 a.u.
  Dip. moment [a.u.]:                  [  -0.002017,   -0.000210,    0.000021]
  Total dipole [Debye]:                                               0.005156
  <r^2> [a.u.]:                        [ 175.331873,   35.117463,   11.639691]
  Total <r^2> [a.u.]:                                               222.089027
--------------------------------------------------------------------------------
  HF properties ...  CPU 0.01 s  wall 0.01 s
  MP(1) calculation ...  CPU 0.01 s  wall 0.00 s
  N^6 prerequesite intermediates ...  CPU 0.51 s  wall 0.08 s
  Difference density matrix of state mp2_gs printed to ASCII file 'State_mp2_gs_Difference.txt'
Exporting MP density matrix to file 'Densmat_MP.txt'.
Export successful
  Total density matrix of state mp2_gs printed to ASCII file 'State_mp2_gs_Total.txt'
Exporting MP density matrix to file 'Densmat_MP.txt'.
Export successful

--------------------------------------------------------------------------------
                                 MP(2) Summary                                  
--------------------------------------------------------------------------------
  MP energy contribution:                                   -0.2800095483 a.u.
  Total energy:                                            -78.3195605528 a.u.
  Dip. moment [a.u.]:                  [  -0.001682,   -0.000101,    0.000042]
  Total dipole [Debye]:                                               0.004283
  <r^2> [a.u.]:                        [ 175.377532,   35.159918,   11.467309]
  Total <r^2> [a.u.]:                                               222.004759

  Density matrix analysis:
  ------------------------
  NOs
    Occupation of frontier NOs:
       0.0459   1.9377
    Number of electrons: 16.000000
    Number of unpaired electrons: n_u =  0.40477, n_u,nl =  0.04557
    NO participation ratio (PR_NO): 13.792947
  
  
  Mulliken Population Analysis
  Atom      Charge (e)              h+              e-           Del q
  --------------------------------------------------------------------
   1 H        0.051780        0.014005       -0.011196        0.002810
   2 C       -0.097989        0.093595       -0.099231       -0.005636
   3 H        0.049244        0.014132       -0.011182        0.002949
   4 C       -0.104567        0.093664       -0.099597       -0.005932
   5 H        0.050856        0.014092       -0.011201        0.002890
   6 H        0.050677        0.014113       -0.011194        0.002919
  --------------------------------------------------------------------
  Sum:       -0.000000        0.243601       -0.243601       -0.000000
  
  Multipole moment analysis of the density matrix
    Molecular charge:                      -0.000000
    Number of electrons:                   16.000000
      Center of electronic charge [Ang]: [ -1.560521,  -0.069349,   0.001977]
    Total nuclear charge:                  16.000000
      Center of nuclear charge [Ang]:    [ -1.560576,  -0.069352,   0.001978]
    Dipole moment [D]:                     0.004283
      Cartesian components [D]:          [ -0.004274,  -0.000257,   0.000107]
    RMS size of the density [Ang]:         1.202265
      Cartesian components [Ang]:        [  0.796364,   0.781378,   0.447989]
  
  Exciton analysis of the difference density matrix
    <r_h> [Ang]:                  [ -1.560212,  -0.068396,   0.002027]
    <r_e> [Ang]:                  [ -1.560941,  -0.068632,   0.001981]
    |<r_e - r_h>| [Ang]:            0.000768
    Hole size [Ang]:                1.395812
      Cartesian components [Ang]: [  0.847562,   0.834176,   0.730809]
    Electron size [Ang]:            1.359822
      Cartesian components [Ang]: [  0.876683,   0.862914,   0.579587]
--------------------------------------------------------------------------------
  MP(2) calculation ...  CPU 0.13 s  wall 0.11 s
  Start ADC(2)-s ...  CPU 0.01 s  wall 0.00 s
  ADC(2) intermediates ...  CPU 0.02 s  wall 0.01 s
  Starting Davidson for singlet states of irrep A ... 
--------------------------------------------------------------------------------
   It NVec Conv  Avg. Norm  Max. Norm  Conv. states           Remark
--------------------------------------------------------------------------------
        10    0  1.329e-01  4.677e-01  0.4105 n n n n n n n n Guess.
    1   20    0  2.314e-02  1.118e-01  0.3241 n n n n n n n n 
    2   30    0  5.949e-03  2.706e-02  0.3193 n n n n n n n n 
    3   40    0  2.121e-03  1.520e-02  0.3189 n n n n n n n n 
    4   50    0  6.482e-04  4.897e-03  0.3189 n n n n n n n n 
    5   20    0  2.739e-04  1.956e-03  0.3189 n n n n n n n n Subspace collapsed.
    6   30    0  1.908e-04  1.696e-03  0.3189 n n n n n n n n 
    7   40    0  1.692e-04  1.575e-03  0.3189 n n n n n n n n 
    8   50    0  1.229e-04  1.174e-03  0.3189 n n n n n n n n 
    9   20    2  8.295e-05  7.929e-04  0.3189 n y n y n n n n Subspace collapsed.
   10   30    3  6.769e-05  6.561e-04  0.3189 n y y y n n n n 
   11   40    5  9.976e-05  9.945e-04  0.3189 n y y y y y n n 
   12   50    5  8.348e-05  8.341e-04  0.3189 n y y y y y n n 
   13   20    6  4.756e-05  4.753e-04  0.3189 y y y y y y n n Subspace collapsed.
   14   30    6  3.400e-05  3.398e-04  0.3189 y y y y y y n n 
   15   40    6  2.216e-05  2.214e-04  0.3189 y y y y y y n n 
   16   50    6  2.691e-05  2.691e-04  0.3189 y y y y y y n n 
   17   20    7  1.463e-05  1.463e-04  0.3189 y y y y y y n y Subspace collapsed.
   18   30    8  1.969e-05  1.969e-04  0.3189 y y y y y y y y 
   19   40    8  2.280e-05  2.280e-04  0.3189 y y y y y y y y 
   20   50    9  2.263e-05  2.263e-04  0.3189 y y y y y y y y 
   21   20    9  1.187e-05  1.187e-04  0.3189 y y y y y y y y Subspace collapsed.
   22   30    9  7.266e-06  7.265e-05  0.3189 y y y y y y y y 
   23   31    9  7.301e-06  7.301e-05  0.3189 y y y y y y y y 
   24   32    9  7.285e-06  7.285e-05  0.3189 y y y y y y y y 
   25   40    9  6.053e-06  6.053e-05  0.3189 y y y y y y y y 
   26   47    9  5.679e-06  5.679e-05  0.3189 y y y y y y y y 
   27   50    9  6.176e-06  6.176e-05  0.3189 y y y y y y y y 
   28   16    9  3.602e-06  3.602e-05  0.3189 y y y y y y y y Subspace collapsed.
   29   21    9  4.243e-06  4.243e-05  0.3189 y y y y y y y y 
   30   26    9  5.143e-06  5.143e-05  0.3189 y y y y y y y y 
   31   26    9  5.143e-06  5.143e-05  0.3189 y y y y y y y y 
   32   36    9  5.289e-06  5.289e-05  0.3189 y y y y y y y y 
   33   40    9  4.214e-06  4.214e-05  0.3189 y y y y y y y y 
   34   44    9  1.723e-06  1.723e-05  0.3189 y y y y y y y y 
   35   48    9  1.022e-06  1.022e-05  0.3189 y y y y y y y y 
   36   50    9  5.483e-07  5.483e-06  0.3189 y y y y y y y y 
   37   14    9  3.941e-07  3.941e-06  0.3189 y y y y y y y y Subspace collapsed.
   38   18    9  3.241e-07  3.241e-06  0.3189 y y y y y y y y 
   39   22    9  2.189e-07  2.189e-06  0.3189 y y y y y y y y 
   40   26    9  1.046e-07  1.046e-06  0.3189 y y y y y y y y 
   41   30   10  6.063e-08  6.063e-07  0.3189 y y y y y y y y Converged.
--------------------------------------------------------------------------------
  Davidson Summary: 
 ------------------------------------------------------------
  State  0: excitation energy =   0.3189 a.u.   (converged)
  State  1: excitation energy =   0.3328 a.u.   (converged)
  State  2: excitation energy =   0.3359 a.u.   (converged)
  State  3: excitation energy =   0.3613 a.u.   (converged)
  State  4: excitation energy =   0.3735 a.u.   (converged)
  State  5: excitation energy =   0.3853 a.u.   (converged)
  State  6: excitation energy =   0.4262 a.u.   (converged)
  State  7: excitation energy =   0.4458 a.u.   (converged)
  State  8: excitation energy =   0.4550 a.u.   (converged)
  State  9: excitation energy =   0.4669 a.u.   (converged)
 ------------------------------------------------------------

  Singlet states of irrep A ...  CPU 94.25 s  wall 33.03 s
  TDMs ...  CPU 0.73 s  wall 0.29 s
  SDMs ...  CPU 1.48 s  wall 0.52 s
  Starting TPA DIIS iterations ... 
------------------------------------ 
   It     Res. Norm  Remark
------------------------------------
                       Guess.
    1     4.465e+00  
    2     5.951e+00  
    3     1.089e+00  
    4     2.634e-01  
    5     6.796e-02  
    6     2.749e-02  
    7     8.399e-03  
    8     1.453e-03  
    9     5.345e-04  
   10     9.070e-05  
   11     2.828e-05  
   12     4.416e-06  
   13     1.381e-06  
   14     4.300e-07  Converged.
   ... Converged in 14 steps (norm: 4.30008e-07)
------------------------------------
  Starting TPA DIIS iterations ... 
------------------------------------ 
   It     Res. Norm  Remark
------------------------------------
                       Guess.
    1     4.298e+00  
    2     5.714e+00  
    3     1.041e+00  
    4     2.579e-01  
    5     6.739e-02  
    6     2.690e-02  
    7     8.213e-03  
    8     1.415e-03  
    9     5.232e-04  
   10     8.833e-05  
   11     2.736e-05  
   12     4.261e-06  
   13     1.360e-06  
   14     4.233e-07  Converged.
   ... Converged in 14 steps (norm: 4.23345e-07)
------------------------------------
  Starting TPA DIIS iterations ... 
------------------------------------ 
   It     Res. Norm  Remark
------------------------------------
                       Guess.
    1     6.883e-01  
    2     4.838e-01  
    3     1.708e-01  
    4     5.919e-02  
    5     1.842e-02  
    6     6.667e-03  
    7     1.038e-03  
    8     4.386e-04  
    9     1.273e-04  
   10     2.424e-05  
   11     8.631e-06  
   12     2.765e-06  
   13     1.855e-06  
   14     7.849e-07  Converged.
   ... Converged in 14 steps (norm: 7.84934e-07)
------------------------------------
  Starting TPA DIIS iterations ... 
------------------------------------ 
   It     Res. Norm  Remark
------------------------------------
                       Guess.
    1     4.821e+00  
    2     6.594e+00  
    3     1.189e+00  
    4     2.993e-01  
    5     7.845e-02  
    6     3.205e-02  
    7     9.766e-03  
    8     1.686e-03  
    9     6.258e-04  
   10     1.069e-04  
   11     3.374e-05  
   12     5.319e-06  
   13     1.677e-06  
   14     5.232e-07  Converged.
   ... Converged in 14 steps (norm: 5.23153e-07)
------------------------------------
  Starting TPA DIIS iterations ... 
------------------------------------ 
   It     Res. Norm  Remark
------------------------------------
                       Guess.
    1     4.640e+00  
    2     6.332e+00  
    3     1.136e+00  
    4     2.928e-01  
    5     7.782e-02  
    6     3.136e-02  
    7     9.549e-03  
    8     1.642e-03  
    9     6.125e-04  
   10     1.041e-04  
   11     3.261e-05  
   12     5.130e-06  
   13     1.654e-06  
   14     5.164e-07  Converged.
   ... Converged in 14 steps (norm: 5.16441e-07)
------------------------------------
  Starting TPA DIIS iterations ... 
------------------------------------ 
   It     Res. Norm  Remark
------------------------------------
                       Guess.
    1     7.027e-01  
    2     5.048e-01  
    3     1.828e-01  
    4     6.870e-02  
    5     2.014e-02  
    6     7.413e-03  
    7     1.202e-03  
    8     5.320e-04  
    9     1.581e-04  
   10     2.738e-05  
   11     1.032e-05  
   12     3.392e-06  
   13     2.423e-06  
   14     1.043e-06  
   15     4.210e-07  Converged.
   ... Converged in 15 steps (norm: 4.20997e-07)
------------------------------------
  Starting TPA DIIS iterations ... 
------------------------------------ 
   It     Res. Norm  Remark
------------------------------------
                       Guess.
    1     4.906e+00  
    2     6.751e+00  
    3     1.213e+00  
    4     3.082e-01  
    5     8.106e-02  
    6     3.319e-02  
    7     1.011e-02  
    8     1.744e-03  
    9     6.486e-04  
   10     1.109e-04  
   11     3.512e-05  
   12     5.547e-06  
   13     1.752e-06  
   14     5.469e-07  Converged.
   ... Converged in 14 steps (norm: 5.46886e-07)
------------------------------------
  Starting TPA DIIS iterations ... 
------------------------------------ 
   It     Res. Norm  Remark
------------------------------------
                       Guess.
    1     4.722e+00  
    2     6.483e+00  
    3     1.159e+00  
    4     3.014e-01  
    5     8.041e-02  
    6     3.248e-02  
    7     9.881e-03  
    8     1.698e-03  
    9     6.348e-04  
   10     1.080e-04  
   11     3.394e-05  
   12     5.350e-06  
   13     1.729e-06  
   14     5.402e-07  Converged.
   ... Converged in 14 steps (norm: 5.40233e-07)
------------------------------------
  Starting TPA DIIS iterations ... 
------------------------------------ 
   It     Res. Norm  Remark
------------------------------------
                       Guess.
    1     7.060e-01  
    2     5.097e-01  
    3     1.856e-01  
    4     7.111e-02  
    5     2.055e-02  
    6     7.598e-03  
    7     1.243e-03  
    8     5.559e-04  
    9     1.659e-04  
   10     2.798e-05  
   11     1.075e-05  
   12     3.556e-06  
   13     2.575e-06  
   14     1.114e-06  
   15     4.472e-07  Converged.
   ... Converged in 15 steps (norm: 4.47174e-07)
------------------------------------
  Starting TPA DIIS iterations ... 
------------------------------------ 
   It     Res. Norm  Remark
------------------------------------
                       Guess.
    1     5.709e+00  
    2     8.260e+00  
    3     1.436e+00  
    4     3.965e-01  
    5     1.069e-01  
    6     4.457e-02  
    7     1.347e-02  
    8     2.314e-03  
    9     8.759e-04  
   10     1.513e-04  
   11     4.916e-05  
   12     7.874e-06  
   13     2.535e-06  
   14     7.945e-07  Converged.
   ... Converged in 14 steps (norm: 7.94543e-07)
------------------------------------
  Starting TPA DIIS iterations ... 
------------------------------------ 
   It     Res. Norm  Remark
------------------------------------
                       Guess.
    1     5.492e+00  
    2     7.931e+00  
    3     1.372e+00  
    4     3.869e-01  
    5     1.060e-01  
    6     4.362e-02  
    7     1.317e-02  
    8     2.253e-03  
    9     8.572e-04  
   10     1.473e-04  
   11     4.744e-05  
   12     7.592e-06  
   13     2.510e-06  
   14     7.899e-07  Converged.
   ... Converged in 14 steps (norm: 7.89929e-07)
------------------------------------
  Starting TPA DIIS iterations ... 
------------------------------------ 
   It     Res. Norm  Remark
------------------------------------
                       Guess.
    1     7.341e-01  
    2     5.533e-01  
    3     2.115e-01  
    4     9.572e-02  
    5     2.432e-02  
    6     9.438e-03  
    7     1.669e-03  
    8     7.963e-04  
    9     2.443e-04  
   10     3.152e-05  
   11     1.523e-05  
   12     5.360e-06  
   13     4.287e-06  
   14     1.938e-06  
   15     7.129e-07  Converged.
   ... Converged in 15 steps (norm: 7.12894e-07)
------------------------------------
  Starting TPA DIIS iterations ... 
------------------------------------ 
   It     Res. Norm  Remark
------------------------------------
                       Guess.
    1     6.176e+00  
    2     9.169e+00  
    3     1.565e+00  
    4     4.515e-01  
    5     1.230e-01  
    6     5.175e-02  
    7     1.557e-02  
    8     2.668e-03  
    9     1.019e-03  
   10     1.768e-04  
   11     5.819e-05  
   12     9.370e-06  
   13     3.050e-06  
   14     9.610e-07  Converged.
   ... Converged in 14 steps (norm: 9.60975e-07)
------------------------------------
  Starting TPA DIIS iterations ... 
------------------------------------ 
   It     Res. Norm  Remark
------------------------------------
                       Guess.
    1     5.940e+00  
    2     8.803e+00  
    3     1.496e+00  
    4     4.401e-01  
    5     1.220e-01  
    6     5.065e-02  
    7     1.522e-02  
    8     2.598e-03  
    9     9.973e-04  
   10     1.721e-04  
   11     5.612e-05  
   12     9.036e-06  
   13     3.026e-06  
   14     9.588e-07  Converged.
   ... Converged in 14 steps (norm: 9.58821e-07)
------------------------------------
  Starting TPA DIIS iterations ... 
------------------------------------ 
   It     Res. Norm  Remark
------------------------------------
                       Guess.
    1     7.485e-01  
    2     5.770e-01  
    3     2.260e-01  
    4     1.117e-01  
    5     2.653e-02  
    6     1.059e-02  
    7     1.949e-03  
    8     9.408e-04  
    9     2.914e-04  
   10     3.327e-05  
   11     1.825e-05  
   12     6.657e-06  
   13     5.543e-06  
   14     2.554e-06  
   15     8.941e-07  Converged.
   ... Converged in 15 steps (norm: 8.94108e-07)
------------------------------------
  Starting TPA DIIS iterations ... 
------------------------------------ 
   It     Res. Norm  Remark
------------------------------------
                       Guess.
    1     6.689e+00  
    2     1.019e+01  
    3     1.706e+00  
    4     5.148e-01  
    5     1.415e-01  
    6     6.007e-02  
    7     1.798e-02  
    8     3.074e-03  
    9     1.185e-03  
   10     2.063e-04  
   11     6.872e-05  
   12     1.112e-05  
   13     3.658e-06  
   14     1.164e-06  
   15     3.706e-07  Converged.
   ... Converged in 15 steps (norm: 3.70591e-07)
------------------------------------
  Starting TPA DIIS iterations ... 
------------------------------------ 
   It     Res. Norm  Remark
------------------------------------
                       Guess.
    1     6.433e+00  
    2     9.783e+00  
    3     1.630e+00  
    4     5.012e-01  
    5     1.404e-01  
    6     5.880e-02  
    7     1.757e-02  
    8     2.993e-03  
    9     1.159e-03  
   10     2.008e-04  
   11     6.625e-05  
   12     1.072e-05  
   13     3.640e-06  
   14     1.166e-06  
   15     4.107e-07  Converged.
   ... Converged in 15 steps (norm: 4.10692e-07)
------------------------------------
  Starting TPA DIIS iterations ... 
------------------------------------ 
   It     Res. Norm  Remark
------------------------------------
                       Guess.
    1     7.630e-01  
    2     6.017e-01  
    3     2.415e-01  
    4     1.304e-01  
    5     2.901e-02  
    6     1.193e-02  
    7     2.282e-03  
    8     1.094e-03  
    9     3.425e-04  
   10     3.634e-05  
   11     2.193e-05  
   12     8.310e-06  
   13     7.162e-06  
   14     3.345e-06  
   15     1.132e-06  
   16     4.964e-07  Converged.
   ... Converged in 16 steps (norm: 4.96381e-07)
------------------------------------
  Starting TPA DIIS iterations ... 
------------------------------------ 
   It     Res. Norm  Remark
------------------------------------
                       Guess.
    1     9.121e+00  
    2     1.534e+01  
    3     2.362e+00  
    4     8.486e-01  
    5     2.394e-01  
    6     1.050e-01  
    7     3.074e-02  
    8     5.207e-03  
    9     2.076e-03  
   10     3.640e-04  
   11     1.248e-04  
   12     2.057e-05  
   13     6.939e-06  
   14     2.473e-06  
   15     7.653e-07  Converged.
   ... Converged in 15 steps (norm: 7.65303e-07)
------------------------------------
  Starting TPA DIIS iterations ... 
------------------------------------ 
   It     Res. Norm  Remark
------------------------------------
                       Guess.
    1     8.767e+00  
    2     1.473e+01  
    3     2.255e+00  
    4     8.221e-01  
    5     2.377e-01  
    6     1.028e-01  
    7     3.002e-02  
    8     5.064e-03  
    9     2.032e-03  
   10     3.542e-04  
   11     1.205e-04  
   12     1.988e-05  
   13     7.036e-06  
   14     2.502e-06  
   15     9.056e-07  Converged.
   ... Converged in 15 steps (norm: 9.05553e-07)
------------------------------------
  Starting TPA DIIS iterations ... 
------------------------------------ 
   It     Res. Norm  Remark
------------------------------------
                       Guess.
    1     8.179e-01  
    2     7.057e-01  
    3     3.104e-01  
    4     2.315e-01  
    5     4.180e-02  
    6     1.888e-02  
    7     4.171e-03  
    8     1.614e-03  
    9     5.675e-04  
   10     7.093e-05  
   11     4.451e-05  
   12     1.981e-05  
   13     1.875e-05  
   14     8.564e-06  
   15     3.093e-06  
   16     1.342e-06  
   17     3.058e-07  Converged.
   ... Converged in 17 steps (norm: 3.05842e-07)
------------------------------------
  Starting TPA DIIS iterations ... 
------------------------------------ 
   It     Res. Norm  Remark
------------------------------------
                       Guess.
    1     1.083e+01  
    2     1.924e+01  
    3     2.809e+00  
    4     1.108e+00  
    5     3.164e-01  
    6     1.412e-01  
    7     4.077e-02  
    8     6.872e-03  
    9     2.790e-03  
   10     4.890e-04  
   11     1.676e-04  
   12     2.821e-05  
   13     9.461e-06  
   14     3.773e-06  
   15     1.158e-06  
   16     7.331e-07  Converged.
   ... Converged in 16 steps (norm: 7.33059e-07)
------------------------------------
  Starting TPA DIIS iterations ... 
------------------------------------ 
   It     Res. Norm  Remark
------------------------------------
                       Guess.
    1     1.041e+01  
    2     1.846e+01  
    3     2.682e+00  
    4     1.071e+00  
    5     3.142e-01  
    6     1.383e-01  
    7     3.979e-02  
    8     6.680e-03  
    9     2.730e-03  
   10     4.757e-04  
   11     1.623e-04  
   12     2.728e-05  
   13     9.746e-06  
   14     3.829e-06  
   15     1.395e-06  
   16     7.728e-07  Converged.
   ... Converged in 16 steps (norm: 7.72754e-07)
------------------------------------
  Starting TPA DIIS iterations ... 
------------------------------------ 
   It     Res. Norm  Remark
------------------------------------
                       Guess.
    1     8.476e-01  
    2     7.693e-01  
    3     3.548e-01  
    4     3.071e-01  
    5     5.159e-02  
    6     2.398e-02  
    7     5.704e-03  
    8     1.781e-03  
    9     7.114e-04  
   10     1.043e-04  
   11     6.505e-05  
   12     3.163e-05  
   13     3.122e-05  
   14     1.346e-05  
   15     5.312e-06  
   16     2.144e-06  
   17     4.530e-07  Converged.
   ... Converged in 17 steps (norm: 4.52981e-07)
------------------------------------
  Starting TPA DIIS iterations ... 
------------------------------------ 
   It     Res. Norm  Remark
------------------------------------
                       Guess.
    1     1.182e+01  
    2     2.158e+01  
    3     3.063e+00  
    4     1.265e+00  
    5     3.636e-01  
    6     1.637e-01  
    7     4.690e-02  
    8     7.887e-03  
    9     3.230e-03  
   10     5.655e-04  
   11     1.929e-04  
   12     3.302e-05  
   13     1.102e-05  
   14     4.669e-06  
   15     1.463e-06  
   16     9.887e-07  Converged.
   ... Converged in 16 steps (norm: 9.88746e-07)
------------------------------------
  Starting TPA DIIS iterations ... 
------------------------------------ 
   It     Res. Norm  Remark
------------------------------------
                       Guess.
    1     1.135e+01  
    2     2.071e+01  
    3     2.925e+00  
    4     1.221e+00  
    5     3.610e-01  
    6     1.603e-01  
    7     4.577e-02  
    8     7.665e-03  
    9     3.161e-03  
   10     5.501e-04  
   11     1.873e-04  
   12     3.191e-05  
   13     1.144e-05  
   14     4.752e-06  
   15     1.753e-06  
   16     1.022e-06  
   17     2.339e-07  Converged.
   ... Converged in 17 steps (norm: 2.33926e-07)
------------------------------------
  Starting TPA DIIS iterations ... 
------------------------------------ 
   It     Res. Norm  Remark
------------------------------------
                       Guess.
    1     8.625e-01  
    2     8.036e-01  
    3     3.793e-01  
    4     3.496e-01  
    5     5.744e-02  
    6     2.685e-02  
    7     6.633e-03  
    8     1.838e-03  
    9     7.913e-04  
   10     1.246e-04  
   11     7.852e-05  
   12     3.984e-05  
   13     4.028e-05  
   14     1.669e-05  
   15     6.887e-06  
   16     2.678e-06  
   17     5.486e-07  Converged.
   ... Converged in 17 steps (norm: 5.48606e-07)
------------------------------------
  Starting TPA DIIS iterations ... 
------------------------------------ 
   It     Res. Norm  Remark
------------------------------------
                       Guess.
    1     1.331e+01  
    2     2.524e+01  
    3     3.442e+00  
    4     1.511e+00  
    5     4.381e-01  
    6     1.995e-01  
    7     5.659e-02  
    8     9.489e-03  
    9     3.932e-03  
   10     6.865e-04  
   11     2.323e-04  
   12     4.089e-05  
   13     1.363e-05  
   14     6.226e-06  
   15     2.071e-06  
   16     1.477e-06  
   17     5.763e-07  Converged.
   ... Converged in 17 steps (norm: 5.76271e-07)
------------------------------------
  Starting TPA DIIS iterations ... 
------------------------------------ 
   It     Res. Norm  Remark
------------------------------------
                       Guess.
    1     1.279e+01  
    2     2.422e+01  
    3     3.286e+00  
    4     1.455e+00  
    5     4.351e-01  
    6     1.953e-01  
    7     5.522e-02  
    8     9.219e-03  
    9     3.849e-03  
   10     6.679e-04  
   11     2.262e-04  
   12     3.946e-05  
   13     1.426e-05  
   14     6.376e-06  
   15     2.427e-06  
   16     1.484e-06  
   17     3.287e-07  Converged.
   ... Converged in 17 steps (norm: 3.28728e-07)
------------------------------------
  Starting TPA DIIS iterations ... 
------------------------------------ 
   It     Res. Norm  Remark
------------------------------------
                       Guess.
    1     8.827e-01  
    2     8.527e-01  
    3     4.150e-01  
    4     4.100e-01  
    5     6.651e-02  
    6     3.098e-02  
    7     8.073e-03  
    8     1.909e-03  
    9     9.096e-04  
   10     1.558e-04  
   11     1.010e-04  
   12     5.406e-05  
   13     5.689e-05  
   14     2.208e-05  
   15     9.671e-06  
   16     3.585e-06  
   17     7.192e-07  Converged.
   ... Converged in 17 steps (norm: 7.19213e-07)
------------------------------------
  Two-photon absorbption ...  CPU 70.43 s  wall 18.17 s
  Transition density matrix of state singlet_A_1 printed to ASCII file 'State_singlet_A_1_Transition.txt'
  Transition density matrix of state singlet_A_2 printed to ASCII file 'State_singlet_A_2_Transition.txt'
  Transition density matrix of state singlet_A_3 printed to ASCII file 'State_singlet_A_3_Transition.txt'
  Transition density matrix of state singlet_A_4 printed to ASCII file 'State_singlet_A_4_Transition.txt'
  Transition density matrix of state singlet_A_5 printed to ASCII file 'State_singlet_A_5_Transition.txt'
  Transition density matrix of state singlet_A_6 printed to ASCII file 'State_singlet_A_6_Transition.txt'
  Transition density matrix of state singlet_A_7 printed to ASCII file 'State_singlet_A_7_Transition.txt'
  Transition density matrix of state singlet_A_8 printed to ASCII file 'State_singlet_A_8_Transition.txt'
  Transition density matrix of state singlet_A_9 printed to ASCII file 'State_singlet_A_9_Transition.txt'
  Transition density matrix of state singlet_A_10 printed to ASCII file 'State_singlet_A_10_Transition.txt'
  Transition properties ...  CPU 0.16 s  wall 0.33 s
  Difference density matrix of state singlet_A_1 printed to ASCII file 'State_singlet_A_1_Difference.txt'
  Total density matrix of state singlet_A_1 printed to ASCII file 'State_singlet_A_1_Total.txt'
  Difference density matrix of state singlet_A_2 printed to ASCII file 'State_singlet_A_2_Difference.txt'
  Total density matrix of state singlet_A_2 printed to ASCII file 'State_singlet_A_2_Total.txt'
  Difference density matrix of state singlet_A_3 printed to ASCII file 'State_singlet_A_3_Difference.txt'
  Total density matrix of state singlet_A_3 printed to ASCII file 'State_singlet_A_3_Total.txt'
  Difference density matrix of state singlet_A_4 printed to ASCII file 'State_singlet_A_4_Difference.txt'
  Total density matrix of state singlet_A_4 printed to ASCII file 'State_singlet_A_4_Total.txt'
  Difference density matrix of state singlet_A_5 printed to ASCII file 'State_singlet_A_5_Difference.txt'
  Total density matrix of state singlet_A_5 printed to ASCII file 'State_singlet_A_5_Total.txt'
  Difference density matrix of state singlet_A_6 printed to ASCII file 'State_singlet_A_6_Difference.txt'
  Total density matrix of state singlet_A_6 printed to ASCII file 'State_singlet_A_6_Total.txt'
  Difference density matrix of state singlet_A_7 printed to ASCII file 'State_singlet_A_7_Difference.txt'
  Total density matrix of state singlet_A_7 printed to ASCII file 'State_singlet_A_7_Total.txt'
  Difference density matrix of state singlet_A_8 printed to ASCII file 'State_singlet_A_8_Difference.txt'
  Total density matrix of state singlet_A_8 printed to ASCII file 'State_singlet_A_8_Total.txt'
  Difference density matrix of state singlet_A_9 printed to ASCII file 'State_singlet_A_9_Difference.txt'
  Total density matrix of state singlet_A_9 printed to ASCII file 'State_singlet_A_9_Total.txt'
  Difference density matrix of state singlet_A_10 printed to ASCII file 'State_singlet_A_10_Difference.txt'
  Total density matrix of state singlet_A_10 printed to ASCII file 'State_singlet_A_10_Total.txt'
  Properties ...  CPU 0.31 s  wall 0.54 s
  ISR TDMS ...  CPU 8.93 s  wall 3.18 s
  ISR transition properties ...  CPU 0.18 s  wall 0.09 s
  Sum-over-states TPA ...  CPU 0.00 s  wall 0.00 s

--------------------------------------------------------------------------------
                   State-averaged natural transition orbitals
--------------------------------------------------------------------------------
--------------------------------------------------------------------------------
  SA-NTO decomposition ...  CPU 0.01 s  wall 0.02 s

--------------------------------------------------------------------------------
                             Excited State Summary
--------------------------------------------------------------------------------
--------------------------------------------------------------------------------

  Excited state 1 (singlet, A)                                     [converged]
  ----------------------------------------------------------------------------
  Term symbol:  2 (1) A                                     R^2 =  1.37214e-13

  Total energy:                                            -78.0006743341 a.u.
  Excitation energy:                                               8.677335 eV

  Osc. strength:                                                      0.442521
  Trans. dip. moment [a.u.]:           [  -1.043740,    0.996040,    0.008669]
  <i|r^2|0> [a.u.]:                    [  -6.150082,    0.256816,   -0.000274]
  Two-photon absorption cross-section (SoS) [a.u.]:                   0.003034
  Two-photon absorption matrix (SoS) [a.u.]:
                                       |   -0.004478   -0.006054   -0.000621 |
                                       |   -0.006054   -0.019170   -0.001722 |
                                       |   -0.000621   -0.001722   -0.000466 |
  Two-photon absorption cross-section [a.u.]:                         0.001204
  Two-photon absorption matrix [a.u.]:
                                       |    0.013273    0.000587   -0.000716 |
                                       |    0.000587   -0.001346   -0.001866 |
                                       |   -0.000716   -0.001866    0.002706 |

  Dip. moment [a.u.]:                  [  -0.001261,   -0.000199,    0.000091]
  Total dipole [Debye]:                                               0.003252
  <r^2> [a.u.]:                        [ 176.122640,   35.855746,   11.867234]
  Total <r^2> [a.u.]:                                               223.845621

  V1^2 = 0.9715, V2^2 = 0.0285

  Important amplitudes:
      occ i     occ j     vir a      vir b          v   
    -----------------------------------------------------
     8 (A) A              9 (A) A                -0.6810
     6 (A) A             14 (A) A                -0.0637
     4 (A) A             10 (A) A                -0.0600
     7 (A) A             16 (A) A                 0.0564
     5 (A) A             13 (A) A                -0.0508
     6 (A) A             23 (A) A                -0.0487
     8 (A) A             20 (A) A                -0.0352
     6 (A) A             19 (A) A                 0.0321
     3 (A) A             12 (A) A                 0.0282
     7 (A) A             11 (A) A                -0.0216
     5 (A) A             22 (A) A                 0.0212
     4 (A) A             24 (A) A                -0.0186
     3 (A) A             26 (A) A                 0.0184
     8 (A) A   8 (A) B   17 (A) A   20 (A) B      0.0184
     8 (A) A   8 (A) B    9 (A) A   28 (A) B      0.0169
     6 (A) A             26 (A) A                -0.0162
     7 (A) A             21 (A) A                 0.0147
     3 (A) A             14 (A) A                 0.0140
     3 (A) A   4 (A) B    9 (A) A    9 (A) B      0.0129
     3 (A) A             19 (A) A                -0.0121
     6 (A) A             12 (A) A                 0.0119
     8 (A) A   8 (A) B   18 (A) A   19 (A) B      0.0113
     7 (A) A             32 (A) A                 0.0095
     7 (A) A             36 (A) A                 0.0085
     3 (A) A             23 (A) A                 0.0080
     8 (A) A   8 (A) B   25 (A) A   29 (A) B      0.0076
     6 (A) A             35 (A) A                 0.0070
     6 (A) A             40 (A) A                -0.0068
     3 (A) A   6 (A) B    9 (A) A   28 (A) B     -0.0065
     6 (A) A   8 (A) A   19 (A) A   28 (A) A      0.0062
     5 (A) A   7 (A) B    9 (A) A    9 (A) B     -0.0060
     5 (A) A   8 (A) B   11 (A) A   20 (A) B     -0.0059
     7 (A) A   8 (A) B   13 (A) A   20 (A) B     -0.0059
     5 (A) A   8 (A) B   16 (A) A    9 (A) B      0.0059
     3 (A) A   5 (A) B    9 (A) A   25 (A) B      0.0058
     6 (A) A   8 (A) A    9 (A) A   18 (A) A     -0.0057
     5 (A) A   8 (A) B   11 (A) A    9 (A) B      0.0057
     7 (A) A   8 (A) B   22 (A) A   20 (A) B      0.0057
     3 (A) A             40 (A) A                 0.0057
     8 (A) A   8 (A) B   19 (A) A   30 (A) B      0.0056
    -----------------------------------------------------

  Density matrix analysis:
  ------------------------
  NOs
    Occupation of frontier NOs:
       0.9494   1.0217
    Number of electrons: 16.000000
    Number of unpaired electrons: n_u =  2.31363, n_u,nl =  2.03285
    NO participation ratio (PR_NO):  2.864816
  
  
  Mulliken Population Analysis
  Atom      Charge (e)              h+              e-           Del q
  --------------------------------------------------------------------
   1 H        0.059158        0.019967       -0.012589        0.007378
   2 C       -0.112376        0.490499       -0.504886       -0.014387
   3 H        0.056534        0.019880       -0.012589        0.007291
   4 C       -0.119829        0.490190       -0.505453       -0.015262
   5 H        0.058381        0.020003       -0.012478        0.007525
   6 H        0.058132        0.019983       -0.012528        0.007455
  --------------------------------------------------------------------
  Sum:       -0.000000        1.060522       -1.060522        0.000000
  
  Multipole moment analysis of the density matrix
    Molecular charge:                      -0.000000
    Number of electrons:                   16.000000
      Center of electronic charge [Ang]: [ -1.560535,  -0.069346,   0.001975]
    Total nuclear charge:                  16.000000
      Center of nuclear charge [Ang]:    [ -1.560576,  -0.069352,   0.001978]
    Dipole moment [D]:                     0.003252
      Cartesian components [D]:          [ -0.003204,  -0.000507,   0.000231]
    RMS size of the density [Ang]:         1.215573
      Cartesian components [Ang]:        [  0.804482,   0.789133,   0.455734]
  
  Exciton analysis of the difference density matrix
    <r_h> [Ang]:                  [ -1.560153,  -0.070373,   0.001874]
    <r_e> [Ang]:                  [ -1.560363,  -0.070324,   0.001850]
    |<r_e - r_h>| [Ang]:            0.000217
    Hole size [Ang]:                1.286321
      Cartesian components [Ang]: [  0.727723,   0.714265,   0.784134]
    Electron size [Ang]:            1.462891
      Cartesian components [Ang]: [  0.851862,   0.833015,   0.848803]

  Transition density matrix analysis:
  -----------------------------------
  
  CT numbers (Mulliken)
    omega =     0.9535
    <Phe> =    -0.1625
  
  Exciton analysis of the transition density matrix
    Trans. dipole moment [D]:             1.833568
      Cartesian components [D]:         [ -1.326461,   1.265840,   0.011017]
    <r_h> [Ang]:                        [ -1.559841,  -0.070919,   0.001869]
    <r_e> [Ang]:                        [ -1.560384,  -0.070227,   0.001843]
    |<r_e - r_h>| [Ang]:                  0.000880
    Hole size [Ang]:                      1.216760
      Cartesian components [Ang]:       [  0.650369,   0.639485,   0.805347]
    Electron size [Ang]:                  1.484862
      Cartesian components [Ang]:       [  0.861775,   0.841595,   0.868261]
    RMS electron-hole separation [Ang]:   1.938634
      Cartesian components [Ang]:       [  1.105414,   1.080357,   1.170124]
    Covariance(r_h, r_e) [Ang^2]:        -0.036491
    Correlation coefficient:             -0.020197
    Center-of-mass size [Ang]:            0.950308
      Cartesian components [Ang]:       [  0.526624,   0.516545,   0.599110]

  Decomposition into state-averaged NTOs
    H- 0 -> L+ 0: -0.6698 ( 89.7%)
    H- 2 -> L+ 5: -0.0850 (  1.4%)
    H- 5 -> L+ 6: -0.0710 (  1.0%)
                   omega =  95.4%
  ----------------------------------------------------------------------------


  Excited state 2 (singlet, A)                                     [converged]
  ----------------------------------------------------------------------------
  Term symbol:  3 (1) A                                     R^2 =  1.13321e-13

  Total energy:                                            -77.9867220258 a.u.
  Excitation energy:                                               9.056997 eV

  Osc. strength:                                                      0.000122
  Trans. dip. moment [a.u.]:           [  -0.003540,    0.001088,    0.023129]
  <i|r^2|0> [a.u.]:                    [   0.047680,    0.081083,   -0.149507]
  Two-photon absorption cross-section (SoS) [a.u.]:                   5.149442
  Two-photon absorption matrix (SoS) [a.u.]:
                                       |    0.057829    0.060582   -0.573082 |
                                       |    0.060582    0.063458   -0.548341 |
                                       |   -0.573082   -0.548341   -0.120199 |
  Two-photon absorption cross-section [a.u.]:                         0.074863
  Two-photon absorption matrix [a.u.]:
                                       |   -0.000321   -0.006656    0.086330 |
                                       |   -0.006656   -0.012694    0.041156 |
                                       |    0.086330    0.041156    0.013136 |

  Dip. moment [a.u.]:                  [  -0.051403,   -0.007258,   -0.002586]
  Total dipole [Debye]:                                               0.132112
  <r^2> [a.u.]:                        [ 174.163325,   34.333181,   13.166853]
  Total <r^2> [a.u.]:                                               221.663359

  V1^2 = 0.9540, V2^2 = 0.0460

  Important amplitudes:
      occ i     occ j     vir a      vir b          v   
    -----------------------------------------------------
     7 (A) A              9 (A) A                 0.6676
     8 (A) A             11 (A) A                 0.1487
     7 (A) A             20 (A) A                 0.0756
     8 (A) A             10 (A) A                -0.0442
     5 (A) A   8 (A) B    9 (A) A    9 (A) B      0.0319
     8 (A) A             16 (A) A                 0.0273
     8 (A) A             21 (A) A                -0.0177
     5 (A) A             28 (A) A                 0.0150
     4 (A) A   7 (A) B    9 (A) A   19 (A) B     -0.0135
     5 (A) A   7 (A) B    9 (A) A   16 (A) B      0.0133
     7 (A) A   8 (A) B   20 (A) A   17 (A) B     -0.0105
     7 (A) A   8 (A) A    9 (A) A   28 (A) A      0.0098
     5 (A) A   8 (A) B    9 (A) A   20 (A) B      0.0095
     4 (A) A   6 (A) B    9 (A) A   16 (A) B     -0.0091
     5 (A) A   6 (A) A    9 (A) A   23 (A) A     -0.0091
     5 (A) A   6 (A) A    9 (A) A   14 (A) A     -0.0090
     5 (A) A   6 (A) B    9 (A) A   19 (A) B      0.0088
     8 (A) A   7 (A) B    9 (A) A   28 (A) B     -0.0085
     4 (A) A   5 (A) A    9 (A) A   10 (A) A      0.0084
     6 (A) A   7 (A) B    9 (A) A   18 (A) B      0.0082
     5 (A) A   6 (A) B    9 (A) A   23 (A) B     -0.0080
     3 (A) A   7 (A) B    9 (A) A   18 (A) B      0.0080
     5 (A) A   7 (A) A    9 (A) A   16 (A) A      0.0079
     4 (A) A   8 (A) B    9 (A) A   25 (A) B      0.0077
     7 (A) A   8 (A) B   17 (A) A   20 (A) B     -0.0074
     4 (A) A   7 (A) B   19 (A) A    9 (A) B     -0.0073
     5 (A) A   5 (A) B    9 (A) A   13 (A) B     -0.0072
     7 (A) A   8 (A) B   19 (A) A   18 (A) B     -0.0072
     5 (A) A   8 (A) A    9 (A) A   20 (A) A      0.0069
     4 (A) A   5 (A) B    9 (A) A   18 (A) B     -0.0067
     7 (A) A   8 (A) B   17 (A) A    9 (A) B     -0.0066
     5 (A) A   6 (A) B    9 (A) A   14 (A) B     -0.0065
     7 (A) A   7 (A) B   20 (A) A   22 (A) B     -0.0065
     4 (A) A   5 (A) B   10 (A) A    9 (A) B     -0.0061
     4 (A) A   7 (A) A    9 (A) A   19 (A) A     -0.0061
     5 (A) A   7 (A) B   11 (A) A   20 (A) B      0.0060
     4 (A) A   7 (A) B    9 (A) A   14 (A) B     -0.0059
     6 (A) A   7 (A) A   19 (A) A   28 (A) A     -0.0058
     4 (A) A   8 (A) A    9 (A) A   25 (A) A      0.0057
     5 (A) A             37 (A) A                 0.0053
    -----------------------------------------------------

  Density matrix analysis:
  ------------------------
  NOs
    Occupation of frontier NOs:
       0.9540   1.0581
    Number of electrons: 16.000000
    Number of unpaired electrons: n_u =  2.35610, n_u,nl =  2.06596
    NO participation ratio (PR_NO):  3.053684
  
  
  Mulliken Population Analysis
  Atom      Charge (e)              h+              e-           Del q
  --------------------------------------------------------------------
   1 H        0.145031        0.127428       -0.034177        0.093252
   2 C       -0.296032        0.268299       -0.466341       -0.198043
   3 H        0.148028        0.116182       -0.017398        0.098784
   4 C       -0.301827        0.276326       -0.473585       -0.197260
   5 H        0.144020        0.125380       -0.032216        0.093164
   6 H        0.160780        0.128170       -0.018067        0.110103
  --------------------------------------------------------------------
  Sum:       -0.000000        1.041785       -1.041785        0.000000
  
  Multipole moment analysis of the density matrix
    Molecular charge:                      0.000000
    Number of electrons:                   16.000000
      Center of electronic charge [Ang]: [ -1.558876,  -0.069112,   0.002064]
    Total nuclear charge:                  16.000000
      Center of nuclear charge [Ang]:    [ -1.560576,  -0.069352,   0.001978]
    Dipole moment [D]:                     0.132112
      Cartesian components [D]:          [ -0.130653,  -0.018448,  -0.006573]
    RMS size of the density [Ang]:         1.201927
      Cartesian components [Ang]:        [  0.786177,   0.772085,   0.480041]
  
  Exciton analysis of the difference density matrix
    <r_h> [Ang]:                  [ -1.567178,  -0.050434,   0.002794]
    <r_e> [Ang]:                  [ -1.541922,  -0.046798,   0.004129]
    |<r_e - r_h>| [Ang]:            0.025551
    Hole size [Ang]:                1.485792
      Cartesian components [Ang]: [  1.016500,   0.982657,   0.456827]
    Electron size [Ang]:            1.481445
      Cartesian components [Ang]: [  0.886239,   0.862406,   0.815790]

  Transition density matrix analysis:
  -----------------------------------
  
  CT numbers (Mulliken)
    omega =     0.9213
    <Phe> =    -0.0123
  
  Exciton analysis of the transition density matrix
    Trans. dipole moment [D]:             0.029768
      Cartesian components [D]:         [ -0.004499,   0.001383,   0.029394]
    <r_h> [Ang]:                        [ -1.569529,  -0.048744,   0.002802]
    <r_e> [Ang]:                        [ -1.538690,  -0.047190,   0.004243]
    |<r_e - r_h>| [Ang]:                  0.030912
    Hole size [Ang]:                      1.512895
      Cartesian components [Ang]:       [  1.040155,   1.003955,   0.446096]
    Electron size [Ang]:                  1.478822
      Cartesian components [Ang]:       [  0.876782,   0.852936,   0.831064]
    RMS electron-hole separation [Ang]:   2.096234
      Cartesian components [Ang]:       [  1.344742,   1.302920,   0.942478]
    Covariance(r_h, r_e) [Ang^2]:         0.041262
    Correlation coefficient:              0.018443
    Center-of-mass size [Ang]:            1.067507
      Cartesian components [Ang]:       [  0.688106,   0.665818,   0.471984]

  Decomposition into state-averaged NTOs
    H- 1 -> L+ 0: -0.6599 ( 87.1%)
    H- 0 -> L+ 2: -0.1494 (  4.5%)
                   omega =  92.1%
  ----------------------------------------------------------------------------


  Excited state 3 (singlet, A)                                     [converged]
  ----------------------------------------------------------------------------
  Term symbol:  4 (1) A                                     R^2 =  2.02847e-13

  Total energy:                                            -77.9836140491 a.u.
  Excitation energy:                                               9.141569 eV

  Osc. strength:                                                      0.025235
  Trans. dip. moment [a.u.]:           [  -0.014448,   -0.021261,    0.334685]
  <i|r^2|0> [a.u.]:                    [  -0.091113,   -0.008519,    0.006453]
  Two-photon absorption cross-section (SoS) [a.u.]:                   0.003715
  Two-photon absorption matrix (SoS) [a.u.]:
                                       |   -0.011709   -0.000363    0.010028 |
                                       |   -0.000363    0.011891   -0.014884 |
                                       |    0.010028   -0.014884   -0.002026 |
  Two-photon absorption cross-section [a.u.]:                         0.013691
  Two-photon absorption matrix [a.u.]:
                                       |   -0.007236    0.002488   -0.012795 |
                                       |    0.002488    0.011589   -0.037763 |
                                       |   -0.012795   -0.037763   -0.006474 |

  Dip. moment [a.u.]:                  [  -0.014222,   -0.038014,   -0.003099]
  Total dipole [Debye]:                                               0.103464
  <r^2> [a.u.]:                        [ 180.793648,   40.734636,   11.043498]
  Total <r^2> [a.u.]:                                               232.571782

  V1^2 = 0.9589, V2^2 = 0.0411

  Important amplitudes:
      occ i     occ j     vir a      vir b          v   
    -----------------------------------------------------
     8 (A) A             10 (A) A                -0.6877
     8 (A) A             24 (A) A                -0.0505
     7 (A) A              9 (A) A                -0.0447
     8 (A) A             18 (A) A                 0.0310
     4 (A) A              9 (A) A                -0.0237
     8 (A) A   8 (A) B    9 (A) A   12 (A) B      0.0220
     8 (A) A             15 (A) A                -0.0173
     8 (A) A   8 (A) B   10 (A) A   17 (A) B     -0.0171
     5 (A) A   8 (A) B   11 (A) A   10 (A) B      0.0164
     7 (A) A   8 (A) B   13 (A) A   10 (A) B      0.0140
     4 (A) A   8 (A) B   12 (A) A   10 (A) B      0.0110
     6 (A) A   8 (A) A   10 (A) A   15 (A) A     -0.0109
     7 (A) A   8 (A) B   22 (A) A   10 (A) B     -0.0107
     6 (A) A   8 (A) B   15 (A) A   10 (A) B      0.0106
     4 (A) A   8 (A) A   10 (A) A   12 (A) A     -0.0105
     7 (A) A   8 (A) A   10 (A) A   22 (A) A      0.0098
     7 (A) A   8 (A) A   10 (A) A   13 (A) A     -0.0097
     5 (A) A   8 (A) B   21 (A) A   10 (A) B     -0.0094
     5 (A) A   8 (A) A   10 (A) A   11 (A) A     -0.0093
     6 (A) A   8 (A) A   10 (A) A   18 (A) A     -0.0089
     6 (A) A   8 (A) B   10 (A) A   10 (A) B     -0.0086
     7 (A) A   8 (A) A   12 (A) A   16 (A) A     -0.0081
     3 (A) A   4 (A) B   10 (A) A    9 (A) B      0.0079
     5 (A) A   8 (A) A   10 (A) A   21 (A) A      0.0079
     8 (A) A   8 (A) B    9 (A) A   23 (A) B     -0.0076
     4 (A) A   8 (A) B   19 (A) A   10 (A) B     -0.0074
     8 (A) A   8 (A) B   10 (A) A   28 (A) B      0.0073
     3 (A) A   8 (A) B   10 (A) A   10 (A) B     -0.0072
     3 (A) A   8 (A) A   10 (A) A   24 (A) A      0.0071
     5 (A) A   8 (A) B   10 (A) A   11 (A) B      0.0071
     7 (A) A   8 (A) B   16 (A) A   12 (A) B      0.0070
     3 (A) A   8 (A) B   10 (A) A   18 (A) B      0.0068
     6 (A) A   8 (A) B   18 (A) A   10 (A) B      0.0067
     8 (A) A   8 (A) B    9 (A) A   19 (A) B     -0.0067
     3 (A) A   6 (A) B   10 (A) A   28 (A) B     -0.0062
     7 (A) A   8 (A) B   12 (A) A   11 (A) B      0.0057
     6 (A) A             28 (A) A                 0.0057
     3 (A) A   5 (A) B   10 (A) A   25 (A) B      0.0056
     3 (A) A   8 (A) A   10 (A) A   18 (A) A      0.0055
     5 (A) A   8 (A) A   10 (A) A   16 (A) A     -0.0055
    -----------------------------------------------------

  Density matrix analysis:
  ------------------------
  NOs
    Occupation of frontier NOs:
       0.9808   0.9854
    Number of electrons: 16.000000
    Number of unpaired electrons: n_u =  2.29373, n_u,nl =  2.02635
    NO participation ratio (PR_NO):  2.711780
  
  
  Mulliken Population Analysis
  Atom      Charge (e)              h+              e-           Del q
  --------------------------------------------------------------------
   1 H       -0.164165        0.053369       -0.269314       -0.215945
   2 C        0.327400        0.533387       -0.107997        0.425390
   3 H       -0.158910        0.054201       -0.262355       -0.208154
   4 C        0.323186        0.534381       -0.106629        0.427753
   5 H       -0.166805        0.053265       -0.270926       -0.217661
   6 H       -0.160705        0.054742       -0.266125       -0.211382
  --------------------------------------------------------------------
  Sum:       -0.000000        1.283345       -1.283345        0.000000
  
  Multipole moment analysis of the density matrix
    Molecular charge:                      0.000000
    Number of electrons:                   16.000000
      Center of electronic charge [Ang]: [ -1.560106,  -0.068095,   0.002081]
    Total nuclear charge:                  16.000000
      Center of nuclear charge [Ang]:    [ -1.560576,  -0.069352,   0.001978]
    Dipole moment [D]:                     0.103464
      Cartesian components [D]:          [ -0.036149,  -0.096623,  -0.007876]
    RMS size of the density [Ang]:         1.277439
      Cartesian components [Ang]:        [  0.854565,   0.841601,   0.439632]
  
  Exciton analysis of the difference density matrix
    <r_h> [Ang]:                  [ -1.561753,  -0.069721,   0.001861]
    <r_e> [Ang]:                  [ -1.556582,  -0.054088,   0.003156]
    |<r_e - r_h>| [Ang]:            0.016517
    Hole size [Ang]:                1.412798
      Cartesian components [Ang]: [  0.835310,   0.822347,   0.788670]
    Electron size [Ang]:            2.078412
      Cartesian components [Ang]: [  1.376835,   1.376446,   0.727680]

  Transition density matrix analysis:
  -----------------------------------
  
  CT numbers (Mulliken)
    omega =     0.9258
    <Phe> =    -0.0110
  
  Exciton analysis of the transition density matrix
    Trans. dipole moment [D]:             0.426595
      Cartesian components [D]:         [ -0.018362,  -0.027020,   0.425342]
    <r_h> [Ang]:                        [ -1.562213,  -0.072971,   0.001612]
    <r_e> [Ang]:                        [ -1.555531,  -0.049751,   0.003495]
    |<r_e - r_h>| [Ang]:                  0.024235
    Hole size [Ang]:                      1.217298
      Cartesian components [Ang]:       [  0.639575,   0.629161,   0.822749]
    Electron size [Ang]:                  2.293529
      Cartesian components [Ang]:       [  1.518489,   1.519370,   0.803728]
    RMS electron-hole separation [Ang]:   2.586577
      Cartesian components [Ang]:       [  1.640116,   1.637460,   1.148532]
    Covariance(r_h, r_e) [Ang^2]:         0.026147
    Correlation coefficient:              0.009365
    Center-of-mass size [Ang]:            1.303302
      Cartesian components [Ang]:       [  0.827616,   0.825821,   0.575905]

  Decomposition into state-averaged NTOs
    H- 0 -> L+ 1:  0.6782 ( 92.0%)
                   omega =  92.6%
  ----------------------------------------------------------------------------


  Excited state 4 (singlet, A)                                     [converged]
  ----------------------------------------------------------------------------
  Term symbol:  5 (1) A                                     R^2 =  1.59385e-13

  Total energy:                                            -77.9582887217 a.u.
  Excitation energy:                                               9.830706 eV

  Osc. strength:                                                      0.000035
  Trans. dip. moment [a.u.]:           [   0.001702,   -0.000384,   -0.011847]
  <i|r^2|0> [a.u.]:                    [   0.027368,    0.019698,   -0.036991]
  Two-photon absorption cross-section (SoS) [a.u.]:                 153.643634
  Two-photon absorption matrix (SoS) [a.u.]:
                                       |    0.304940    0.329392   -3.064883 |
                                       |    0.329392    0.354418   -3.062269 |
                                       |   -3.064883   -3.062269   -0.658267 |
  Two-photon absorption cross-section [a.u.]:                        95.961833
  Two-photon absorption matrix [a.u.]:
                                       |    0.248982    0.261071   -2.444259 |
                                       |    0.261071    0.271784   -2.397852 |
                                       |   -2.444259   -2.397852   -0.519703 |

  Dip. moment [a.u.]:                  [   0.070096,    0.062831,    0.006890]
  Total dipole [Debye]:                                               0.239903
  <r^2> [a.u.]:                        [ 181.923919,   40.605132,   10.777500]
  Total <r^2> [a.u.]:                                               233.306550

  V1^2 = 0.9635, V2^2 = 0.0365

  Important amplitudes:
      occ i     occ j     vir a      vir b          v   
    -----------------------------------------------------
     8 (A) A             11 (A) A                 0.6697
     7 (A) A              9 (A) A                -0.1505
     8 (A) A             21 (A) A                -0.0780
     8 (A) A             16 (A) A                 0.0637
     8 (A) A   8 (A) B    9 (A) A   13 (A) B     -0.0168
     5 (A) A   8 (A) B   11 (A) A   11 (A) B     -0.0155
     8 (A) A   8 (A) B   11 (A) A   17 (A) B      0.0140
     7 (A) A             20 (A) A                -0.0138
     8 (A) A             12 (A) A                 0.0130
     7 (A) A   8 (A) B   13 (A) A   11 (A) B     -0.0127
     5 (A) A   8 (A) A   11 (A) A   21 (A) A     -0.0110
     4 (A) A   8 (A) B   12 (A) A   11 (A) B     -0.0110
     8 (A) A   8 (A) B    9 (A) A   22 (A) B      0.0108
     7 (A) A   8 (A) A   11 (A) A   22 (A) A     -0.0097
     6 (A) A   8 (A) B   15 (A) A   11 (A) B     -0.0090
     6 (A) A   8 (A) B   10 (A) A   11 (A) B      0.0089
     7 (A) A   8 (A) B   22 (A) A   11 (A) B      0.0089
     3 (A) A   4 (A) B   11 (A) A    9 (A) B     -0.0083
     8 (A) A             10 (A) A                 0.0082
     3 (A) A   8 (A) B   11 (A) A   18 (A) B     -0.0081
     6 (A) A   8 (A) A   11 (A) A   15 (A) A      0.0080
     7 (A) A   8 (A) A   13 (A) A   16 (A) A      0.0078
     7 (A) A   8 (A) A   11 (A) A   13 (A) A      0.0077
     5 (A) A   8 (A) B   21 (A) A   11 (A) B      0.0071
     4 (A) A   8 (A) B   19 (A) A   11 (A) B      0.0069
     5 (A) A   8 (A) B    9 (A) A    9 (A) B     -0.0068
     6 (A) A   8 (A) A   11 (A) A   18 (A) A      0.0063
     4 (A) A   8 (A) A   11 (A) A   12 (A) A      0.0063
     3 (A) A   6 (A) B   11 (A) A   28 (A) B      0.0061
     6 (A) A   8 (A) B   18 (A) A   11 (A) B     -0.0060
     7 (A) A   8 (A) B   16 (A) A   13 (A) B     -0.0057
     3 (A) A   8 (A) A   11 (A) A   18 (A) A     -0.0056
     5 (A) A   8 (A) B   10 (A) A   10 (A) B     -0.0056
     3 (A) A   8 (A) B   11 (A) A   30 (A) B     -0.0055
     3 (A) A   5 (A) B   11 (A) A   25 (A) B     -0.0054
     6 (A) A   8 (A) B   11 (A) A   10 (A) B      0.0054
     7 (A) A   8 (A) B   12 (A) A   10 (A) B     -0.0053
     8 (A) A   8 (A) B   20 (A) A   22 (A) B      0.0053
     3 (A) A   8 (A) A   11 (A) A   24 (A) A     -0.0053
     5 (A) A   8 (A) A   11 (A) A   16 (A) A      0.0048
    -----------------------------------------------------

  Density matrix analysis:
  ------------------------
  NOs
    Occupation of frontier NOs:
       0.9406   1.0277
    Number of electrons: 16.000000
    Number of unpaired electrons: n_u =  2.31964, n_u,nl =  2.04928
    NO participation ratio (PR_NO):  2.915893
  
  
  Mulliken Population Analysis
  Atom      Charge (e)              h+              e-           Del q
  --------------------------------------------------------------------
   1 H       -0.137368        0.046190       -0.235338       -0.189147
   2 C        0.279958        0.496191       -0.118244        0.377948
   3 H       -0.139319        0.046507       -0.235070       -0.188563
   4 C        0.271878        0.497383       -0.120938        0.376445
   5 H       -0.111329        0.046575       -0.208760       -0.162185
   6 H       -0.163820        0.046602       -0.261099       -0.214497
  --------------------------------------------------------------------
  Sum:       -0.000000        1.179448       -1.179448        0.000000
  
  Multipole moment analysis of the density matrix
    Molecular charge:                      -0.000000
    Number of electrons:                   16.000000
      Center of electronic charge [Ang]: [ -1.562895,  -0.071430,   0.001750]
    Total nuclear charge:                  16.000000
      Center of nuclear charge [Ang]:    [ -1.560576,  -0.069352,   0.001978]
    Dipole moment [D]:                     0.239903
      Cartesian components [D]:          [  0.178165,   0.159699,   0.017513]
    RMS size of the density [Ang]:         1.278881
      Cartesian components [Ang]:        [  0.861019,   0.839976,   0.434307]
  
  Exciton analysis of the difference density matrix
    <r_h> [Ang]:                  [ -1.563025,  -0.070990,   0.001719]
    <r_e> [Ang]:                  [ -1.595229,  -0.099225,  -0.001353]
    |<r_e - r_h>| [Ang]:            0.042939
    Hole size [Ang]:                1.397219
      Cartesian components [Ang]: [  0.821364,   0.807040,   0.791371]
    Electron size [Ang]:            2.128149
      Cartesian components [Ang]: [  1.458491,   1.392598,   0.680068]

  Transition density matrix analysis:
  -----------------------------------
  
  CT numbers (Mulliken)
    omega =     0.9296
    <Phe> =    -0.0133
  
  Exciton analysis of the transition density matrix
    Trans. dipole moment [D]:             0.015219
      Cartesian components [D]:         [  0.002164,  -0.000487,  -0.015056]
    <r_h> [Ang]:                        [ -1.560681,  -0.069741,   0.001883]
    <r_e> [Ang]:                        [ -1.602200,  -0.104364,  -0.001972]
    |<r_e - r_h>| [Ang]:                  0.054199
    Hole size [Ang]:                      1.230734
      Cartesian components [Ang]:       [  0.661164,   0.650964,   0.808588]
    Electron size [Ang]:                  2.266355
      Cartesian components [Ang]:       [  1.554654,   1.482303,   0.722629]
    RMS electron-hole separation [Ang]:   2.568812
      Cartesian components [Ang]:       [  1.681256,   1.611572,   1.083979]
    Covariance(r_h, r_e) [Ang^2]:         0.027606
    Correlation coefficient:              0.009897
    Center-of-mass size [Ang]:            1.294825
      Cartesian components [Ang]:       [  0.849011,   0.813325,   0.542452]

  Decomposition into state-averaged NTOs
    H- 0 -> L+ 2: -0.6638 ( 88.1%)
    H- 1 -> L+ 0:  0.1485 (  4.4%)
                   omega =  93.0%
  ----------------------------------------------------------------------------


  Excited state 5 (singlet, A)                                     [converged]
  ----------------------------------------------------------------------------
  Term symbol:  6 (1) A                                     R^2 =  1.32451e-13

  Total energy:                                            -77.9460650433 a.u.
  Excitation energy:                                              10.163330 eV

  Osc. strength:                                                      0.000004
  Trans. dip. moment [a.u.]:           [  -0.000025,   -0.000126,    0.003770]
  <i|r^2|0> [a.u.]:                    [   0.087629,   -0.108402,    0.021117]
  Two-photon absorption cross-section (SoS) [a.u.]:                 149.890016
  Two-photon absorption matrix (SoS) [a.u.]:
                                       |    0.295044    0.028747   -3.020151 |
                                       |    0.028747   -0.358008    3.082741 |
                                       |   -3.020151    3.082741    0.079278 |
  Two-photon absorption cross-section [a.u.]:                        59.588841
  Two-photon absorption matrix [a.u.]:
[...]
    16   -1.434484192077e-03
    17   -1.828395794761e-03
    18    5.284658312073e-04
    19   -3.386453398307e-03
    20    1.006446064851e-02
    21    9.228044151982e-01
    22   -5.303112200550e-04
    23    1.411508615950e-02
    24    8.234805195596e-04
    25    7.086523560688e-02
    26   -5.334219830906e-02
    27   -1.402696850063e+00
    28    9.592233190015e-02
    29   -9.440401618400e-02
    30   -1.386223516587e-03
    31    3.787008461505e-01
    32   -3.724818192965e-01
    33   -5.493611460021e-03
    34    1.579095240138e-02
    35   -1.472455029475e-03
    36   -1.823844148982e-03
    37   -2.752292670623e-05
    38   -3.200859976754e-03
    39    1.123398223936e-02
    40    9.541986538208e-01
    41    1.596177080672e-04
    42   -1.423266222111e-02
    43   -8.578022598393e-04
    44    9.085171620782e-03
    45    9.288370662915e-01
    46    1.395933682232e-02
    47    3.704641169279e-04
    48    6.711094635218e-04
Sym=X
Ene= 0.233505
Spin=Alpha
Occup=0
     1   -2.647517093153e-02
     2   -1.239457576641e+00
     3    1.444690712564e-02
     4    3.803193910122e-03
     5    8.981637033258e-04
     6   -3.411509475118e-03
     7    3.327659780998e-03
     8    4.861345656168e-02
     9    1.545439586746e-01
    10    1.569248249818e-01
    11    1.654178174873e-02
    12    5.529600568427e-01
    13    5.712682584523e-01
    14    5.971728031131e-02
    15   -6.206037435852e-04
    16    6.468299542703e-05
    17    2.198328862400e-05
    18    5.540490929488e-04
    19    3.361446743584e-04
    20    2.273454591751e-02
    21    1.171746334621e+00
    22    2.710154908527e-03
    23    1.375444268713e-02
    24    9.457304528054e-04
    25    4.946349854154e-03
    26   -4.258544939160e-03
    27   -9.563092479694e-02
    28    1.569876366430e-01
    29    1.560885351572e-01
    30    1.680941344671e-02
    31    5.539647776850e-01
    32    5.504705870878e-01
    33    5.935487043198e-02
    34    1.395553267200e-03
    35   -1.924923764028e-04
    36   -7.390820160439e-05
    37   -1.195645204432e-03
    38   -7.841057351159e-04
    39   -2.361239584981e-02
    40   -1.126523171591e+00
    41    2.456898340937e-03
    42    1.308166478608e-02
    43    9.058359876243e-04
    44    2.535465779585e-02
    45    1.252432227804e+00
    46    1.500321475830e-02
    47    3.897451601321e-03
    48    9.409685885374e-04
Sym=X
Ene= 0.239593
Spin=Alpha
Occup=0
     1    1.522145603484e-02
     2    1.030430213597e+00
     3   -1.624269468999e-02
     4   -9.103984567706e-03
     5   -1.301573214683e-03
     6    8.710676703943e-02
     7   -8.025121826093e-02
     8   -1.613706382194e+00
     9   -5.117442613277e-02
    10    6.123239753235e-02
    11    1.295384813422e-03
    12   -1.968771824198e-01
    13    2.408324326014e-01
    14    5.186899072596e-03
    15    2.280564267620e-02
    16   -2.619450194183e-03
    17   -3.030571516910e-03
    18    9.450762969866e-04
    19   -1.303613250042e-02
    20    1.712147829022e-02
    21    1.159755204869e+00
    22    8.445122402014e-03
    23    1.851225341067e-02
    24    1.506595302700e-03
    25   -8.611946622915e-02
    26    7.864306503906e-02
    27    1.593603632917e+00
    28   -4.996020619490e-02
    29    6.296329369493e-02
    30    1.570786011443e-03
    31   -1.973629590915e-01
    32    2.413865884029e-01
    33    5.676471122614e-03
    34   -2.243401354655e-02
    35    2.569448913821e-03
    36    2.992862925212e-03
    37   -8.887434157223e-04
    38    1.271010962112e-02
    39   -1.676281386111e-02
    40   -1.140586528457e+00
    41    8.718805306123e-03
    42    1.795752060307e-02
    43    1.497942886316e-03
    44   -1.590005260397e-02
    45   -1.023693968881e+00
    46   -1.611241500970e-02
    47   -9.213222020123e-03
    48   -1.298143388664e-03
Sym=X
Ene= 0.302860
Spin=Alpha
Occup=0
     1    1.925310913445e-02
     2   -1.683915396920e+00
     3    2.279291714890e-02
     4   -2.902146756843e-04
     5    1.066632293362e-03
     6    7.735859025423e-05
     7    1.047811682707e-04
     8   -2.245265903103e-02
     9    1.334422031924e-01
    10    1.394172300909e-01
    11    1.454819909221e-02
    12    1.139376786172e+00
    13    1.195936439462e+00
    14    1.248647776483e-01
    15    4.045556956592e-04
    16    1.566991861753e-03
    17   -1.951547869225e-03
    18    3.278310420401e-02
    19    1.063348930872e-03
    20   -2.181373172503e-02
    21    1.708318060097e+00
    22   -1.079485646415e-03
    23    2.287275506850e-02
    24    1.295308348167e-03
    25    4.384874686381e-05
    26   -1.533142770544e-04
    27   -2.259548644502e-03
    28   -1.344933369997e-01
    29   -1.408925865931e-01
    30   -1.480741280746e-02
    31   -1.136883505284e+00
    32   -1.188704138211e+00
    33   -1.247267560654e-01
    34    2.137452139360e-05
    35    1.571107673462e-03
    36   -1.880806140941e-03
    37    3.208564540455e-02
    38    1.350727985652e-03
    39   -1.888217849734e-02
    40    1.694017854057e+00
    41    1.381496207029e-03
    42   -2.281260174477e-02
    43   -1.291729277946e-03
    44    1.837279934163e-02
    45   -1.692190195139e+00
    46   -2.287587919898e-02
    47    4.136040568427e-04
    48   -1.066639378455e-03
Sym=X
Ene= 0.460404
Spin=Alpha
Occup=0
     1   -1.239274493312e-01
     2   -6.861719139460e-01
     3   -1.562289315967e-02
     4   -9.845392258872e-03
     5   -1.323389487287e-03
     6    6.063904822014e-02
     7    1.688734281123e-02
     8   -3.495158929493e+00
     9    1.041852633552e-01
    10   -9.911718765746e-02
    11   -1.177608533986e-03
    12    2.381250682566e+00
    13   -2.296295443738e+00
    14   -2.184689228895e-02
    15    5.307563128347e-02
    16   -3.447958891550e-03
    17   -4.611845487521e-03
    18   -1.328550913597e-03
    19    1.640600074328e-02
    20   -1.178521091428e-01
    21   -7.232330406927e-01
    22    9.618971750248e-03
    23    1.580881958834e-02
    24    1.383752134791e-03
    25   -6.116495140842e-02
    26   -1.437020467843e-02
    27    3.503289897945e+00
    28    1.084579695003e-01
    29   -1.037335236434e-01
    30   -1.306938969758e-03
    31    2.379617064508e+00
    32   -2.275488271225e+00
    33   -2.096127085637e-02
    34   -5.116723902950e-02
    35    3.167690673279e-03
    36    4.344068242950e-03
    37    1.034987979506e-03
    38   -1.893881136716e-02
    39    1.081996090699e-01
    40    7.121387250526e-01
    41    9.066696833923e-03
    42    1.535567436978e-02
    43    1.342455944232e-03
    44    1.113630334796e-01
    45    7.112196612251e-01
    46   -1.511080811335e-02
    47   -9.369973015356e-03
    48   -1.285818241583e-03
Sym=X
Ene= 0.578422
Spin=Alpha
Occup=0
     1    2.567679570112e-01
     2    1.349655651804e-02
     3   -1.748304271165e-02
     4    2.595892457653e-02
     5    7.189315218826e-04
     6   -2.877843872055e-03
     7   -1.500934038234e-01
     8   -5.132702733036e-01
     9    3.003716430648e-01
    10   -2.866315021125e-01
    11   -2.614617713151e-03
    12   -6.882648878508e-01
    13    6.698723087101e-01
    14    7.405652032707e-03
    15   -6.639147562784e-03
    16    4.149763497174e-03
    17    3.789934223436e-03
    18   -2.307092627129e-03
    19    6.218107371745e-02
    20    2.596652735192e-01
    21    3.303142367800e-02
    22   -2.527129060375e-02
    23    1.508603279925e-02
    24   -2.938866641587e-04
    25   -5.762861550747e-03
    26   -1.522167468404e-01
    27   -3.785435318197e-01
    28   -2.958520467702e-01
    29    2.812847384887e-01
    30    2.468419421406e-03
    31    7.872634160879e-01
    32   -7.497069533140e-01
    33   -7.442163381002e-03
    34   -6.770051960495e-03
    35    4.211584004859e-03
    36    3.738287919942e-03
    37   -1.125223072190e-03
    38    6.212119880925e-02
    39    2.510111356353e-01
    40    6.575733182078e-02
    41    2.763120812811e-02
    42   -1.717762175515e-02
    43    2.777097422049e-04
    44    2.590863863601e-01
    45    5.631552076400e-02
    46    1.744451409923e-02
    47   -2.659411003345e-02
    48   -7.669950621640e-04
Sym=X
Ene= 0.615434
Spin=Alpha
Occup=0
     1   -5.163395239656e-01
     2    1.992324957697e-01
     3   -6.053439762847e-02
     4    3.864087952913e-02
     5   -5.758839450527e-04
     6    4.479674444279e-05
     7    3.666736611510e-03
     8    4.139674546396e-03
     9   -4.033093779775e-02
    10   -4.327586453365e-02
    11   -4.513954796287e-03
    12    2.793284077019e-01
    13    3.252572102374e-01
    14    3.229547031162e-02
    15    1.264501205789e-03
    16   -7.473541737905e-03
    17    8.211893946018e-03
    18   -1.462074069403e-01
    19   -8.235361072448e-03
    20    5.059829584393e-01
    21   -1.657198334164e-01
    22    4.138252087924e-02
    23   -5.835044246269e-02
    24   -1.517921006506e-03
    25   -1.773650020517e-04
    26   -1.432930130819e-04
    27   -1.479576393664e-02
    28   -3.896308000687e-02
    29   -4.349674718565e-02
    30   -4.391784987368e-03
    31    2.756692342210e-01
    32    3.259743060332e-01
    33    3.268671931130e-02
    34    1.088160836044e-03
    35    7.301822481609e-03
    36   -8.827511810210e-03
    37    1.499100451074e-01
    38    6.326760072170e-03
    39   -5.255494072527e-01
    40    1.990769737904e-01
    41    4.012565723887e-02
    42   -5.938079729564e-02
    43   -1.641044515894e-03
    44    5.148933725730e-01
    45   -2.087710291843e-01
    46   -6.057967170178e-02
    47    3.838884157629e-02
    48   -5.604818071125e-04
Sym=X
Ene= 0.690625
Spin=Alpha
Occup=0
     1    4.587006106122e-04
     2    6.216360399108e-04
     3    9.594102823942e-04
     4    1.266981217250e-03
     5   -2.067230841126e-02
     6    3.408702962803e-05
     7   -6.890395035513e-05
     8    4.349793287912e-04
     9    3.170423047245e-02
    10    3.984590768732e-02
    11   -6.719993618515e-01
    12   -3.008783190292e-02
    13   -3.523639851259e-02
    14    6.143068633537e-01
    15   -1.336892315839e-03
    16    8.201126184114e-02
    17   -7.882101438707e-02
    18   -8.615919796052e-03
    19   -9.642094332812e-04
    20    5.082580963779e-04
    21    4.710721358878e-04
    22    1.010779805095e-03
    23    1.357955054482e-03
    24   -2.289384625009e-02
    25   -1.334223181228e-05
    26    3.554821110864e-04
    27   -6.370785912321e-04
    28    3.201916634929e-02
    29    3.997115101771e-02
    30   -6.718530405409e-01
    31   -3.044888243356e-02
    32   -3.539840778861e-02
    33    6.131587567083e-01
    34    1.210096881303e-03
    35   -8.216359136941e-02
    36    7.879125467619e-02
    37    8.545877897232e-03
    38    1.009309361714e-03
    39   -2.332847853132e-04
    40   -8.068892521149e-04
    41    9.921406074144e-04
    42    1.361697157723e-03
    43   -2.135598296307e-02
    44   -2.685795961849e-04
    45   -6.065396297441e-04
    46    9.373428004190e-04
    47    1.320424181106e-03
    48   -2.130898132415e-02
Sym=X
Ene= 0.709537
Spin=Alpha
Occup=0
     1   -4.692157835060e-01
     2    1.691018252369e-01
     3   -8.004829175264e-02
     4   -4.486254687274e-02
     5   -6.502576588637e-03
     6   -4.777634040261e-02
     7   -3.250417493706e-01
     8    5.263615117794e-01
     9    2.120294418798e-01
    10   -1.942443790948e-01
    11   -1.622191209793e-03
    12   -1.252891779813e-01
    13    9.274064207908e-02
    14   -1.154399762504e-03
    15    1.928790105300e-01
    16   -2.037430466039e-02
    17   -2.379098339434e-02
    18    3.632316865894e-03
    19   -7.737609553793e-02
    20   -4.676942163033e-01
    21    1.345732011056e-01
    22    4.021310840174e-02
    23    8.232352090482e-02
    24    6.723529996684e-03
    25   -4.710749688113e-02
    26   -3.205792692536e-01
    27    4.362527680823e-01
    28   -2.056366280085e-01
    29    1.980923655434e-01
    30    1.764371128435e-03
    31    5.432966014623e-02
    32   -5.941338245613e-02
    33    1.637578400530e-04
    34    1.960096012445e-01
    35   -2.057491371352e-02
    36   -2.394157429553e-02
    37    2.353963204826e-03
    38   -7.379396879147e-02
    39   -4.683610405149e-01
    40    1.425747544021e-01
    41   -4.081804911056e-02
    42   -8.282676999582e-02
    43   -6.828720490712e-03
    44   -4.790169275641e-01
    45    1.432589050779e-01
    46    8.163167451305e-02
    47    4.346267531707e-02
    48    6.511049662721e-03
Sym=X
Ene= 0.782978
Spin=Alpha
Occup=0
     1   -5.358302523543e-01
     2    4.846430992181e-01
     3   -1.131175103891e-01
     4   -2.578631684969e-02
     5   -6.887636095953e-03
     6   -9.148842900111e-02
     7    2.081197567370e-01
     8    6.147000193725e-01
     9   -1.061516538116e-01
    10    1.227464505102e-01
    11    1.823538939305e-03
    12   -3.112507343329e-01
    13    2.456509002782e-01
    14    1.005169870999e-04
    15    2.084327114194e-01
    16   -1.772648334122e-02
    17   -2.173360245728e-02
    18   -2.872948270933e-03
    19   -8.076587742472e-03
    20   -5.253369729215e-01
    21    4.231255923431e-01
    22    1.921096576132e-02
    23    1.095493950590e-01
    24    7.375920279587e-03
    25    9.095440599231e-02
    26   -2.185313234211e-01
    27   -6.166265313929e-01
    28   -1.198515777252e-01
    29    1.174243895634e-01
    30    1.210541336989e-03
    31   -2.726474124229e-01
    32    2.601736908557e-01
    33    2.050045752163e-03
    34   -2.057844177635e-01
    35    1.738177563351e-02
    36    2.165103631592e-02
    37    1.274699789991e-03
    38    5.614897709172e-03
    39    5.351490694937e-01
    40   -4.499304599862e-01
    41    1.947053926749e-02
    42    1.096401425404e-01
    43    7.448729191864e-03
    44    5.316789496725e-01
    45   -4.546711687071e-01
    46   -1.094332996639e-01
    47   -2.582027252652e-02
    48   -6.755349416305e-03
Sym=X
Ene= 0.807246
Spin=Alpha
Occup=0
     1    1.235275958386e-04
     2   -3.033022289720e-04
     3    1.585680287820e-03
     4    2.042369686336e-03
     5   -3.384818388936e-02
     6    3.742770598120e-05
     7   -3.977497944728e-04
     8    1.683158668993e-04
     9    3.619325007945e-02
    10    4.490731026944e-02
    11   -7.625987553901e-01
    12   -5.324258116718e-02
    13   -6.619359798611e-02
    14    1.123694930122e+00
    15    9.222947622102e-04
    16   -6.306341709606e-02
    17    6.039789341543e-02
    18    6.656037230228e-03
    19    7.881735556935e-04
    20    1.051360001224e-04
    21    2.394262846028e-04
    22    1.700517681709e-03
    23    2.195858390988e-03
    24   -3.578712931696e-02
    25   -4.542651696083e-06
    26   -3.177889365815e-04
    27    2.030118127284e-04
    28   -3.642824233855e-02
    29   -4.548398079550e-02
    30    7.632773903509e-01
    31    5.385714533390e-02
    32    6.678155493557e-02
    33   -1.123492661527e+00
    34    1.067760789012e-03
    35   -6.294614415430e-02
    36    6.042381002770e-02
    37    6.501978004774e-03
    38    8.108994028768e-04
    39   -9.319420176109e-05
    40   -3.823802679340e-05
    41   -1.542911905099e-03
    42   -2.097260680510e-03
    43    3.366729653560e-02
    44   -1.122539192489e-04
    45    5.068898998631e-04
    46   -1.454101191689e-03
    47   -2.025352454043e-03
    48    3.391272549772e-02
Sym=X
Ene= 0.863789
Spin=Alpha
Occup=0
     1    7.889548474134e-03
     2   -1.094834854449e+00
     3    1.462328240640e-01
     4    5.863541880648e-02
     5    1.031597077088e-02
     6   -1.974726278629e-03
     7   -7.665070218908e-03
     8    1.074568619122e-03
     9   -4.100994078884e-01
    10   -4.151839310678e-01
    11   -4.380550588731e-02
    12    9.512163213894e-01
    13    9.760306111121e-01
    14    1.023963878652e-01
    15    6.098504618247e-03
    16    1.132919256672e-02
    17   -1.408258125959e-02
    18    2.352968231091e-01
    19    1.281324539543e-02
    20   -2.011743982627e-02
    21    1.095225725740e+00
    22    5.048210901858e-02
    23    1.515280193212e-01
    24    1.144582027231e-02
    25    1.146942287756e-03
    26   -9.963064872402e-03
    27    1.413760140756e-02
    28   -4.191577414160e-01
    29   -4.277709631337e-01
    30   -4.558992255870e-02
    31    9.698486426482e-01
    32    1.000359339415e+00
    33    1.060993908048e-01
    34   -2.252400789843e-03
    35   -1.186325859154e-02
    36    1.392116023859e-02
    37   -2.393291589271e-01
    38   -1.333270846354e-02
    39    2.020024488179e-02
    40   -1.110228480543e+00
    41    4.835097543111e-02
    42    1.550392975518e-01
    43    1.162339144188e-02
    44   -1.181919439679e-02
    45    1.105659982835e+00
    46    1.502484905643e-01
    47    5.592833887199e-02
    48    1.037497576725e-02
Sym=X
Ene= 0.935715
Spin=Alpha
Occup=0
     1    1.119098000364e-01
     2   -1.332403278275e+00
     3    1.868354206521e-01
     4    1.175104807708e-03
     5    8.982585074757e-03
     6   -2.279453692250e-03
     7   -2.835902170200e-02
     8    1.241867297724e-02
     9   -4.966691634617e-01
    10   -4.805630021250e-01
    11   -5.199050593798e-02
    12    1.531881967994e+00
    13    1.501608128277e+00
    14    1.615405341923e-01
    15    6.572698416020e-03
    16    6.323504341648e-03
    17   -7.063722866031e-03
    18    1.232150887623e-01
    19    1.671047157889e-02
    20   -1.150365951754e-01
    21    1.267389026081e+00
    22   -1.519933007704e-02
    23    1.800356009674e-01
    24    9.848198280671e-03
    25    1.225837473239e-03
    26   -1.698059869047e-02
    27    5.466634191360e-02
    28    4.571562255206e-01
    29    5.050377794545e-01
    30    5.178567287463e-02
    31   -1.420364722531e+00
    32   -1.559923582580e+00
    33   -1.602985334718e-01
    34   -3.001361580583e-03
    35    5.834879546102e-03
    36   -6.813821844714e-03
    37    1.182506627109e-01
    38   -1.675894054218e-03
    39   -1.123069291048e-01
    40    1.285972377324e+00
    41    1.192133550692e-02
    42   -1.790727916026e-01
    43   -1.003993843537e-02
    44    1.158010617020e-01
    45   -1.264114374073e+00
    46   -1.808959103250e-01
    47    7.204102443885e-03
    48   -8.243465993626e-03
Sym=X
Ene= 0.969052
Spin=Alpha
Occup=0
     1   -7.040343613272e-02
     2    8.563430589390e-01
     3   -8.171408005426e-02
     4   -9.828027246918e-02
     5   -9.601159529660e-03
     6    2.276129011116e-02
     7    2.359173834862e-01
     8    5.716750035664e-01
     9    4.588291782670e-01
    10   -4.737517390946e-01
    11   -6.299231717923e-03
    12   -1.429858125293e+00
    13    1.498097817015e+00
    14    2.072891191842e-02
    15   -4.942284284000e-02
    16   -1.267691084861e-02
    17   -1.078131496111e-02
    18    2.129548523249e-02
    19   -3.018608409955e-01
    20   -7.340976185795e-02
    21    9.815950355950e-01
    22    9.443927103117e-02
    23    1.023851097935e-01
    24    1.064023050274e-02
    25   -2.281047480849e-02
    26   -2.321711719406e-01
    27   -5.778127474435e-01
    28    4.901310676409e-01
    29   -4.444963734503e-01
    30   -3.246550737816e-03
    31   -1.549046472264e+00
    32    1.389191173733e+00
    33    9.062221250585e-03
    34    4.864704964850e-02
    35    1.303608460121e-02
    36    1.023882451759e-02
    37   -1.222649777627e-02
    38    2.994407910931e-01
    39    7.514034034482e-02
    40   -8.852276916030e-01
    41    9.398670622346e-02
    42    9.064587262856e-02
    43    9.982944698722e-03
    44    7.387762957217e-02
    45   -9.534072873867e-01
    46   -9.474670393315e-02
    47   -9.781932577527e-02
    48   -1.019492583213e-02
[5D]

======= END OF MOLDEN-FORMATTED INPUT FILE =======


        *************************************************************
        *                                                           *
        *  Thank you very much for using Q-Chem.  Have a nice day.  *
        *                                                           *
        *************************************************************


