                  Welcome to Q-Chem
     A Quantum Leap Into The Future Of Chemistry


 Q-Chem 5.4 (devel), Q-Chem, Inc., Pleasanton, CA (2021)

 E. Epifanovsky,  A. T. B. Gilbert,  Xintian Feng,  Joonho Lee,  Yuezhi Mao,  
 N. Mardirossian,  P. Pokhilko,  A. White,  M. Wormit,  M. P. Coons,  
 A. L. Dempwolff,  Zhengting Gan,  D. Hait,  P. R. Horn,  L. D. Jacobson,  
 I. Kaliman,  J. Kussmann,  A. W. Lange,  Ka Un Lao,  D. S. Levine,  Jie Liu,  
 S. C. McKenzie,  A. F. Morrison,  K. Nanda,  F. Plasser,  D. R. Rehn,  
 M. L. Vidal,  Zhi-Qiang You,  Ying Zhu,  B. Alam,  B. Albrecht,  
 A. Aldossary,  E. Alguire,  J. H. Andersen,  D. Barton,  K. Begam,  A. Behn,  
 Y. A. Bernard,  E. J. Berquist,  H. Burton,  A. Carreras,  K. Carter-Fenk,  
 R. Chakraborty,  A. D. Chien,  K. D. Closser,  V. Cofer-Shabica,  
 S. Dasgupta,  Jia Deng,  M. de Wergifosse,  M. Diedenhofen,  Hainam Do,  
 S. Ehlert,  Po-Tung Fang,  S. Fatehi,  Qingguo Feng,  T. Friedhoff,  
 J. Gayvert,  Qinghui Ge,  G. Gidofalvi,  M. Goldey,  J. Gomes,  
 C. Gonzalez-Espinoza,  S. Gulania,  A. Gunina,  M. W. D. Hanson-Heine,  
 P. H. P. Harbach,  A. W. Hauser,  M. F. Herbst,  M. Hernandez Vera,  
 M. Hodecker,  Z. C. Holden,  S. Houck,  Xunkun Huang,  Kerwin Hui,  
 B. C. Huynh,  M. Ivanov,  Hyunjun Ji,  Hanjie Jiang,  B. Kaduk,  S. Kaehler,  
 K. Khistyaev,  Jaehoon Kim,  P. Klunzinger,  Z. Koczor-Benda,  
 Joong Hoon Koh,  D. Kosenkov,  L. Koulias,  T. Kowalczyk,  C. M. Krauter,  
 K. Kue,  A. Kunitsa,  T. Kus,  A. Landau,  K. V. Lawler,  D. Lefrancois,  
 S. Lehtola,  Rain Li,  Yi-Pei Li,  Jiashu Liang,  M. Liebenthal,  
 Hung-Hsuan Lin,  You-Sheng Lin,  Fenglai Liu,  Kuan-Yu Liu,  
 M. Loipersberger,  A. Luenser,  A. Manjanath,  P. Manohar,  E. Mansoor,  
 S. F. Manzer,  Shan-Ping Mao,  A. V. Marenich,  T. Markovich,  S. Mason,  
 S. A. Maurer,  P. F. McLaughlin,  M. F. S. J. Menger,  J.-M. Mewes,  
 S. A. Mewes,  P. Morgante,  J. W. Mullinax,  K. J. Oosterbaan,  G. Paran,  
 Alexander C. Paul,  Suranjan K. Paul,  F. Pavosevic,  Zheng Pei,  S. Prager,  
 E. I. Proynov,  E. Ramos,  B. Rana,  A. E. Rask,  A. Rettig,  R. M. Richard,  
 F. Rob,  E. Rossomme,  T. Scheele,  M. Scheurer,  M. Schneider,  
 N. Sergueev,  S. M. Sharada,  W. Skomorowski,  D. W. Small,  C. J. Stein,  
 Yu-Chuan Su,  E. J. Sundstrom,  Zhen Tao,  J. Thirman,  T. Tsuchimochi,  
 N. M. Tubman,  S. P. Veccham,  O. Vydrov,  J. Wenzel,  J. Witte,  A. Yamada,  
 Kun Yao,  S. Yeganeh,  S. R. Yost,  A. Zech,  Igor Ying Zhang,  Xing Zhang,  
 Yu Zhang,  D. Zuev,  A. Aspuru-Guzik,  A. T. Bell,  N. A. Besley,  
 K. B. Bravaya,  B. R. Brooks,  D. Casanova,  Jeng-Da Chai,  S. Coriani,  
 C. J. Cramer,  A. E. DePrince, III,  R. A. DiStasio Jr.,  A. Dreuw,  
 B. D. Dunietz,  T. R. Furlani,  W. A. Goddard III,  S. Grimme,  
 S. Hammes-Schiffer,  T. Head-Gordon,  W. J. Hehre,  Chao-Ping Hsu,  
 T.-C. Jagau,  Yousung Jung,  A. Klamt,  Jing Kong,  D. S. Lambrecht,  
 WanZhen Liang,  N. J. Mayhall,  C. W. McCurdy,  J. B. Neaton,  
 C. Ochsenfeld,  J. A. Parkhill,  R. Peverati,  V. A. Rassolov,  Yihan Shao,  
 L. V. Slipchenko,  T. Stauch,  R. P. Steele,  J. E. Subotnik,  
 A. J. W. Thom,  A. Tkatchenko,  D. G. Truhlar,  T. Van Voorhis,  
 T. A. Wesolowski,  K. B. Whaley,  H. L. Woodcock III,  P. M. Zimmerman,  
 S. Faraji,  P. M. W. Gill,  M. Head-Gordon,  J. M. Herbert,  A. I. Krylov

 Additional authors for Version 5.4.1: 
 S. Kotaru,  Shaozhi Li,  Xiangyuan Li,  F. Matz,  A. Molle,  Haisheng Ren,  
 Yingli Su,  Hung-Yi Tsai,  C. Utku,  Fang Wang

 Contributors to earlier versions of Q-Chem not listed above: 
 R. D. Adamson,  B. Austin,  R. Baer,  J. Baker,  G. J. O. Beran,  
 K. Brandhorst,  S. T. Brown,  E. F. C. Byrd,  A. K. Chakraborty,  
 G. K. L. Chan,  Chun-Min Chang,  Yunqing Chen,  C.-L. Cheng,  
 Siu Hung Chien,  D. M. Chipman,  D. L. Crittenden,  H. Dachsel,  
 R. J. Doerksen,  A. D. Dutoi,  R. G. Edgar,  J. Fosso-Tande,  
 L. Fusti-Molnar,  D. Ghosh,  A. Ghysels,  A. Golubeva-Zadorozhnaya,  
 J. Gonthier,  M. S. Gordon,  S. R. Gwaltney,  G. Hawkins,  J. E. Herr,  
 A. Heyden,  S. Hirata,  E. G. Hohenstein,  G. Kedziora,  F. J. Keil,  
 C. Kelley,  Jihan Kim,  R. A. King,  R. Z. Khaliullin,  P. P. Korambath,  
 W. Kurlancheek,  A. Laurent,  A. M. Lee,  M. S. Lee,  S. V. Levchenko,  
 Ching Yeh Lin,  D. Liotard,  E. Livshits,  R. C. Lochan,  I. Lotan,  
 L. A. Martinez-Martinez,  P. E. Maslen,  N. Nair,  D. P. O'Neill,  
 D. Neuhauser,  E. Neuscamman,  C. M. Oana,  R. Olivares-Amaya,  R. Olson,  
 T. M. Perrine,  B. Peters,  P. A. Pieniazek,  A. Prociuk,  Y. M. Rhee,  
 J. Ritchie,  M. A. Rohrdanz,  E. Rosta,  N. J. Russ,  H. F. Schaefer III,  
 M. W. Schmidt,  N. E. Schultz,  S. Sharma,  N. Shenvi,  C. D. Sherrill,  
 A. C. Simmonett,  A. Sodt,  T. Stein,  D. Stuck,  K. S. Thanthiriwatte,  
 V. Vanovschi,  L. Vogt,  Tao Wang,  A. Warshel,  M. A. Watson,  
 C. F. Williams,  Q. Wu,  X. Xu,  Jun Yang,  W. Zhang,  Yan Zhao

 Please cite Q-Chem as follows:
 Y. Shao et al., Mol. Phys. 113, 184-215 (2015)
 DOI: 10.1080/00268976.2014.952696

 Q-Chem 5.4.1 for Intel X86 EM64T Linux

 Parts of Q-Chem use Armadillo 9.800.1 (Horizon Scraper).
 http://arma.sourceforge.net/

 Q-Chem begins on Thu Nov 17 15:41:54 2022  

 Host: cpu186.baobab
0

     Scratch files written to /scratch/fum/qchem59738//
 Processing $rem in /home/share/wesolowski/qc5.aug2021.FDE/config/preferences:
 Processing $rem in /home/fum/.qchemrc:

 Checking the input file for inconsistencies... 	...done.

--------------------------------------------------------------
User input:
--------------------------------------------------------------
$comment
generated from CCJob.Templates
$end

$rem
sym_ignore = true
method = adc(2)
ee_states = 10
basis = cc-pVDZ
mem_static = 1024
mem_total = 40000
adc_davidson_maxiter = 900
adc_davidson_conv = 6
adc_print = 3
adc_prop_es = true
adc_prop_es2es = true
adc_prop_tpa = true
molden_format = True
state_analysis = true
print_orbitals = 15
gen_scfman = false
fde_export_density = true
fde_details = 3
$end

$molecule
0 1
H -0.0348278765 -0.2442097827 0.0636489606
C -1.0765972949 -0.5242748755 -0.0123551776
H -1.313264467 -1.5767591607 -0.0757276926
C -2.043634118 0.3926884087 0.0061254933
H -1.8137616575 1.4459188338 0.0804456828
H -3.085977293 0.114931858 -0.0593381042                     
$end
--------------------------------------------------------------
 ----------------------------------------------------------------
             Standard Nuclear Orientation (Angstroms)
    I     Atom           X                Y                Z
 ----------------------------------------------------------------
    1      H      -0.0348278765    -0.2442097827     0.0636489606
    2      C      -1.0765972949    -0.5242748755    -0.0123551776
    3      H      -1.3132644670    -1.5767591607    -0.0757276926
    4      C      -2.0436341180     0.3926884087     0.0061254933
    5      H      -1.8137616575     1.4459188338     0.0804456828
    6      H      -3.0859772930     0.1149318580    -0.0593381042
 ----------------------------------------------------------------
 Nuclear Repulsion Energy =          33.42237808 hartrees
 There are        8 alpha and        8 beta electrons
 Requested basis set is cc-pVDZ
 There are 24 shells and 48 basis functions
 Total memory of 40000 MB is distributed as follows: 
   MEM_STATIC is set to 1024 MB
   QALLOC/CCMAN JOB total memory use is  38976 MB
 Warning: actual memory use might exceed 40000 MB

 Total QAlloc Memory Limit  40000 MB
 Mega-Array Size      1001 MB
 MEM_STATIC part      1024 MB

                       Distance Matrix (Angstroms)
             H (  1)   C (  2)   H (  3)   C (  4)   H (  5)
   C (  2)  1.081433
   H (  3)  1.851895  1.080625
   C (  4)  2.108139  1.332788  2.102109
   H (  5)  2.453859  2.105632  3.067812  1.080583
   H (  6)  3.074674  2.109123  2.450428  1.080700  1.846510

 A cutoff of  1.0D-11 yielded    300 shell pairs
 There are      1220 function pairs (      1329 Cartesian)
 Smallest overlap matrix eigenvalue = 4.81E-03

 Scale SEOQF with 1.000000e-01/1.000000e-01/1.000000e+00

 Standard Electronic Orientation quadrupole field applied
 Nucleus-field energy     =     0.0000000022 hartrees
 Guess from superposition of atomic densities
 Warning:  Energy on first SCF cycle will be non-variational
 SAD guess density has 16.000000 electrons
 A restricted Hartree-Fock SCF calculation will be
 performed using Pulay DIIS extrapolation
 SCF converges when DIIS error is below 1.0E-08
 using 10 threads for integral computing
 -------------------------------------------------------
 OpenMP Integral computing Module                
 Release: version 1.0, May 2013, Q-Chem Inc. Pittsburgh 
 -------------------------------------------------------
 ---------------------------------------
  Cycle       Energy         DIIS Error
 ---------------------------------------
    1     -78.4386256969      1.01E-01
    2     -78.0176661151      7.21E-03
    3     -78.0382961301      1.84E-03
    4     -78.0397788836      5.73E-04
    5     -78.0399004353      5.79E-05
    6     -78.0399023115      9.33E-06
    7     -78.0399023721      2.23E-06
    8     -78.0399023750      8.93E-07
    9     -78.0399023752      9.41E-08
   10     -78.0399023753      1.31E-08
   11     -78.0399023753      3.67E-09 Convergence criterion met
 ---------------------------------------
 SCF time:  CPU 2.29 s  wall 3.05 s
 SCF   energy in the final basis set = -78.03990238
 Total energy in the final basis set = -78.03990238
Exporting Density Matrix to file 'Densmat_SCF.txt'.
Export successful
================================================================================
|                                                                              |
|                                 A D C  M A N                                 |
|                                                                              |
 ------------------------------------------------------------------------------ 
|                                                                              |
| Components:                                                                  |
|                                                                              |
| - libvmm - 1.3-trunk                                                         |
|   Authors:                                                                   |
|   Evgeny Epifanovsky, Ilya Kaliman                                           |
|                                                                              |
| - libtensor - 2.5-trunk                                                      |
|   Authors:                                                                   |
|   Evgeny Epifanovsky, Michael Wormit, Dmitry Zuev, Sam Manzer,               |
|   Ilya Kaliman                                                               |
|                                                                              |
| - libwfa - 1.1-trunk                                                         |
|   Authors:                                                                   |
|   Felix Plasser, Stefanie Mewes (Baeppler), Benjamin Thomitzni,              |
|   Michael Wormit, Feng Chen, Anna I. Krylov, Pavel Pokhilko                  |
|                                                                              |
| - libadc - 1.1-trunk                                                         |
|   Authors:                                                                   |
|   Michael Wormit, Adrian L. Dempwolff, Philipp H. P. Harbach,                |
|   Caroline Krauter, Dirk Rehn, Matthias Schneider, Jan Wenzel                |
|                                                                              |
| - adcman - 2.6-trunk                                                         |
|   Authors:                                                                   |
|   Michael Wormit, Adrian L. Dempwolff, Philipp H. P. Harbach,                |
|   Caroline Krauter, Daniel Lefrancois, Jan-Michael Mewes, Dirk Rehn,         |
|   Matthias Schneider, Jan Wenzel, Andreas Dreuw                              |
|                                                                              |
| Authors of earlier versions of ADCMAN:                                       |
| Andreas Dreuw, Jan Hendrik Starcke, Dirk Rehn, Michael Wormit                |
|                                                                              |
================================================================================

 Created directory /scratch/fum/qchem59738/plots
  Import QC data ...  CPU 0.00 s  wall 0.00 s

 Alpha MOs, Restricted
 -- Occupied --                  
-11.235 -11.233  -1.032  -0.790  -0.641  -0.582  -0.505  -0.374
  1 A     2 A     3 A     4 A     5 A     6 A     7 A     8 A                  
 -- Virtual --                   
  0.168   0.204   0.233   0.239   0.303   0.462   0.578   0.615
  9 A    10 A    11 A    12 A    13 A    14 A    15 A    16 A                  
  0.689   0.709   0.785   0.808   0.862   0.936   0.972   1.010
 17 A    18 A    19 A    20 A    21 A    22 A    23 A    24 A                  
  1.130   1.235   1.254   1.266   1.294   1.601   1.727   1.750
 25 A    26 A    27 A    28 A    29 A    30 A    31 A    32 A                  
  1.819   1.859   1.867   1.921   1.977   1.978   2.221   2.258
 33 A    34 A    35 A    36 A    37 A    38 A    39 A    40 A                  
  2.376   2.454   2.506   2.633   2.721   2.822   3.140   3.398
 41 A    42 A    43 A    44 A    45 A    46 A    47 A    48 A                  

 Beta MOs, Restricted
 -- Occupied --                  
-11.235 -11.233  -1.032  -0.790  -0.641  -0.582  -0.505  -0.374
  1 A     2 A     3 A     4 A     5 A     6 A     7 A     8 A                  
 -- Virtual --                   
  0.168   0.204   0.233   0.239   0.303   0.462   0.578   0.615
  9 A    10 A    11 A    12 A    13 A    14 A    15 A    16 A                  
  0.689   0.709   0.785   0.808   0.862   0.936   0.972   1.010
 17 A    18 A    19 A    20 A    21 A    22 A    23 A    24 A                  
  1.130   1.235   1.254   1.266   1.294   1.601   1.727   1.750
 25 A    26 A    27 A    28 A    29 A    30 A    31 A    32 A                  
  1.819   1.859   1.867   1.921   1.977   1.978   2.221   2.258
 33 A    34 A    35 A    36 A    37 A    38 A    39 A    40 A                  
  2.376   2.454   2.506   2.633   2.721   2.822   3.140   3.398
 41 A    42 A    43 A    44 A    45 A    46 A    47 A    48 A                  
  Import AO data ...  CPU 0.00 s  wall 0.02 s
  Using point group: C1
  Irreducible representations in point group: A
  Molecular orbitals: 
  Occupied MOs:
  Block   0:   1 (  A) A   2 (  A) A   3 (  A) A   4 (  A) A   5 (  A) A
                  -11.24      -11.23      -1.032     -0.7898     -0.6411
               6 (  A) A   7 (  A) A   8 (  A) A
                 -0.5819     -0.5046      -0.374
  Block   1:   1 (  A) B   2 (  A) B   3 (  A) B   4 (  A) B   5 (  A) B
                  -11.24      -11.23      -1.032     -0.7898     -0.6411
               6 (  A) B   7 (  A) B   8 (  A) B
                 -0.5819     -0.5046      -0.374
  Virtual MOs:
  Block   0:   9 (  A) A  10 (  A) A  11 (  A) A  12 (  A) A  13 (  A) A
                  0.1683      0.2037       0.233      0.2394      0.3033
              14 (  A) A  15 (  A) A  16 (  A) A  17 (  A) A  18 (  A) A
                   0.462      0.5775      0.6151      0.6892       0.709
              19 (  A) A  20 (  A) A  21 (  A) A  22 (  A) A
                  0.7845       0.808      0.8623      0.9359
  Block   1:  23 (  A) A  24 (  A) A  25 (  A) A  26 (  A) A  27 (  A) A
                  0.9724        1.01        1.13       1.235       1.254
              28 (  A) A  29 (  A) A  30 (  A) A  31 (  A) A  32 (  A) A
                   1.266       1.294       1.601       1.727        1.75
              33 (  A) A  34 (  A) A  35 (  A) A  36 (  A) A
                   1.819       1.859       1.867       1.921
  Block   2:  37 (  A) A  38 (  A) A  39 (  A) A  40 (  A) A  41 (  A) A
                   1.977       1.978       2.221       2.258       2.376
              42 (  A) A  43 (  A) A  44 (  A) A  45 (  A) A  46 (  A) A
                   2.454       2.506       2.633       2.721       2.822
              47 (  A) A  48 (  A) A
                    3.14       3.398
  Block   3:   9 (  A) B  10 (  A) B  11 (  A) B  12 (  A) B  13 (  A) B
                  0.1683      0.2037       0.233      0.2394      0.3033
              14 (  A) B  15 (  A) B  16 (  A) B  17 (  A) B  18 (  A) B
                   0.462      0.5775      0.6151      0.6892       0.709
              19 (  A) B  20 (  A) B  21 (  A) B  22 (  A) B
                  0.7845       0.808      0.8623      0.9359
  Block   4:  23 (  A) B  24 (  A) B  25 (  A) B  26 (  A) B  27 (  A) B
                  0.9724        1.01        1.13       1.235       1.254
              28 (  A) B  29 (  A) B  30 (  A) B  31 (  A) B  32 (  A) B
                   1.266       1.294       1.601       1.727        1.75
              33 (  A) B  34 (  A) B  35 (  A) B  36 (  A) B
                   1.819       1.859       1.867       1.921
  Block   5:  37 (  A) B  38 (  A) B  39 (  A) B  40 (  A) B  41 (  A) B
                   1.977       1.978       2.221       2.258       2.376
              42 (  A) B  43 (  A) B  44 (  A) B  45 (  A) B  46 (  A) B
                   2.454       2.506       2.633       2.721       2.822
              47 (  A) B  48 (  A) B
                    3.14       3.398
  Import MO data ...  CPU 0.01 s  wall 0.03 s
  Import HF data ...  CPU 0.19 s  wall 0.08 s
  Import 2e integrals ...  CPU 1.01 s  wall 0.20 s

--------------------------------------------------------------------------------
                                   HF Summary                                   
--------------------------------------------------------------------------------
  Energy:                                                  -78.0399023753 a.u.
  Dip. moment [a.u.]:                  [  -0.001203,    0.000332,    0.005927]
  Total dipole [Debye]:                                               0.015394
  <r^2> [a.u.]:                        [ 175.320274,   34.915889,   11.629417]
  Total <r^2> [a.u.]:                                               221.865580
--------------------------------------------------------------------------------
  HF properties ...  CPU 0.02 s  wall 0.02 s
  MP(1) calculation ...  CPU 0.01 s  wall 0.01 s
  N^6 prerequesite intermediates ...  CPU 0.74 s  wall 0.13 s
  Difference density matrix of state mp2_gs printed to ASCII file 'State_mp2_gs_Difference.txt'
Exporting MP density matrix to file 'Densmat_MP.txt'.
Export successful
  Total density matrix of state mp2_gs printed to ASCII file 'State_mp2_gs_Total.txt'
Exporting MP density matrix to file 'Densmat_MP.txt'.
Export successful

--------------------------------------------------------------------------------
                                 MP(2) Summary                                  
--------------------------------------------------------------------------------
  MP energy contribution:                                   -0.2797143432 a.u.
  Total energy:                                            -78.3196167184 a.u.
  Dip. moment [a.u.]:                  [  -0.001136,    0.000242,    0.005846]
  Total dipole [Debye]:                                               0.015151
  <r^2> [a.u.]:                        [ 175.367124,   34.956605,   11.461223]
  Total <r^2> [a.u.]:                                               221.784952

  Density matrix analysis:
  ------------------------
  NOs
    Occupation of frontier NOs:
       0.0453   1.9382
    Number of electrons: 16.000000
    Number of unpaired electrons: n_u =  0.40347, n_u,nl =  0.04509
    NO participation ratio (PR_NO): 13.856114
  
  
  Mulliken Population Analysis
  Atom      Charge (e)              h+              e-           Del q
  --------------------------------------------------------------------
   1 H        0.051074        0.014028       -0.011204        0.002824
   2 C       -0.100807        0.093252       -0.098854       -0.005603
   3 H        0.050458        0.014078       -0.011193        0.002886
   4 C       -0.101438        0.092980       -0.098917       -0.005937
   5 H        0.050176        0.014119       -0.011185        0.002934
   6 H        0.050538        0.014087       -0.011191        0.002896
  --------------------------------------------------------------------
  Sum:        0.000000        0.242544       -0.242544       -0.000000
  
  Multipole moment analysis of the density matrix
    Molecular charge:                      0.000000
    Number of electrons:                   16.000000
      Center of electronic charge [Ang]: [ -1.560539,  -0.065610,  -0.001965]
    Total nuclear charge:                  16.000000
      Center of nuclear charge [Ang]:    [ -1.560576,  -0.065602,  -0.001772]
    Dipole moment [D]:                     0.015151
      Cartesian components [D]:          [ -0.002887,   0.000614,   0.014860]
    RMS size of the density [Ang]:         1.200851
      Cartesian components [Ang]:        [  0.796214,   0.779422,   0.447870]
  
  Exciton analysis of the difference density matrix
    <r_h> [Ang]:                  [ -1.560246,  -0.065781,  -0.002918]
    <r_e> [Ang]:                  [ -1.560392,  -0.065583,  -0.002744]
    |<r_e - r_h>| [Ang]:            0.000302
    Hole size [Ang]:                1.393734
      Cartesian components [Ang]: [  0.846783,   0.834015,   0.727922]
    Electron size [Ang]:            1.359770
      Cartesian components [Ang]: [  0.877881,   0.861752,   0.579383]
--------------------------------------------------------------------------------
  MP(2) calculation ...  CPU 0.22 s  wall 0.16 s
  Start ADC(2)-s ...  CPU 0.01 s  wall 0.01 s
  ADC(2) intermediates ...  CPU 0.03 s  wall 0.01 s
  Starting Davidson for singlet states of irrep A ... 
--------------------------------------------------------------------------------
   It NVec Conv  Avg. Norm  Max. Norm  Conv. states           Remark
--------------------------------------------------------------------------------
        10    0  1.330e-01  4.687e-01  0.4119 n n n n n n n n Guess.
    1   20    0  2.319e-02  1.109e-01  0.3262 n n n n n n n n 
    2   30    0  6.081e-03  2.470e-02  0.3214 n n n n n n n n 
    3   40    0  2.067e-03  1.017e-02  0.3210 n n n n n n n n 
    4   50    0  5.293e-04  3.350e-03  0.3210 n n n n n n n n 
    5   20    0  2.926e-04  1.563e-03  0.3210 n n n n n n n n Subspace collapsed.
    6   30    0  2.339e-04  1.293e-03  0.3210 n n n n n n n n 
    7   40    0  1.470e-04  8.842e-04  0.3210 n n n n n n n n 
    8   50    0  9.353e-05  6.290e-04  0.3210 n n n n n n n n 
    9   20    0  7.112e-05  4.910e-04  0.3210 n n n n n n n n Subspace collapsed.
   10   30    2  3.387e-05  1.950e-04  0.3210 n y n y n n n n 
   11   40    3  2.195e-05  1.518e-04  0.3210 n y y y n n n n 
   12   50    6  1.033e-05  7.383e-05  0.3210 y y y y y y n n 
   13   20    6  7.482e-06  5.752e-05  0.3210 y y y y y y n n Subspace collapsed.
   14   30    6  7.076e-06  5.801e-05  0.3210 y y y y y y n n 
   15   40    6  8.841e-06  7.886e-05  0.3210 y y y y y y n n 
   16   50    6  5.827e-06  5.506e-05  0.3210 y y y y y y n n 
   17   20    7  2.392e-06  2.244e-05  0.3210 y y y y y y y n Subspace collapsed.
   18   30    7  1.220e-06  1.122e-05  0.3210 y y y y y y y n 
   19   40    7  7.424e-07  7.024e-06  0.3210 y y y y y y y n 
   20   50    8  6.764e-07  6.538e-06  0.3210 y y y y y y y y 
   21   20    8  4.463e-07  4.325e-06  0.3210 y y y y y y y y Subspace collapsed.
   22   30    8  6.468e-07  6.328e-06  0.3210 y y y y y y y y 
   23   40    8  7.296e-07  7.201e-06  0.3210 y y y y y y y y 
   24   41    8  7.336e-07  7.241e-06  0.3210 y y y y y y y y 
   25   42    8  7.324e-07  7.229e-06  0.3210 y y y y y y y y 
   26   42    8  7.324e-07  7.229e-06  0.3210 y y y y y y y y 
   27   50    9  7.120e-07  7.067e-06  0.3210 y y y y y y y y 
   28   16    9  3.407e-07  3.383e-06  0.3210 y y y y y y y y Subspace collapsed.
   29   22    9  2.478e-07  2.459e-06  0.3210 y y y y y y y y 
   30   28    9  1.554e-07  1.544e-06  0.3210 y y y y y y y y 
   31   34    9  1.556e-07  1.550e-06  0.3210 y y y y y y y y 
   32   34    9  1.556e-07  1.550e-06  0.3210 y y y y y y y y 
   33   44    9  1.500e-07  1.497e-06  0.3210 y y y y y y y y 
   34   49    9  1.491e-07  1.489e-06  0.3210 y y y y y y y y 
   35   50    9  1.491e-07  1.489e-06  0.3210 y y y y y y y y 
   36   14   10  5.784e-08  5.777e-07  0.3210 y y y y y y y y Converged.
--------------------------------------------------------------------------------
  Davidson Summary: 
 ------------------------------------------------------------
  State  0: excitation energy =   0.3210 a.u.   (converged)
  State  1: excitation energy =   0.3327 a.u.   (converged)
  State  2: excitation energy =   0.3370 a.u.   (converged)
  State  3: excitation energy =   0.3614 a.u.   (converged)
  State  4: excitation energy =   0.3752 a.u.   (converged)
  State  5: excitation energy =   0.3871 a.u.   (converged)
  State  6: excitation energy =   0.4247 a.u.   (converged)
  State  7: excitation energy =   0.4470 a.u.   (converged)
  State  8: excitation energy =   0.4563 a.u.   (converged)
  State  9: excitation energy =   0.4647 a.u.   (converged)
 ------------------------------------------------------------

  Singlet states of irrep A ...  CPU 185.85 s  wall 55.32 s
  TDMs ...  CPU 1.54 s  wall 0.59 s
  SDMs ...  CPU 2.52 s  wall 0.93 s
  Starting TPA DIIS iterations ... 
------------------------------------ 
   It     Res. Norm  Remark
------------------------------------
                       Guess.
    1     4.408e+00  
    2     5.845e+00  
    3     1.078e+00  
    4     2.570e-01  
    5     6.580e-02  
    6     2.678e-02  
    7     8.243e-03  
    8     1.444e-03  
    9     5.357e-04  
   10     9.026e-05  
   11     2.878e-05  
   12     4.498e-06  
   13     1.660e-06  
   14     4.763e-07  Converged.
   ... Converged in 14 steps (norm: 4.76293e-07)
------------------------------------
  Starting TPA DIIS iterations ... 
------------------------------------ 
   It     Res. Norm  Remark
------------------------------------
                       Guess.
    1     4.183e+00  
    2     5.539e+00  
    3     1.029e+00  
    4     2.555e-01  
    5     6.539e-02  
    6     2.672e-02  
    7     8.117e-03  
    8     1.457e-03  
    9     5.390e-04  
   10     9.019e-05  
   11     2.888e-05  
   12     4.547e-06  
   13     1.564e-06  
   14     4.793e-07  Converged.
   ... Converged in 14 steps (norm: 4.79286e-07)
------------------------------------
  Starting TPA DIIS iterations ... 
------------------------------------ 
   It     Res. Norm  Remark
------------------------------------
                       Guess.
    1     6.991e-01  
    2     5.087e-01  
    3     1.792e-01  
    4     1.245e-01  
    5     1.698e-02  
    6     6.194e-03  
    7     1.037e-03  
    8     4.481e-04  
    9     1.236e-04  
   10     2.976e-05  
   11     4.973e-06  
   12     1.638e-06  
   13     1.003e-06  
   14     2.799e-07  Converged.
   ... Converged in 14 steps (norm: 2.79929e-07)
------------------------------------
  Starting TPA DIIS iterations ... 
------------------------------------ 
   It     Res. Norm  Remark
------------------------------------
                       Guess.
    1     4.696e+00  
    2     6.363e+00  
    3     1.159e+00  
    4     2.856e-01  
    5     7.415e-02  
    6     3.044e-02  
    7     9.351e-03  
    8     1.636e-03  
    9     6.116e-04  
   10     1.036e-04  
   11     3.344e-05  
   12     5.271e-06  
   13     2.000e-06  
   14     5.691e-07  Converged.
   ... Converged in 14 steps (norm: 5.69134e-07)
------------------------------------
  Starting TPA DIIS iterations ... 
------------------------------------ 
   It     Res. Norm  Remark
------------------------------------
                       Guess.
    1     4.456e+00  
    2     6.029e+00  
    3     1.106e+00  
    4     2.838e-01  
    5     7.371e-02  
    6     3.039e-02  
    7     9.210e-03  
    8     1.652e-03  
    9     6.154e-04  
   10     1.035e-04  
   11     3.354e-05  
   12     5.345e-06  
   13     1.866e-06  
   14     5.704e-07  Converged.
   ... Converged in 14 steps (norm: 5.70387e-07)
------------------------------------
  Starting TPA DIIS iterations ... 
------------------------------------ 
   It     Res. Norm  Remark
------------------------------------
                       Guess.
    1     7.125e-01  
    2     5.298e-01  
    3     1.904e-01  
    4     1.375e-01  
    5     1.841e-02  
    6     6.843e-03  
    7     1.171e-03  
    8     5.284e-04  
    9     1.495e-04  
   10     3.413e-05  
   11     5.630e-06  
   12     1.890e-06  
   13     1.168e-06  
   14     3.426e-07  Converged.
   ... Converged in 14 steps (norm: 3.42606e-07)
------------------------------------
  Starting TPA DIIS iterations ... 
------------------------------------ 
   It     Res. Norm  Remark
------------------------------------
                       Guess.
    1     4.810e+00  
    2     6.570e+00  
    3     1.191e+00  
    4     2.973e-01  
    5     7.754e-02  
    6     3.194e-02  
    7     9.803e-03  
    8     1.714e-03  
    9     6.426e-04  
   10     1.090e-04  
   11     3.537e-05  
   12     5.593e-06  
   13     2.145e-06  
   14     6.089e-07  Converged.
   ... Converged in 14 steps (norm: 6.08936e-07)
------------------------------------
  Starting TPA DIIS iterations ... 
------------------------------------ 
   It     Res. Norm  Remark
------------------------------------
                       Guess.
    1     4.563e+00  
    2     6.225e+00  
    3     1.137e+00  
    4     2.953e-01  
    5     7.709e-02  
    6     3.190e-02  
    7     9.656e-03  
    8     1.731e-03  
    9     6.467e-04  
   10     1.090e-04  
   11     3.548e-05  
   12     5.678e-06  
   13     1.994e-06  
   14     6.087e-07  Converged.
   ... Converged in 14 steps (norm: 6.08737e-07)
------------------------------------
  Starting TPA DIIS iterations ... 
------------------------------------ 
   It     Res. Norm  Remark
------------------------------------
                       Guess.
    1     7.175e-01  
    2     5.379e-01  
    3     1.948e-01  
    4     1.426e-01  
    5     1.898e-02  
    6     7.106e-03  
    7     1.227e-03  
    8     5.621e-04  
    9     1.603e-04  
   10     3.558e-05  
   11     5.893e-06  
   12     1.993e-06  
   13     1.234e-06  
   14     3.694e-07  Converged.
   ... Converged in 14 steps (norm: 3.69421e-07)
------------------------------------
  Starting TPA DIIS iterations ... 
------------------------------------ 
   It     Res. Norm  Remark
------------------------------------
                       Guess.
    1     5.551e+00  
    2     7.952e+00  
    3     1.399e+00  
    4     3.776e-01  
    5     1.009e-01  
    6     4.234e-02  
    7     1.291e-02  
    8     2.249e-03  
    9     8.585e-04  
   10     1.469e-04  
   11     4.918e-05  
   12     7.889e-06  
   13     3.257e-06  
   14     9.203e-07  Converged.
   ... Converged in 14 steps (norm: 9.20256e-07)
------------------------------------
  Starting TPA DIIS iterations ... 
------------------------------------ 
   It     Res. Norm  Remark
------------------------------------
                       Guess.
    1     5.264e+00  
    2     7.535e+00  
    3     1.334e+00  
    4     3.743e-01  
    5     1.004e-01  
    6     4.235e-02  
    7     1.273e-02  
    8     2.277e-03  
    9     8.641e-04  
   10     1.471e-04  
   11     4.929e-05  
   12     8.085e-06  
   13     2.956e-06  
   14     8.914e-07  Converged.
   ... Converged in 14 steps (norm: 8.91412e-07)
------------------------------------
  Starting TPA DIIS iterations ... 
------------------------------------ 
   It     Res. Norm  Remark
------------------------------------
                       Guess.
    1     7.481e-01  
    2     5.898e-01  
    3     2.228e-01  
    4     1.746e-01  
    5     2.277e-02  
    6     8.917e-03  
    7     1.626e-03  
    8     8.002e-04  
    9     2.357e-04  
   10     4.128e-05  
   11     7.659e-06  
   12     2.702e-06  
   13     1.676e-06  
   14     5.719e-07  Converged.
   ... Converged in 14 steps (norm: 5.71873e-07)
------------------------------------
  Starting TPA DIIS iterations ... 
------------------------------------ 
   It     Res. Norm  Remark
------------------------------------
                       Guess.
    1     6.061e+00  
    2     8.937e+00  
    3     1.541e+00  
    4     4.370e-01  
    5     1.182e-01  
    6     5.013e-02  
    7     1.521e-02  
    8     2.644e-03  
    9     1.020e-03  
   10     1.753e-04  
   11     5.984e-05  
   12     9.659e-06  
   13     4.199e-06  
   14     1.201e-06  
   15     7.767e-07  Converged.
   ... Converged in 15 steps (norm: 7.76671e-07)
------------------------------------
  Starting TPA DIIS iterations ... 
------------------------------------ 
   It     Res. Norm  Remark
------------------------------------
                       Guess.
    1     5.746e+00  
    2     8.467e+00  
    3     1.469e+00  
    4     4.327e-01  
    5     1.176e-01  
    6     5.018e-02  
    7     1.500e-02  
    8     2.680e-03  
    9     1.027e-03  
   10     1.756e-04  
   11     5.994e-05  
   12     9.972e-06  
   13     3.745e-06  
   14     1.120e-06  
   15     4.371e-07  Converged.
   ... Converged in 15 steps (norm: 4.37096e-07)
------------------------------------
  Starting TPA DIIS iterations ... 
------------------------------------ 
   It     Res. Norm  Remark
------------------------------------
                       Guess.
    1     7.671e-01  
    2     6.245e-01  
    3     2.417e-01  
    4     1.951e-01  
    5     2.547e-02  
    6     1.026e-02  
    7     1.937e-03  
    8     9.717e-04  
    9     2.891e-04  
   10     4.255e-05  
   11     8.963e-06  
   12     3.221e-06  
   13     1.973e-06  
   14     7.379e-07  Converged.
   ... Converged in 14 steps (norm: 7.37869e-07)
------------------------------------
  Starting TPA DIIS iterations ... 
------------------------------------ 
   It     Res. Norm  Remark
------------------------------------
                       Guess.
    1     6.561e+00  
    2     9.926e+00  
    3     1.679e+00  
    4     4.982e-01  
    5     1.360e-01  
    6     5.822e-02  
    7     1.759e-02  
    8     3.051e-03  
    9     1.188e-03  
   10     2.048e-04  
   11     7.114e-05  
   12     1.153e-05  
   13     5.269e-06  
   14     1.546e-06  
   15     1.022e-06  
   16     3.939e-07  Converged.
   ... Converged in 16 steps (norm: 3.93907e-07)
------------------------------------
  Starting TPA DIIS iterations ... 
------------------------------------ 
   It     Res. Norm  Remark
------------------------------------
                       Guess.
    1     6.220e+00  
    2     9.404e+00  
    3     1.600e+00  
    4     4.927e-01  
    5     1.354e-01  
    6     5.833e-02  
    7     1.734e-02  
    8     3.094e-03  
    9     1.196e-03  
   10     2.053e-04  
   11     7.123e-05  
   12     1.199e-05  
   13     4.619e-06  
   14     1.373e-06  
   15     5.486e-07  Converged.
   ... Converged in 15 steps (norm: 5.48634e-07)
------------------------------------
  Starting TPA DIIS iterations ... 
------------------------------------ 
   It     Res. Norm  Remark
------------------------------------
                       Guess.
    1     7.844e-01  
    2     6.579e-01  
    3     2.599e-01  
    4     2.139e-01  
    5     2.818e-02  
    6     1.163e-02  
    7     2.271e-03  
    8     1.135e-03  
    9     3.404e-04  
   10     4.312e-05  
   11     1.033e-05  
   12     3.754e-06  
   13     2.257e-06  
   14     9.186e-07  Converged.
   ... Converged in 14 steps (norm: 9.18584e-07)
------------------------------------
  Starting TPA DIIS iterations ... 
------------------------------------ 
   It     Res. Norm  Remark
------------------------------------
                       Guess.
    1     8.674e+00  
    2     1.435e+01  
    3     2.254e+00  
    4     7.844e-01  
    5     2.194e-01  
    6     9.689e-02  
    7     2.869e-02  
    8     4.948e-03  
    9     1.993e-03  
   10     3.443e-04  
   11     1.263e-04  
   12     2.058e-05  
   13     1.146e-05  
   14     4.032e-06  
   15     2.534e-06  
   16     1.103e-06  
   17     5.414e-07  Converged.
   ... Converged in 17 steps (norm: 5.41409e-07)
------------------------------------
  Starting TPA DIIS iterations ... 
------------------------------------ 
   It     Res. Norm  Remark
------------------------------------
                       Guess.
    1     8.218e+00  
    2     1.359e+01  
    3     2.146e+00  
    4     7.726e-01  
    5     2.185e-01  
    6     9.731e-02  
    7     2.831e-02  
    8     5.032e-03  
    9     2.005e-03  
   10     3.463e-04  
   11     1.263e-04  
   12     2.218e-05  
   13     9.287e-06  
   14     2.753e-06  
   15     1.166e-06  
   16     3.693e-07  Converged.
   ... Converged in 16 steps (norm: 3.69271e-07)
------------------------------------
  Starting TPA DIIS iterations ... 
------------------------------------ 
   It     Res. Norm  Remark
------------------------------------
                       Guess.
    1     8.482e-01  
    2     7.952e-01  
    3     3.333e-01  
    4     2.802e-01  
    5     4.018e-02  
    6     1.797e-02  
    7     3.942e-03  
    8     1.656e-03  
    9     5.388e-04  
   10     5.236e-05  
   11     1.711e-05  
   12     6.398e-06  
   13     3.685e-06  
   14     1.804e-06  
   15     4.911e-07  Converged.
   ... Converged in 15 steps (norm: 4.91095e-07)
------------------------------------
  Starting TPA DIIS iterations ... 
------------------------------------ 
   It     Res. Norm  Remark
------------------------------------
                       Guess.
    1     1.050e+01  
    2     1.845e+01  
    3     2.737e+00  
    4     1.059e+00  
    5     3.002e-01  
    6     1.353e-01  
    7     3.945e-02  
    8     6.784e-03  
    9     2.793e-03  
   10     4.806e-04  
   11     1.810e-04  
   12     2.959e-05  
   13     1.897e-05  
   14     7.735e-06  
   15     4.547e-06  
   16     2.050e-06  
   17     8.654e-07  Converged.
   ... Converged in 17 steps (norm: 8.65437e-07)
------------------------------------
  Starting TPA DIIS iterations ... 
------------------------------------ 
   It     Res. Norm  Remark
------------------------------------
                       Guess.
    1     9.944e+00  
    2     1.747e+01  
    3     2.605e+00  
    4     1.040e+00  
    5     2.991e-01  
    6     1.360e-01  
    7     3.893e-02  
    8     6.910e-03  
    9     2.809e-03  
   10     4.848e-04  
   11     1.812e-04  
   12     3.285e-05  
   13     1.429e-05  
   14     4.349e-06  
   15     1.946e-06  
   16     6.205e-07  Converged.
   ... Converged in 16 steps (norm: 6.20466e-07)
------------------------------------
  Starting TPA DIIS iterations ... 
------------------------------------ 
   It     Res. Norm  Remark
------------------------------------
                       Guess.
    1     8.954e-01  
    2     9.126e-01  
    3     3.918e-01  
    4     3.247e-01  
    5     5.112e-02  
    6     2.372e-02  
    7     5.626e-03  
    8     1.870e-03  
    9     6.907e-04  
   10     7.068e-05  
   11     2.402e-05  
   12     9.478e-06  
   13     6.010e-06  
   14     2.704e-06  
   15     7.217e-07  Converged.
   ... Converged in 15 steps (norm: 7.21651e-07)
------------------------------------
  Starting TPA DIIS iterations ... 
------------------------------------ 
   It     Res. Norm  Remark
------------------------------------
                       Guess.
    1     1.144e+01  
    2     2.065e+01  
    3     2.981e+00  
    4     1.208e+00  
    5     3.445e-01  
    6     1.566e-01  
    7     4.535e-02  
    8     7.792e-03  
    9     3.240e-03  
   10     5.555e-04  
   11     2.114e-04  
   12     3.467e-05  
   13     2.357e-05  
   14     1.018e-05  
   15     5.898e-06  
   16     2.689e-06  
   17     1.059e-06  
   18     4.885e-07  Converged.
   ... Converged in 18 steps (norm: 4.88491e-07)
------------------------------------
  Starting TPA DIIS iterations ... 
------------------------------------ 
   It     Res. Norm  Remark
------------------------------------
                       Guess.
    1     1.083e+01  
    2     1.956e+01  
    3     2.837e+00  
    4     1.185e+00  
    5     3.434e-01  
    6     1.576e-01  
    7     4.476e-02  
    8     7.941e-03  
    9     3.256e-03  
   10     5.611e-04  
   11     2.117e-04  
   12     3.895e-05  
   13     1.710e-05  
   14     5.324e-06  
   15     2.475e-06  
   16     7.802e-07  Converged.
   ... Converged in 16 steps (norm: 7.80204e-07)
------------------------------------
  Starting TPA DIIS iterations ... 
------------------------------------ 
   It     Res. Norm  Remark
------------------------------------
                       Guess.
    1     9.181e-01  
    2     9.736e-01  
    3     4.203e-01  
    4     3.448e-01  
    5     5.692e-02  
    6     2.663e-02  
    7     6.545e-03  
    8     1.928e-03  
    9     7.646e-04  
   10     8.164e-05  
   11     2.787e-05  
   12     1.148e-05  
   13     7.838e-06  
   14     3.195e-06  
   15     8.647e-07  Converged.
   ... Converged in 15 steps (norm: 8.64661e-07)
------------------------------------
  Starting TPA DIIS iterations ... 
------------------------------------ 
   It     Res. Norm  Remark
------------------------------------
                       Guess.
    1     1.242e+01  
    2     2.301e+01  
    3     3.233e+00  
    4     1.368e+00  
    5     3.925e-01  
    6     1.798e-01  
    7     5.173e-02  
    8     8.883e-03  
    9     3.727e-03  
   10     6.364e-04  
   11     2.445e-04  
   12     4.033e-05  
   13     2.885e-05  
   14     1.307e-05  
   15     7.564e-06  
   16     3.490e-06  
   17     1.294e-06  
   18     5.772e-07  Converged.
   ... Converged in 18 steps (norm: 5.77162e-07)
------------------------------------
  Starting TPA DIIS iterations ... 
------------------------------------ 
   It     Res. Norm  Remark
------------------------------------
                       Guess.
    1     1.176e+01  
    2     2.179e+01  
    3     3.076e+00  
    4     1.340e+00  
    5     3.912e-01  
    6     1.811e-01  
    7     5.105e-02  
    8     9.059e-03  
    9     3.745e-03  
   10     6.438e-04  
   11     2.449e-04  
   12     4.573e-05  
   13     2.016e-05  
   14     6.459e-06  
   15     3.128e-06  
   16     9.708e-07  Converged.
   ... Converged in 16 steps (norm: 9.70792e-07)
------------------------------------
  Starting TPA DIIS iterations ... 
------------------------------------ 
   It     Res. Norm  Remark
------------------------------------
                       Guess.
    1     9.408e-01  
    2     1.038e+00  
    3     4.488e-01  
    4     3.644e-01  
    5     6.307e-02  
    6     2.956e-02  
    7     7.526e-03  
    8     1.971e-03  
    9     8.395e-04  
   10     9.337e-05  
   11     3.203e-05  
   12     1.393e-05  
   13     1.023e-05  
   14     3.687e-06  
   15     1.027e-06  
   16     6.584e-07  Converged.
   ... Converged in 16 steps (norm: 6.58403e-07)
------------------------------------
  Two-photon absorbption ...  CPU 128.61 s  wall 32.08 s
  Transition density matrix of state singlet_A_1 printed to ASCII file 'State_singlet_A_1_Transition.txt'
  Transition density matrix of state singlet_A_2 printed to ASCII file 'State_singlet_A_2_Transition.txt'
  Transition density matrix of state singlet_A_3 printed to ASCII file 'State_singlet_A_3_Transition.txt'
  Transition density matrix of state singlet_A_4 printed to ASCII file 'State_singlet_A_4_Transition.txt'
  Transition density matrix of state singlet_A_5 printed to ASCII file 'State_singlet_A_5_Transition.txt'
  Transition density matrix of state singlet_A_6 printed to ASCII file 'State_singlet_A_6_Transition.txt'
  Transition density matrix of state singlet_A_7 printed to ASCII file 'State_singlet_A_7_Transition.txt'
  Transition density matrix of state singlet_A_8 printed to ASCII file 'State_singlet_A_8_Transition.txt'
  Transition density matrix of state singlet_A_9 printed to ASCII file 'State_singlet_A_9_Transition.txt'
  Transition density matrix of state singlet_A_10 printed to ASCII file 'State_singlet_A_10_Transition.txt'
  Transition properties ...  CPU 0.28 s  wall 0.52 s
  Difference density matrix of state singlet_A_1 printed to ASCII file 'State_singlet_A_1_Difference.txt'
  Total density matrix of state singlet_A_1 printed to ASCII file 'State_singlet_A_1_Total.txt'
  Difference density matrix of state singlet_A_2 printed to ASCII file 'State_singlet_A_2_Difference.txt'
  Total density matrix of state singlet_A_2 printed to ASCII file 'State_singlet_A_2_Total.txt'
  Difference density matrix of state singlet_A_3 printed to ASCII file 'State_singlet_A_3_Difference.txt'
  Total density matrix of state singlet_A_3 printed to ASCII file 'State_singlet_A_3_Total.txt'
  Difference density matrix of state singlet_A_4 printed to ASCII file 'State_singlet_A_4_Difference.txt'
  Total density matrix of state singlet_A_4 printed to ASCII file 'State_singlet_A_4_Total.txt'
  Difference density matrix of state singlet_A_5 printed to ASCII file 'State_singlet_A_5_Difference.txt'
  Total density matrix of state singlet_A_5 printed to ASCII file 'State_singlet_A_5_Total.txt'
  Difference density matrix of state singlet_A_6 printed to ASCII file 'State_singlet_A_6_Difference.txt'
  Total density matrix of state singlet_A_6 printed to ASCII file 'State_singlet_A_6_Total.txt'
  Difference density matrix of state singlet_A_7 printed to ASCII file 'State_singlet_A_7_Difference.txt'
  Total density matrix of state singlet_A_7 printed to ASCII file 'State_singlet_A_7_Total.txt'
  Difference density matrix of state singlet_A_8 printed to ASCII file 'State_singlet_A_8_Difference.txt'
  Total density matrix of state singlet_A_8 printed to ASCII file 'State_singlet_A_8_Total.txt'
  Difference density matrix of state singlet_A_9 printed to ASCII file 'State_singlet_A_9_Difference.txt'
  Total density matrix of state singlet_A_9 printed to ASCII file 'State_singlet_A_9_Total.txt'
  Difference density matrix of state singlet_A_10 printed to ASCII file 'State_singlet_A_10_Difference.txt'
  Total density matrix of state singlet_A_10 printed to ASCII file 'State_singlet_A_10_Total.txt'
  Properties ...  CPU 0.52 s  wall 0.79 s
  ISR TDMS ...  CPU 19.61 s  wall 6.28 s
  ISR transition properties ...  CPU 0.35 s  wall 0.18 s
  Sum-over-states TPA ...  CPU 0.00 s  wall 0.00 s

--------------------------------------------------------------------------------
                   State-averaged natural transition orbitals
--------------------------------------------------------------------------------
--------------------------------------------------------------------------------
  SA-NTO decomposition ...  CPU 0.01 s  wall 0.02 s

--------------------------------------------------------------------------------
                             Excited State Summary
--------------------------------------------------------------------------------
--------------------------------------------------------------------------------

  Excited state 1 (singlet, A)                                     [converged]
  ----------------------------------------------------------------------------
  Term symbol:  2 (1) A                                     R^2 =  7.13926e-14

  Total energy:                                            -77.9985835346 a.u.
  Excitation energy:                                               8.735757 eV

  Osc. strength:                                                      0.445445
  Trans. dip. moment [a.u.]:           [   1.045840,   -0.993497,   -0.022046]
  <i|r^2|0> [a.u.]:                    [   6.165862,   -0.245613,   -0.001117]
  Two-photon absorption cross-section (SoS) [a.u.]:                   0.000533
  Two-photon absorption matrix (SoS) [a.u.]:
                                       |    0.004365   -0.001718   -0.004344 |
                                       |   -0.001718    0.001763    0.002963 |
                                       |   -0.004344    0.002963    0.002945 |
  Two-photon absorption cross-section [a.u.]:                         0.001683
  Two-photon absorption matrix [a.u.]:
                                       |   -0.001805   -0.002928   -0.008116 |
                                       |   -0.002928   -0.007243    0.009718 |
                                       |   -0.008116    0.009718    0.002995 |

  Dip. moment [a.u.]:                  [  -0.001365,    0.000260,    0.007250]
  Total dipole [Debye]:                                               0.018763
  <r^2> [a.u.]:                        [ 176.120224,   35.648090,   11.870923]
  Total <r^2> [a.u.]:                                               223.639238

  V1^2 = 0.9715, V2^2 = 0.0285

  Important amplitudes:
      occ i     occ j     vir a      vir b          v   
    -----------------------------------------------------
     8 (A) A              9 (A) A                 0.6811
     6 (A) A             14 (A) A                 0.0623
     4 (A) A             10 (A) A                -0.0606
     7 (A) A             16 (A) A                 0.0569
     5 (A) A             13 (A) A                -0.0513
     6 (A) A             23 (A) A                 0.0486
     8 (A) A             20 (A) A                 0.0349
     6 (A) A             19 (A) A                 0.0309
     3 (A) A             12 (A) A                 0.0281
     5 (A) A             22 (A) A                -0.0215
     7 (A) A             11 (A) A                 0.0209
     4 (A) A             24 (A) A                -0.0187
     3 (A) A             26 (A) A                -0.0185
     8 (A) A   8 (A) B   17 (A) A   20 (A) B     -0.0184
     8 (A) A   8 (A) B    9 (A) A   28 (A) B     -0.0168
     6 (A) A             26 (A) A                 0.0163
     7 (A) A             21 (A) A                 0.0148
     3 (A) A             14 (A) A                -0.0139
     6 (A) A             12 (A) A                 0.0132
     3 (A) A   4 (A) B    9 (A) A    9 (A) B      0.0129
     3 (A) A             19 (A) A                -0.0119
     8 (A) A   8 (A) B   18 (A) A   19 (A) B      0.0113
     7 (A) A             32 (A) A                 0.0096
     7 (A) A             36 (A) A                 0.0086
     3 (A) A             23 (A) A                -0.0080
     8 (A) A   8 (A) B   25 (A) A   29 (A) B      0.0075
     6 (A) A             35 (A) A                 0.0072
     6 (A) A             40 (A) A                 0.0068
     3 (A) A   6 (A) B    9 (A) A   28 (A) B      0.0065
     6 (A) A   8 (A) A   19 (A) A   28 (A) A      0.0061
     5 (A) A   7 (A) B    9 (A) A    9 (A) B     -0.0060
     5 (A) A   8 (A) B   11 (A) A   20 (A) B     -0.0059
     7 (A) A   8 (A) B   13 (A) A   20 (A) B      0.0059
     5 (A) A   8 (A) B   16 (A) A    9 (A) B     -0.0059
     5 (A) A   8 (A) B   11 (A) A    9 (A) B      0.0059
     3 (A) A   5 (A) B    9 (A) A   25 (A) B     -0.0058
     7 (A) A   8 (A) B   22 (A) A   20 (A) B      0.0057
     3 (A) A             40 (A) A                -0.0057
     6 (A) A   8 (A) A    9 (A) A   18 (A) A      0.0057
     8 (A) A   8 (A) B   19 (A) A   30 (A) B      0.0056
    -----------------------------------------------------

  Density matrix analysis:
  ------------------------
  NOs
    Occupation of frontier NOs:
       0.9495   1.0217
    Number of electrons: 16.000000
    Number of unpaired electrons: n_u =  2.31341, n_u,nl =  2.03264
    NO participation ratio (PR_NO):  2.863858
  
  
  Mulliken Population Analysis
  Atom      Charge (e)              h+              e-           Del q
  --------------------------------------------------------------------
   1 H        0.058720        0.020299       -0.012652        0.007647
   2 C       -0.115894        0.490897       -0.505983       -0.015087
   3 H        0.057942        0.020180       -0.012696        0.007484
   4 C       -0.116919        0.490716       -0.506197       -0.015481
   5 H        0.057833        0.020225       -0.012567        0.007657
   6 H        0.058318        0.020315       -0.012535        0.007780
  --------------------------------------------------------------------
  Sum:        0.000000        1.062631       -1.062631       -0.000000
  
  Multipole moment analysis of the density matrix
    Molecular charge:                      0.000000
    Number of electrons:                   16.000000
      Center of electronic charge [Ang]: [ -1.560531,  -0.065611,  -0.002012]
    Total nuclear charge:                  16.000000
      Center of nuclear charge [Ang]:    [ -1.560576,  -0.065602,  -0.001772]
    Dipole moment [D]:                     0.018763
      Cartesian components [D]:          [ -0.003468,   0.000662,   0.018428]
    RMS size of the density [Ang]:         1.214298
      Cartesian components [Ang]:        [  0.804463,   0.787147,   0.455805]
  
  Exciton analysis of the difference density matrix
    <r_h> [Ang]:                  [ -1.560078,  -0.065680,  -0.004914]
    <r_e> [Ang]:                  [ -1.559965,  -0.065689,  -0.005612]
    |<r_e - r_h>| [Ang]:            0.000708
    Hole size [Ang]:                1.285502
      Cartesian components [Ang]: [  0.728517,   0.712677,   0.783499]
    Electron size [Ang]:            1.463390
      Cartesian components [Ang]: [  0.854138,   0.830740,   0.849605]

  Transition density matrix analysis:
  -----------------------------------
  
  CT numbers (Mulliken)
    omega =     0.9535
    <Phe> =    -0.1607
  
  Exciton analysis of the transition density matrix
    Trans. dipole moment [D]:             1.833453
      Cartesian components [D]:         [  1.329130,  -1.262609,  -0.028018]
    <r_h> [Ang]:                        [ -1.559986,  -0.065835,  -0.004370]
    <r_e> [Ang]:                        [ -1.559958,  -0.065654,  -0.006077]
    |<r_e - r_h>| [Ang]:                  0.001717
    Hole size [Ang]:                      1.214201
      Cartesian components [Ang]:       [  0.649584,   0.636515,   0.804470]
    Electron size [Ang]:                  1.486258
      Cartesian components [Ang]:       [  0.864610,   0.839622,   0.869740]
    RMS electron-hole separation [Ang]:   1.936933
      Cartesian components [Ang]:       [  1.106906,   1.075323,   1.170533]
    Covariance(r_h, r_e) [Ang^2]:        -0.034230
    Correlation coefficient:             -0.018968
    Center-of-mass size [Ang]:            0.950630
      Cartesian components [Ang]:       [  0.527679,   0.515731,   0.599394]

  Decomposition into state-averaged NTOs
    H- 0 -> L+ 0:  0.6698 ( 89.7%)
    H- 2 -> L+ 5:  0.0837 (  1.4%)
                   omega =  95.4%
  ----------------------------------------------------------------------------


  Excited state 2 (singlet, A)                                     [converged]
  ----------------------------------------------------------------------------
  Term symbol:  3 (1) A                                     R^2 =  7.20112e-14

  Total energy:                                            -77.9869022962 a.u.
  Excitation energy:                                               9.053620 eV

  Osc. strength:                                                      0.000010
  Trans. dip. moment [a.u.]:           [   0.001088,   -0.006745,    0.000101]
  <i|r^2|0> [a.u.]:                    [  -0.036117,   -0.109454,    0.150482]
  Two-photon absorption cross-section (SoS) [a.u.]:                   4.891070
  Two-photon absorption matrix (SoS) [a.u.]:
                                       |   -0.015418   -0.056994    0.543231 |
                                       |   -0.056994   -0.098955    0.548738 |
                                       |    0.543231    0.548738    0.117516 |
  Two-photon absorption cross-section [a.u.]:                         0.139375
  Two-photon absorption matrix [a.u.]:
                                       |    0.093759    0.011296   -0.057966 |
                                       |    0.011296   -0.078706   -0.079558 |
                                       |   -0.057966   -0.079558   -0.014971 |

  Dip. moment [a.u.]:                  [  -0.006934,    0.006580,    0.013503]
  Total dipole [Debye]:                                               0.042051
  <r^2> [a.u.]:                        [ 174.492377,   33.978630,   13.177284]
  Total <r^2> [a.u.]:                                               221.648292

  V1^2 = 0.9542, V2^2 = 0.0458

  Important amplitudes:
      occ i     occ j     vir a      vir b          v   
    -----------------------------------------------------
     7 (A) A              9 (A) A                 0.6693
     8 (A) A             11 (A) A                 0.1480
     7 (A) A             20 (A) A                 0.0759
     5 (A) A   8 (A) B    9 (A) A    9 (A) B     -0.0316
     8 (A) A             16 (A) A                -0.0273
     8 (A) A             21 (A) A                 0.0175
     5 (A) A             28 (A) A                -0.0151
     4 (A) A   7 (A) B    9 (A) A   19 (A) B     -0.0135
     5 (A) A   7 (A) B    9 (A) A   16 (A) B      0.0134
     7 (A) A   8 (A) B   20 (A) A   17 (A) B     -0.0105
     7 (A) A   8 (A) A    9 (A) A   28 (A) A      0.0098
     5 (A) A   8 (A) B    9 (A) A   20 (A) B     -0.0096
     4 (A) A   6 (A) B    9 (A) A   16 (A) B     -0.0091
     5 (A) A   6 (A) A    9 (A) A   23 (A) A      0.0091
     5 (A) A   6 (A) A    9 (A) A   14 (A) A      0.0089
     5 (A) A   6 (A) B    9 (A) A   19 (A) B      0.0087
     8 (A) A   7 (A) B    9 (A) A   28 (A) B     -0.0085
     4 (A) A   5 (A) A    9 (A) A   10 (A) A      0.0085
     6 (A) A   7 (A) B    9 (A) A   18 (A) B      0.0083
     5 (A) A   6 (A) B    9 (A) A   23 (A) B      0.0080
     3 (A) A   7 (A) B    9 (A) A   18 (A) B      0.0080
     5 (A) A   7 (A) A    9 (A) A   16 (A) A      0.0079
     4 (A) A   8 (A) B    9 (A) A   25 (A) B      0.0076
     7 (A) A   8 (A) B   17 (A) A   20 (A) B     -0.0074
     4 (A) A   7 (A) B   19 (A) A    9 (A) B     -0.0074
     5 (A) A   5 (A) B    9 (A) A   13 (A) B     -0.0072
     7 (A) A   8 (A) B   19 (A) A   18 (A) B      0.0072
     5 (A) A   8 (A) A    9 (A) A   20 (A) A     -0.0069
     4 (A) A   5 (A) B    9 (A) A   18 (A) B     -0.0068
     7 (A) A   7 (A) B   20 (A) A   22 (A) B      0.0065
     7 (A) A   8 (A) B   17 (A) A    9 (A) B     -0.0065
     5 (A) A   6 (A) B    9 (A) A   14 (A) B      0.0063
     4 (A) A   7 (A) A    9 (A) A   19 (A) A     -0.0061
     4 (A) A   5 (A) B   10 (A) A    9 (A) B     -0.0061
     5 (A) A             38 (A) A                -0.0060
     5 (A) A   7 (A) B   11 (A) A   20 (A) B     -0.0060
     4 (A) A   7 (A) B    9 (A) A   14 (A) B      0.0060
     6 (A) A   7 (A) A   19 (A) A   28 (A) A      0.0057
     4 (A) A   8 (A) A    9 (A) A   25 (A) A      0.0057
     5 (A) A   7 (A) A   11 (A) A   20 (A) A     -0.0053
    -----------------------------------------------------

  Density matrix analysis:
  ------------------------
  NOs
    Occupation of frontier NOs:
       0.9582   1.0536
    Number of electrons: 16.000000
    Number of unpaired electrons: n_u =  2.35535, n_u,nl =  2.06265
    NO participation ratio (PR_NO):  3.026469
  
  
  Mulliken Population Analysis
  Atom      Charge (e)              h+              e-           Del q
  --------------------------------------------------------------------
   1 H        0.149234        0.122405       -0.024245        0.098161
   2 C       -0.302033        0.270871       -0.472097       -0.201226
   3 H        0.151992        0.126278       -0.024743        0.101534
   4 C       -0.302666        0.273119       -0.474346       -0.201228
   5 H        0.153588        0.127550       -0.024137        0.103413
   6 H        0.149884        0.123877       -0.024531        0.099346
  --------------------------------------------------------------------
  Sum:        0.000000        1.044099       -1.044099       -0.000000
  
  Multipole moment analysis of the density matrix
    Molecular charge:                      0.000000
    Number of electrons:                   16.000000
      Center of electronic charge [Ang]: [ -1.560347,  -0.065820,  -0.002218]
    Total nuclear charge:                  16.000000
      Center of nuclear charge [Ang]:    [ -1.560576,  -0.065602,  -0.001772]
    Dipole moment [D]:                     0.042051
      Cartesian components [D]:          [ -0.017624,   0.016725,   0.034321]
    RMS size of the density [Ang]:         1.200092
      Cartesian components [Ang]:        [  0.786921,   0.768345,   0.480230]
  
  Exciton analysis of the difference density matrix
    <r_h> [Ang]:                  [ -1.564436,  -0.062310,  -0.001052]
    <r_e> [Ang]:                  [ -1.561498,  -0.065523,  -0.004933]
    |<r_e - r_h>| [Ang]:            0.005832
    Hole size [Ang]:                1.486332
      Cartesian components [Ang]: [  1.001303,   1.000069,   0.454353]
    Electron size [Ang]:            1.476917
      Cartesian components [Ang]: [  0.881582,   0.858740,   0.816494]

  Transition density matrix analysis:
  -----------------------------------
  
  CT numbers (Mulliken)
    omega =     0.9218
    <Phe> =    -0.0122
  
  Exciton analysis of the transition density matrix
    Trans. dipole moment [D]:             0.008683
      Cartesian components [D]:         [  0.001383,  -0.008572,   0.000129]
    <r_h> [Ang]:                        [ -1.565131,  -0.061759,  -0.000209]
    <r_e> [Ang]:                        [ -1.560953,  -0.065969,  -0.005834]
    |<r_e - r_h>| [Ang]:                  0.008175
    Hole size [Ang]:                      1.515049
      Cartesian components [Ang]:       [  1.024185,   1.024363,   0.443958]
    Electron size [Ang]:                  1.473972
      Cartesian components [Ang]:       [  0.872156,   0.848024,   0.832341]
    RMS electron-hole separation [Ang]:   2.093943
      Cartesian components [Ang]:       [  1.329336,   1.314895,   0.942612]
    Covariance(r_h, r_e) [Ang^2]:         0.041717
    Correlation coefficient:              0.018681
    Center-of-mass size [Ang]:            1.066700
      Cartesian components [Ang]:       [  0.680460,   0.672309,   0.472042]

  Decomposition into state-averaged NTOs
    H- 1 -> L+ 0:  0.6616 ( 87.6%)
    H- 0 -> L+ 2: -0.1480 (  4.4%)
                   omega =  92.2%
  ----------------------------------------------------------------------------


  Excited state 3 (singlet, A)                                     [converged]
  ----------------------------------------------------------------------------
  Term symbol:  4 (1) A                                     R^2 =  1.21463e-13

  Total energy:                                            -77.9826060588 a.u.
  Excitation energy:                                               9.170526 eV

  Osc. strength:                                                      0.025319
  Trans. dip. moment [a.u.]:           [   0.029793,    0.006577,   -0.334306]
  <i|r^2|0> [a.u.]:                    [   0.173156,   -0.004837,    0.000197]
  Two-photon absorption cross-section (SoS) [a.u.]:                   0.024376
  Two-photon absorption matrix (SoS) [a.u.]:
                                       |    0.020898    0.002053   -0.010652 |
                                       |    0.002053   -0.004575   -0.007227 |
                                       |   -0.010652   -0.007227    0.053481 |
  Two-photon absorption cross-section [a.u.]:                         0.027181
  Two-photon absorption matrix [a.u.]:
                                       |    0.036932   -0.006030   -0.011505 |
                                       |   -0.006030    0.016507   -0.001665 |
                                       |   -0.011505   -0.001665    0.032941 |

  Dip. moment [a.u.]:                  [  -0.001626,    0.007595,   -0.007605]
  Total dipole [Debye]:                                               0.027629
  <r^2> [a.u.]:                        [ 180.859149,   40.600145,   11.031658]
  Total <r^2> [a.u.]:                                               232.490952

  V1^2 = 0.9587, V2^2 = 0.0413

  Important amplitudes:
      occ i     occ j     vir a      vir b          v   
    -----------------------------------------------------
     8 (A) A             10 (A) A                 0.6891
     8 (A) A             24 (A) A                 0.0507
     8 (A) A             18 (A) A                -0.0312
     4 (A) A              9 (A) A                -0.0237
     8 (A) A   8 (A) B    9 (A) A   12 (A) B      0.0219
     8 (A) A   8 (A) B   10 (A) A   17 (A) B      0.0173
     8 (A) A             15 (A) A                 0.0169
     5 (A) A   8 (A) B   11 (A) A   10 (A) B      0.0165
     7 (A) A   8 (A) B   13 (A) A   10 (A) B     -0.0141
     4 (A) A   8 (A) B   12 (A) A   10 (A) B     -0.0111
     6 (A) A   8 (A) A   10 (A) A   15 (A) A      0.0110
     7 (A) A   8 (A) B   22 (A) A   10 (A) B     -0.0108
     6 (A) A   8 (A) B   15 (A) A   10 (A) B     -0.0108
     4 (A) A   8 (A) A   10 (A) A   12 (A) A      0.0106
     7 (A) A   8 (A) A   10 (A) A   22 (A) A      0.0099
     7 (A) A   8 (A) A   10 (A) A   13 (A) A      0.0097
     5 (A) A   8 (A) B   21 (A) A   10 (A) B      0.0094
     5 (A) A   8 (A) A   10 (A) A   11 (A) A     -0.0094
     6 (A) A   8 (A) A   10 (A) A   18 (A) A      0.0088
     6 (A) A   8 (A) B   10 (A) A   10 (A) B      0.0087
     7 (A) A   8 (A) A   12 (A) A   16 (A) A      0.0082
     5 (A) A   8 (A) A   10 (A) A   21 (A) A     -0.0080
     3 (A) A   4 (A) B   10 (A) A    9 (A) B      0.0079
     4 (A) A   8 (A) B   19 (A) A   10 (A) B      0.0075
     8 (A) A   8 (A) B    9 (A) A   23 (A) B      0.0075
     8 (A) A   8 (A) B   10 (A) A   28 (A) B     -0.0073
     3 (A) A   8 (A) B   10 (A) A   10 (A) B      0.0072
     5 (A) A   8 (A) B   10 (A) A   11 (A) B      0.0071
     3 (A) A   8 (A) A   10 (A) A   24 (A) A     -0.0071
     7 (A) A   8 (A) B   16 (A) A   12 (A) B     -0.0070
     3 (A) A   8 (A) B   10 (A) A   18 (A) B     -0.0069
     8 (A) A   8 (A) B    9 (A) A   19 (A) B     -0.0068
     6 (A) A   8 (A) B   18 (A) A   10 (A) B     -0.0067
     3 (A) A   6 (A) B   10 (A) A   28 (A) B      0.0062
     7 (A) A   8 (A) B   12 (A) A   11 (A) B      0.0058
     6 (A) A             28 (A) A                -0.0057
     3 (A) A   5 (A) B   10 (A) A   25 (A) B     -0.0056
     5 (A) A   8 (A) A   10 (A) A   16 (A) A      0.0056
     3 (A) A   8 (A) A   10 (A) A   18 (A) A     -0.0056
     4 (A) A   8 (A) A   10 (A) A   23 (A) A      0.0055
    -----------------------------------------------------

  Density matrix analysis:
  ------------------------
  NOs
    Occupation of frontier NOs:
       0.9814   0.9850
    Number of electrons: 16.000000
    Number of unpaired electrons: n_u =  2.28522, n_u,nl =  2.02440
    NO participation ratio (PR_NO):  2.691839
  
  
  Mulliken Population Analysis
  Atom      Charge (e)              h+              e-           Del q
  --------------------------------------------------------------------
   1 H       -0.163113        0.053858       -0.268044       -0.214186
   2 C        0.327615        0.538845       -0.110423        0.428422
   3 H       -0.165323        0.053769       -0.269550       -0.215781
   4 C        0.326746        0.537654       -0.109470        0.428184
   5 H       -0.163050        0.053900       -0.267126       -0.213225
   6 H       -0.162875        0.053915       -0.267328       -0.213413
  --------------------------------------------------------------------
  Sum:        0.000000        1.291941       -1.291941       -0.000000
  
  Multipole moment analysis of the density matrix
    Molecular charge:                      0.000000
    Number of electrons:                   16.000000
      Center of electronic charge [Ang]: [ -1.560522,  -0.065854,  -0.001520]
    Total nuclear charge:                  16.000000
      Center of nuclear charge [Ang]:    [ -1.560576,  -0.065602,  -0.001772]
    Dipole moment [D]:                     0.027629
      Cartesian components [D]:          [ -0.004132,   0.019305,  -0.019330]
    RMS size of the density [Ang]:         1.276494
      Cartesian components [Ang]:        [  0.854475,   0.840380,   0.439399]
  
  Exciton analysis of the difference density matrix
    <r_h> [Ang]:                  [ -1.560033,  -0.065977,  -0.003597]
    <r_e> [Ang]:                  [ -1.559833,  -0.068989,   0.001913]
    |<r_e - r_h>| [Ang]:            0.006282
    Hole size [Ang]:                1.410258
      Cartesian components [Ang]: [  0.834052,   0.819696,   0.788215]
    Electron size [Ang]:            2.075953
      Cartesian components [Ang]: [  1.373560,   1.376493,   0.726762]

  Transition density matrix analysis:
  -----------------------------------
  
  CT numbers (Mulliken)
    omega =     0.9259
    <Phe> =    -0.0109
  
  Exciton analysis of the transition density matrix
    Trans. dipole moment [D]:             0.426626
      Cartesian components [D]:         [  0.037863,   0.008359,  -0.424860]
    <r_h> [Ang]:                        [ -1.559786,  -0.065815,  -0.005186]
    <r_e> [Ang]:                        [ -1.559522,  -0.070207,   0.003360]
    |<r_e - r_h>| [Ang]:                  0.009613
    Hole size [Ang]:                      1.212985
      Cartesian components [Ang]:       [  0.636596,   0.623362,   0.823102]
    Electron size [Ang]:                  2.296340
      Cartesian components [Ang]:       [  1.518280,   1.523948,   0.803483]
    RMS electron-hole separation [Ang]:   2.587135
      Cartesian components [Ang]:       [  1.638845,   1.639541,   1.148635]
    Covariance(r_h, r_e) [Ang^2]:         0.025666
    Correlation coefficient:              0.009214
    Center-of-mass size [Ang]:            1.303442
      Cartesian components [Ang]:       [  0.826899,   0.826728,   0.575950]

  Decomposition into state-averaged NTOs
    H- 0 -> L+ 1:  0.6797 ( 92.4%)
                   omega =  92.6%
  ----------------------------------------------------------------------------


  Excited state 4 (singlet, A)                                     [converged]
  ----------------------------------------------------------------------------
  Term symbol:  5 (1) A                                     R^2 =  1.65842e-13

  Total energy:                                            -77.9582514556 a.u.
  Excitation energy:                                               9.833249 eV

  Osc. strength:                                                      0.000001
  Trans. dip. moment [a.u.]:           [  -0.000726,    0.001482,    0.000057]
  <i|r^2|0> [a.u.]:                    [  -0.017730,   -0.022186,    0.036226]
  Two-photon absorption cross-section (SoS) [a.u.]:                 149.770796
  Two-photon absorption matrix (SoS) [a.u.]:
                                       |   -0.159656   -0.320608    3.021226 |
                                       |   -0.320608   -0.484702    3.024860 |
                                       |    3.021226    3.024860    0.649242 |
  Two-photon absorption cross-section [a.u.]:                        92.153755
  Two-photon absorption matrix [a.u.]:
                                       |   -0.058278   -0.247110    2.369247 |
                                       |   -0.247110   -0.444362    2.369598 |
                                       |    2.369247    2.369598    0.508717 |

  Dip. moment [a.u.]:                  [  -0.005535,    0.000366,   -0.008873]
  Total dipole [Debye]:                                               0.026596
  <r^2> [a.u.]:                        [ 181.291896,   40.511808,   10.767837]
  Total <r^2> [a.u.]:                                               232.571541

  V1^2 = 0.9635, V2^2 = 0.0365

  Important amplitudes:
      occ i     occ j     vir a      vir b          v   
    -----------------------------------------------------
     8 (A) A             11 (A) A                 0.6697
     7 (A) A              9 (A) A                -0.1500
     8 (A) A             21 (A) A                 0.0781
     8 (A) A             16 (A) A                -0.0646
     8 (A) A   8 (A) B    9 (A) A   13 (A) B     -0.0167
     5 (A) A   8 (A) B   11 (A) A   11 (A) B      0.0155
     8 (A) A   8 (A) B   11 (A) A   17 (A) B      0.0140
     7 (A) A             20 (A) A                -0.0137
     7 (A) A   8 (A) B   13 (A) A   11 (A) B     -0.0127
     8 (A) A             12 (A) A                 0.0116
     5 (A) A   8 (A) A   11 (A) A   21 (A) A     -0.0110
     4 (A) A   8 (A) B   12 (A) A   11 (A) B     -0.0110
     8 (A) A   8 (A) B    9 (A) A   22 (A) B     -0.0108
     7 (A) A   8 (A) A   11 (A) A   22 (A) A      0.0096
     6 (A) A   8 (A) B   15 (A) A   11 (A) B     -0.0090
     6 (A) A   8 (A) B   10 (A) A   11 (A) B      0.0090
     7 (A) A   8 (A) B   22 (A) A   11 (A) B     -0.0089
     3 (A) A   4 (A) B   11 (A) A    9 (A) B      0.0083
     3 (A) A   8 (A) B   11 (A) A   18 (A) B     -0.0081
     6 (A) A   8 (A) A   11 (A) A   15 (A) A      0.0080
     7 (A) A   8 (A) A   13 (A) A   16 (A) A     -0.0078
     7 (A) A   8 (A) A   11 (A) A   13 (A) A      0.0077
     6 (A) A              9 (A) A                -0.0071
     5 (A) A   8 (A) B   21 (A) A   11 (A) B      0.0071
     4 (A) A   8 (A) B   19 (A) A   11 (A) B      0.0070
     5 (A) A   8 (A) B    9 (A) A    9 (A) B      0.0068
     4 (A) A   8 (A) A   11 (A) A   12 (A) A      0.0062
     6 (A) A   8 (A) A   11 (A) A   18 (A) A      0.0062
     3 (A) A   6 (A) B   11 (A) A   28 (A) B      0.0060
     6 (A) A   8 (A) B   18 (A) A   11 (A) B     -0.0060
     7 (A) A   8 (A) B   16 (A) A   13 (A) B      0.0057
     3 (A) A   8 (A) A   11 (A) A   18 (A) A     -0.0056
     5 (A) A   8 (A) B   10 (A) A   10 (A) B      0.0056
     3 (A) A   8 (A) B   11 (A) A   30 (A) B     -0.0055
     3 (A) A   5 (A) B   11 (A) A   25 (A) B     -0.0054
     6 (A) A   8 (A) B   11 (A) A   10 (A) B      0.0054
     7 (A) A   8 (A) B   12 (A) A   10 (A) B      0.0054
     8 (A) A   8 (A) B   20 (A) A   22 (A) B     -0.0053
     3 (A) A   8 (A) A   11 (A) A   24 (A) A     -0.0053
     5 (A) A   8 (A) A   11 (A) A   16 (A) A      0.0048
    -----------------------------------------------------

  Density matrix analysis:
  ------------------------
  NOs
    Occupation of frontier NOs:
       0.9409   1.0277
    Number of electrons: 16.000000
    Number of unpaired electrons: n_u =  2.31915, n_u,nl =  2.04902
    NO participation ratio (PR_NO):  2.913720
  
  
  Mulliken Population Analysis
  Atom      Charge (e)              h+              e-           Del q
  --------------------------------------------------------------------
   1 H       -0.145934        0.045804       -0.242812       -0.197008
   2 C        0.274936        0.497203       -0.121460        0.375743
   3 H       -0.129260        0.046885       -0.226603       -0.179718
   4 C        0.273299        0.496882       -0.122145        0.374737
   5 H       -0.129002        0.046993       -0.226171       -0.179178
   6 H       -0.144038        0.045885       -0.240461       -0.194576
  --------------------------------------------------------------------
  Sum:        0.000000        1.179651       -1.179651       -0.000000
  
  Multipole moment analysis of the density matrix
    Molecular charge:                      0.000000
    Number of electrons:                   16.000000
      Center of electronic charge [Ang]: [ -1.560393,  -0.065614,  -0.001478]
    Total nuclear charge:                  16.000000
      Center of nuclear charge [Ang]:    [ -1.560576,  -0.065602,  -0.001772]
    Dipole moment [D]:                     0.026596
      Cartesian components [D]:          [ -0.014067,   0.000930,  -0.022553]
    RMS size of the density [Ang]:         1.277217
      Cartesian components [Ang]:        [  0.859130,   0.839478,   0.434113]
  
  Exciton analysis of the difference density matrix
    <r_h> [Ang]:                  [ -1.560199,  -0.065538,  -0.003846]
    <r_e> [Ang]:                  [ -1.558226,  -0.065594,   0.002757]
    |<r_e - r_h>| [Ang]:            0.006892
    Hole size [Ang]:                1.394841
      Cartesian components [Ang]: [  0.818535,   0.806543,   0.790615]
    Electron size [Ang]:            2.124213
      Cartesian components [Ang]: [  1.443118,   1.403286,   0.678588]

  Transition density matrix analysis:
  -----------------------------------
  
  CT numbers (Mulliken)
    omega =     0.9298
    <Phe> =    -0.0135
  
  Exciton analysis of the transition density matrix
    Trans. dipole moment [D]:             0.002098
      Cartesian components [D]:         [ -0.000922,   0.001883,   0.000072]
    <r_h> [Ang]:                        [ -1.560281,  -0.065528,  -0.004957]
    <r_e> [Ang]:                        [ -1.557906,  -0.065470,   0.003700]
    |<r_e - r_h>| [Ang]:                  0.008977
    Hole size [Ang]:                      1.227965
      Cartesian components [Ang]:       [  0.658148,   0.649888,   0.807703]
    Electron size [Ang]:                  2.262364
      Cartesian components [Ang]:       [  1.537671,   1.494714,   0.720893]
    RMS electron-hole separation [Ang]:   2.563467
      Cartesian components [Ang]:       [  1.664037,   1.622103,   1.082186]
    Covariance(r_h, r_e) [Ang^2]:         0.027452
    Correlation coefficient:              0.009882
    Center-of-mass size [Ang]:            1.292390
      Cartesian components [Ang]:       [  0.840561,   0.818815,   0.541546]

  Decomposition into state-averaged NTOs
    H- 0 -> L+ 2: -0.6650 ( 88.5%)
    H- 1 -> L+ 0: -0.1480 (  4.4%)
                   omega =  93.0%
  ----------------------------------------------------------------------------


  Excited state 5 (singlet, A)                                     [converged]
  ----------------------------------------------------------------------------
  Term symbol:  6 (1) A                                     R^2 =  3.94571e-13

  Total energy:                                            -77.9443671536 a.u.
  Excitation energy:                                              10.211060 eV

  Osc. strength:                                                      0.000000
  Trans. dip. moment [a.u.]:           [  -0.000336,   -0.000112,   -0.000440]
  <i|r^2|0> [a.u.]:                    [  -0.083382,    0.109568,   -0.021745]
  Two-photon absorption cross-section (SoS) [a.u.]:                 177.556185
  Two-photon absorption matrix (SoS) [a.u.]:
                                       |   -0.211649   -0.102551    3.338540 |
                                       |   -0.102551    0.494706   -3.298482 |
                                       |    3.338540   -3.298482   -0.102977 |
  Two-photon absorption cross-section [a.u.]:                        79.378662
  Two-photon absorption matrix [a.u.]:
                                       |   -0.083367   -0.031265    2.223280 |
                                       |   -0.031265    0.393341   -2.209361 |
                                       |    2.223280   -2.209361   -0.084818 |

  Dip. moment [a.u.]:                  [   0.007300,   -0.010522,    0.002757]
  Total dipole [Debye]:                                               0.033296
  <r^2> [a.u.]:                        [ 178.407202,   38.300919,   11.937442]
[...]
    16   -1.872308127147e-03
    17   -1.383000921965e-03
    18    5.889316292570e-06
    19   -3.308783933119e-03
    20    1.069507125764e-02
    21    9.340785500463e-01
    22   -2.809604092941e-04
    23    1.400895101004e-02
    24    6.056341148820e-04
    25    7.026275406046e-02
    26   -5.228796370976e-02
    27   -1.398958453531e+00
    28    9.760445093312e-02
    29   -9.303350008992e-02
    30    1.319964981705e-03
    31    3.837134955437e-01
    32   -3.641669416484e-01
    33    5.614450012878e-03
    34    1.564134580851e-02
    35   -1.661325505679e-03
    36   -1.608032056306e-03
    37   -2.521628165528e-05
    38   -3.130339850114e-03
    39    9.991370422036e-03
    40    9.339344269194e-01
    41    2.317372272207e-04
    42   -1.396145884633e-02
    43   -7.401605670928e-04
    44    9.946083794816e-03
    45    9.381875506418e-01
    46    1.409376751170e-02
    47    3.643665796736e-04
    48    7.761296381050e-04
Sym=X
Ene= 0.232969
Spin=Alpha
Occup=0
     1    2.631282944958e-02
     2    1.233703373248e+00
     3   -1.431445839645e-02
     4   -3.806872593313e-03
     5   -9.797525340327e-04
     6    3.090206997362e-03
     7   -3.447927420007e-03
     8   -4.836125172460e-02
     9   -1.549191097747e-01
    10   -1.584917871031e-01
    11   -1.681395156941e-02
    12   -5.555738855544e-01
    13   -5.588443585422e-01
    14   -5.962984899220e-02
    15    4.616058346718e-04
    16   -4.658711819920e-04
    17   -4.586548215023e-04
    18   -2.156331187084e-04
    19   -3.037269429296e-04
    20   -2.491313686244e-02
    21   -1.160371853447e+00
    22   -2.510907423050e-03
    23   -1.357396549836e-02
    24   -8.597630925187e-04
    25   -2.982924376205e-03
    26    3.318307750623e-03
    27    4.614343987663e-02
    28   -1.542707983503e-01
    29   -1.587163457469e-01
    30   -1.679234104249e-02
    31   -5.487264075175e-01
    32   -5.549702794119e-01
    33   -5.911665192529e-02
    34   -5.347051437956e-04
    35    3.120060519231e-04
    36    2.976878321400e-04
    37    3.977153415953e-04
    38    3.586572746894e-04
    39    2.502249036321e-02
    40    1.155183161273e+00
    41   -2.457930111738e-03
    42   -1.356104268641e-02
    43   -8.790001272380e-04
    44   -2.624959733859e-02
    45   -1.225569954359e+00
    46   -1.430352515114e-02
    47   -3.770809159029e-03
    48   -9.528211893056e-04
Sym=X
Ene= 0.239410
Spin=Alpha
Occup=0
     1   -1.590558819132e-02
     2   -1.048260259394e+00
     3    1.645306343678e-02
     4    9.088096658556e-03
     5    1.593595545066e-03
     6   -8.650702195568e-02
     7    7.972428350117e-02
     8    1.593312139576e+00
     9    5.284115102135e-02
    10   -6.100212963266e-02
    11    2.674447551124e-03
    12    2.093261852995e-01
    13   -2.375527418783e-01
    14    1.022685419060e-02
    15   -2.255233240757e-02
    16    2.782771835950e-03
    17    2.773290206130e-03
    18   -5.745544995489e-04
    19    1.286423158677e-02
    20   -1.702640879817e-02
    21   -1.127857525808e+00
    22   -8.545171862249e-03
    23   -1.783923191892e-02
    24   -1.184238981981e-03
    25    8.642159666049e-02
    26   -7.927603329244e-02
    27   -1.596054988681e+00
    28    5.313304614265e-02
    29   -6.139516611269e-02
    30   -2.195332694517e-03
    31    2.104789179652e-01
    32   -2.411957058480e-01
    33   -1.030607238585e-02
    34    2.259822580421e-02
    35   -2.330952682366e-03
    36   -3.237770195443e-03
    37    7.139645065191e-04
    38   -1.279219203336e-02
    39    1.681893502128e-02
    40    1.132395708631e+00
    41   -8.627992768575e-03
    42   -1.791257376081e-02
    43   -1.523602621507e-03
    44    1.565076116906e-02
    45    1.046574088580e+00
    46    1.641101716793e-02
    47    9.261834808336e-03
    48    1.278239526959e-03
Sym=X
Ene= 0.303258
Spin=Alpha
Occup=0
     1   -2.056565610327e-02
     2    1.689887042345e+00
     3   -2.290567212541e-02
     4    2.936392139371e-04
     5   -1.107158729838e-03
     6   -1.929202910481e-04
     7    1.487030559178e-04
     8    4.199680016596e-03
     9   -1.338944836755e-01
    10   -1.396100979450e-01
    11   -1.459129915762e-02
    12   -1.143682802717e+00
    13   -1.193959944525e+00
    14   -1.249726576542e-01
    15   -2.637233955080e-04
    16   -2.216126474453e-03
    17    1.268573783848e-03
    18   -3.265957977666e-02
    19   -1.463832003068e-03
    20    2.011624630300e-02
    21   -1.691122342966e+00
    22    1.404338398246e-03
    23   -2.291323677984e-02
    24   -1.247210697467e-03
    25    7.100999062572e-05
    26    2.531724565669e-04
    27   -7.515671620851e-03
    28    1.346569987167e-01
    29    1.403053336182e-01
    30    1.479030698118e-02
    31    1.139999355141e+00
    32    1.197116407713e+00
    33    1.254541700411e-01
    34    9.431875931934e-05
    35   -1.426747674319e-03
    36    2.087478939019e-03
    37   -3.250126963354e-02
    38   -1.677071020985e-03
    39    1.963961336224e-02
    40   -1.692443778565e+00
    41   -1.608727318166e-03
    42    2.283090963744e-02
    43    1.486069344250e-03
    44   -2.007265780622e-02
    45    1.698053319515e+00
    46    2.304498129661e-02
    47   -3.633457049905e-04
    48    8.747701080123e-04
Sym=X
Ene= 0.462016
Spin=Alpha
Occup=0
     1   -1.161541715292e-01
     2   -7.116733523099e-01
     3   -1.569559828809e-02
     4   -1.025756853670e-02
     5   -1.222215831524e-03
     6    6.081079850153e-02
     7    1.737296183400e-02
     8   -3.590704517989e+00
     9    1.029030193851e-01
    10   -9.921235441058e-02
    11    3.046383106718e-03
    12    2.424445003788e+00
    13   -2.303610102349e+00
    14   -3.700072213057e-02
    15    5.362520229203e-02
    16   -3.089646439617e-03
    17   -4.880017873718e-03
    18   -8.604485680131e-04
    19    1.799237625498e-02
    20   -1.205576170411e-01
    21   -7.046460881708e-01
    22    8.784052948035e-03
    23    1.633427267018e-02
    24    1.507964845938e-03
    25   -6.094926535273e-02
    26   -1.621855490849e-02
    27    3.589976021525e+00
    28    1.051426463501e-01
    29   -1.005634463085e-01
    30    1.208529314680e-04
    31    2.422574665999e+00
    32   -2.297143702927e+00
    33   -4.999255908113e-02
    34   -5.269417666373e-02
    35    3.272062385649e-03
    36    4.524300967430e-03
    37    6.998056001194e-04
    38   -1.903405364476e-02
    39    1.147833070649e-01
    40    7.096419839987e-01
    41    8.635477009290e-03
    42    1.621341577114e-02
    43    1.389186025309e-03
    44    1.111664769495e-01
    45    7.175282105421e-01
    46   -1.547817548296e-02
    47   -9.890308618788e-03
    48   -1.323685255685e-03
Sym=X
Ene= 0.577518
Spin=Alpha
Occup=0
     1    2.473124288421e-01
     2    3.913547969162e-02
     3   -1.846820872510e-02
     4    2.577416457965e-02
     5    4.651755106914e-04
     6   -4.441155192335e-03
     7   -1.571207878664e-01
     8   -4.665926584217e-01
     9    2.990829978061e-01
    10   -2.876097306399e-01
    11   -5.696769580149e-03
    12   -7.190705782186e-01
    13    6.962149659689e-01
    14    4.816071461452e-03
    15   -5.880726205966e-03
    16    3.950042297446e-03
    17    3.652003362970e-03
    18   -4.146740030994e-03
    19    6.027148594283e-02
    20    2.550955360418e-01
    21    3.065145592526e-02
    22   -2.633747583417e-02
    23    1.643851753836e-02
    24   -4.515126391794e-04
    25   -5.635168466443e-03
    26   -1.578500924703e-01
    27   -4.091889048797e-01
    28   -2.976157515368e-01
    29    2.849205596434e-01
    30    5.360443607442e-03
    31    7.633328816699e-01
    32   -7.329419660606e-01
    33   -8.405622815063e-03
    34   -5.864117070295e-03
    35    3.968448034861e-03
    36    3.637863195844e-03
    37   -3.496706151678e-03
    38    6.022659532990e-02
    39    2.503079186634e-01
    40    5.090407657489e-02
    41    2.721426158473e-02
    42   -1.706493459531e-02
    43    1.841800925608e-04
    44    2.496206628038e-01
    45    5.541856409493e-02
    46    1.837061585262e-02
    47   -2.589412107320e-02
    48   -7.574203487421e-04
Sym=X
Ene= 0.615147
Spin=Alpha
Occup=0
     1   -5.220980437852e-01
     2    2.020682153894e-01
     3   -6.129049288336e-02
     4    3.771502928817e-02
     5   -1.074876395979e-03
     6   -5.239626687241e-04
     7    4.862515426918e-04
     8   -1.440523977064e-02
     9   -4.019268609176e-02
    10   -3.883593909043e-02
    11   -4.123437576831e-03
    12    3.012142115337e-01
    13    2.829060091407e-01
    14    3.076279665006e-02
    15    1.523773936296e-03
    16   -9.147931461526e-03
    17    6.631804057759e-03
    18   -1.479865125976e-01
    19   -6.466287415234e-03
    20    5.083651119393e-01
    21   -2.029271432452e-01
    22    4.168817992758e-02
    23   -5.851468002808e-02
    24   -1.087438216485e-03
    25    3.532838558502e-04
    26   -9.181569955045e-04
    27    2.042363499889e-02
    28   -3.976465353843e-02
    29   -4.048727849684e-02
    30   -4.214234071343e-03
    31    3.002806411159e-01
    32    2.930809979878e-01
    33    3.167092756232e-02
    34   -1.280800914278e-03
    35    6.980222461086e-03
    36   -9.056518557713e-03
    37    1.491115762919e-01
    38    6.364620937758e-03
    39   -5.157447448071e-01
    40    2.064918804583e-01
    41    4.086053460237e-02
    42   -5.865558694578e-02
    43   -1.869550896459e-03
    44    5.209389732613e-01
    45   -2.047569140856e-01
    46   -6.140043503117e-02
    47    3.767272911537e-02
    48   -3.435878871925e-04
Sym=X
Ene= 0.689182
Spin=Alpha
Occup=0
     1   -8.844386334952e-04
     2   -9.454253464381e-03
     3    2.611232475775e-03
     4    1.063173815308e-03
     5   -2.081571179552e-02
     6   -3.212483273026e-05
     7    6.763765684157e-03
     8   -9.696433169220e-03
     9    3.007874367399e-02
    10    4.120821219259e-02
    11   -6.702775900191e-01
    12   -1.421557868414e-02
    13   -5.030962370686e-02
    14    6.133414835196e-01
    15   -4.092881264706e-03
    16    8.275031249378e-02
    17   -7.815408082473e-02
    18   -8.555933237946e-03
    19   -2.379225452441e-03
    20   -7.831983863813e-04
    21   -9.651755546393e-03
    22    1.217491004210e-03
    23   -3.875616252988e-04
    24   -2.112123894623e-02
    25    4.187657319797e-04
    26    2.312922335486e-03
    27    4.453327826165e-03
    28    3.176018359476e-02
    29    4.002726630380e-02
    30   -6.701531006139e-01
    31   -1.579595184049e-02
    32   -4.922060423305e-02
    33    6.130560748892e-01
    34    1.265061523083e-03
    35   -8.256620958117e-02
    36    7.859773999739e-02
    37    8.464088249505e-03
    38    3.438261429990e-03
    39    6.775163611218e-03
    40    4.135035143084e-03
    41    1.757585597901e-03
    42    1.959316945230e-03
    43   -2.099974570327e-02
    44    6.858740343646e-03
    45    4.325818917820e-03
    46    3.324729284699e-04
    47    5.036842502994e-04
    48   -2.112613149715e-02
Sym=X
Ene= 0.708955
Spin=Alpha
Occup=0
     1   -4.756317711706e-01
     2    1.594731781255e-01
     3   -8.063182731594e-02
     4   -4.437626392511e-02
     5   -6.074584670592e-03
     6   -4.777404120956e-02
     7   -3.198965820194e-01
     8    5.090265023513e-01
     9    2.043712957176e-01
    10   -1.917628291957e-01
    11   -7.880320118741e-03
    12   -9.932969893696e-02
    13    7.944375679470e-02
    14    1.642147698885e-02
    15    1.939502496433e-01
    16   -1.985300988616e-02
    17   -2.447116227394e-02
    18    3.122872509043e-03
    19   -7.748879282719e-02
    20   -4.779360224753e-01
    21    1.485766461062e-01
    22    4.088989852376e-02
    23    8.171258473609e-02
    24    7.132325000091e-03
    25   -4.675918640561e-02
    26   -3.209795695154e-01
    27    4.630818776086e-01
    28   -2.037695302461e-01
    29    1.922814372503e-01
    30   -2.171595866954e-03
    31    6.450226303842e-02
    32   -5.245817404862e-02
    33   -3.834343744869e-03
    34    1.937209900837e-01
    35   -1.949022730047e-02
    36   -2.472443456836e-02
    37    2.319450755258e-03
    38   -7.556243204538e-02
    39   -4.720558941302e-01
    40    1.359740252920e-01
    41   -4.067002309214e-02
    42   -8.103668243375e-02
    43   -7.551384189226e-03
    44   -4.750069893831e-01
    45    1.459984541250e-01
    46    8.057115345932e-02
    47    4.401561003266e-02
    48    5.641954602516e-03
Sym=X
Ene= 0.784539
Spin=Alpha
Occup=0
     1    5.277187951013e-01
     2   -4.721323462223e-01
     3    1.105851747559e-01
     4    2.608458637537e-02
     5    6.792294903034e-03
     6    9.097345114398e-02
     7   -2.157865077713e-01
     8   -6.414209682589e-01
     9    1.090972787539e-01
    10   -1.075738258544e-01
    11    5.636823224213e-03
    12    3.202836159868e-01
    13   -2.890577043238e-01
    14   -2.302738510218e-02
    15   -2.064041684806e-01
    16    1.908207398673e-02
    17    2.019331620188e-02
    18   -8.350341756727e-04
    19    9.236558776351e-03
    20    5.352373613936e-01
    21   -4.649973954495e-01
    22   -2.026858367940e-02
    23   -1.120038417093e-01
    24   -7.532259452977e-03
    25   -9.134772345703e-02
    26    2.130379263677e-01
    27    6.557371991741e-01
    28    1.120745835011e-01
    29   -1.052153012131e-01
    30   -1.352816645577e-02
    31    3.082512980156e-01
    32   -2.888987150508e-01
    33    1.452583980310e-02
    34    2.075401104907e-01
    35   -1.649545496793e-02
    36   -2.322232621892e-02
    37    1.389018569627e-03
    38   -8.831212139881e-03
    39   -5.411635726023e-01
    40    4.659495734299e-01
    41   -2.042971174833e-02
    42   -1.126660532602e-01
    43   -8.198247387137e-03
    44   -5.316006464336e-01
    45    4.649610597264e-01
    46    1.101262234858e-01
    47    2.679688413851e-02
    48    6.347047502656e-03
Sym=X
Ene= 0.807953
Spin=Alpha
Occup=0
     1    6.092185107431e-03
     2   -8.661055880367e-03
     3    4.674092939650e-03
     4    1.553744275362e-03
     5   -3.363618816436e-02
     6    9.938784627644e-04
     7    1.351457805093e-03
     8   -4.034753677726e-03
     9    3.746976251770e-02
    10    4.377479514486e-02
    11   -7.629908633686e-01
    12   -4.733421511485e-02
    13   -7.239626832339e-02
    14    1.126718822795e+00
    15   -1.698902790335e-03
    16   -6.492478111266e-02
    17    6.212579111437e-02
    18    6.811052095294e-03
    19    1.154009802737e-03
    20    6.111486836676e-03
    21   -8.267979428629e-03
    22    2.276362824089e-03
    23   -9.908466985194e-04
    24   -3.470608548477e-02
    25   -1.334792710263e-03
    26    6.262640939360e-03
    27    5.878839126056e-05
    28   -3.023658116127e-02
    29   -5.139870638111e-02
    30    7.630268192847e-01
    31    5.131679692576e-02
    32    6.994308397396e-02
    33   -1.126732795941e+00
    34    5.354581043620e-03
    35   -6.538031284690e-02
    36    6.147240502811e-02
    37    6.643131049164e-03
    38    2.655649705587e-03
    39   -6.271594411987e-03
    40    6.000914205142e-03
    41   -1.430233250155e-03
    42   -3.352108851139e-03
    43    3.414094438172e-02
    44   -6.054750797913e-03
    45    6.619919872180e-03
    46   -2.478150881377e-04
    47   -2.083497939975e-03
    48    3.383766059685e-02
Sym=X
Ene= 0.862263
Spin=Alpha
Occup=0
     1    1.285279389100e-02
     2   -1.096487933661e+00
     3    1.482505919640e-01
     4    5.644015321592e-02
     5    1.153675215113e-02
     6   -3.688367156379e-05
     7   -9.829825238720e-04
     8    1.698356273997e-03
     9   -4.078459812509e-01
    10   -4.282614787535e-01
    11   -4.450208203478e-02
    12    9.494262682116e-01
    13    9.980616244675e-01
    14    1.036578513441e-01
    15    1.364917461496e-04
    16    1.243781585010e-02
    17   -1.276379016015e-02
    18    2.352946725937e-01
    19    9.709256232155e-03
    20   -1.432710400478e-02
    21    1.103343028868e+00
    22    5.029057806832e-02
    23    1.516039862532e-01
    24    1.018455005836e-02
    25    4.432053349111e-05
    26    6.408751439024e-04
    27   -8.451599214040e-04
    28   -4.072406331629e-01
    29   -4.287769208946e-01
    30   -4.505541065749e-02
    31    9.474676451699e-01
    32    1.000761708190e+00
    33    1.050264845859e-01
    34   -2.570753335790e-05
    35   -1.211149753823e-02
    36    1.324442107951e-02
    37   -2.364629708217e-01
    38   -1.047263132989e-02
    39    1.250204126306e-02
    40   -1.102023970564e+00
    41    4.892920564648e-02
    42    1.517363725233e-01
    43    1.098891928141e-02
    44   -1.107099849080e-02
    45    1.094663871739e+00
    46    1.485804821430e-01
    47    5.567888789348e-02
    48    1.074686819049e-02
Sym=X
Ene= 0.935881
Spin=Alpha
Occup=0
     1    1.130571391230e-01
     2   -1.281917171288e+00
     3    1.815229787311e-01
     4   -4.977536514570e-03
     5    7.911649454857e-03
     6   -2.015769569886e-04
     7   -2.312649407251e-04
     8    2.412370797439e-03
     9   -4.744915588333e-01
    10   -4.976828272387e-01
    11   -5.203546497363e-02
    12    1.469948329313e+00
    13    1.537122350999e+00
    14    1.608596690763e-01
    15    1.519165514589e-03
    16    6.259546551735e-03
    17   -6.528237155797e-03
    18    1.201550923888e-01
    19    3.375584525910e-03
    20   -1.169981886372e-01
    21    1.283927837490e+00
    22   -1.203439433868e-02
    23    1.825036441944e-01
    24    1.059733403143e-02
    25    6.321505857153e-05
    26   -1.043533574748e-03
    27    3.528201815563e-03
    28    4.740405400569e-01
    29    4.981828014281e-01
    30    5.223088899427e-02
    31   -1.468466349406e+00
    32   -1.535033959115e+00
    33   -1.612318096916e-01
    34   -8.228827569737e-05
    35    3.946041990303e-03
    36   -9.216662457775e-03
    37    1.206102350413e-01
    38    4.713141691231e-03
    39   -1.161245664344e-01
    40    1.282305773691e+00
    41    1.340913741343e-02
    42   -1.817126838413e-01
    43   -1.187359491101e-02
    44    1.153297335080e-01
    45   -1.286414909490e+00
    46   -1.822001239520e-01
    47    5.385028332399e-03
    48   -6.673863390410e-03
Sym=X
Ene= 0.972390
Spin=Alpha
Occup=0
     1   -6.435498333031e-02
     2    9.216614807990e-01
     3   -9.027097351661e-02
     4   -9.842089104093e-02
     5   -1.206929859805e-02
     6    2.531245990804e-02
     7    2.536025361138e-01
     8    5.180395739866e-01
     9    4.799104071942e-01
    10   -4.559916039363e-01
    11   -1.814066299283e-03
    12   -1.490363677442e+00
    13    1.413143261343e+00
    14    8.868313239800e-03
    15   -5.379384527563e-02
    16   -1.610805378240e-02
    17   -6.597464785657e-03
    18    1.438735604381e-02
    19   -3.015479537367e-01
    20   -6.287000239313e-02
    21    9.147388639886e-01
    22    9.535286332840e-02
    23    9.378985545475e-02
    24    8.126858173450e-03
    25   -2.511688110525e-02
    26   -2.368291734997e-01
    27   -5.457635055367e-01
    28    4.784630061771e-01
    29   -4.543762293867e-01
    30   -9.068511025228e-03
    31   -1.486564225491e+00
    32    1.413532869639e+00
    33    2.918632465155e-02
    34    5.264632634761e-02
    35    1.556969179912e-02
    36    7.058158164501e-03
    37   -1.442918518061e-02
    38    2.989216484624e-01
    39    6.264411750252e-02
    40   -9.078898892299e-01
    41    9.419184650110e-02
    42    9.273052734347e-02
    43    9.510973022948e-03
    44    6.572882253977e-02
    45   -9.115073722832e-01
    46   -8.894095271994e-02
    47   -9.780890101097e-02
    48   -1.050406558339e-02
[5D]

======= END OF MOLDEN-FORMATTED INPUT FILE =======


        *************************************************************
        *                                                           *
        *  Thank you very much for using Q-Chem.  Have a nice day.  *
        *                                                           *
        *************************************************************


