                  Welcome to Q-Chem
     A Quantum Leap Into The Future Of Chemistry


 Q-Chem 5.4 (devel), Q-Chem, Inc., Pleasanton, CA (2021)

 E. Epifanovsky,  A. T. B. Gilbert,  Xintian Feng,  Joonho Lee,  Yuezhi Mao,  
 N. Mardirossian,  P. Pokhilko,  A. White,  M. Wormit,  M. P. Coons,  
 A. L. Dempwolff,  Zhengting Gan,  D. Hait,  P. R. Horn,  L. D. Jacobson,  
 I. Kaliman,  J. Kussmann,  A. W. Lange,  Ka Un Lao,  D. S. Levine,  Jie Liu,  
 S. C. McKenzie,  A. F. Morrison,  K. Nanda,  F. Plasser,  D. R. Rehn,  
 M. L. Vidal,  Zhi-Qiang You,  Ying Zhu,  B. Alam,  B. Albrecht,  
 A. Aldossary,  E. Alguire,  J. H. Andersen,  D. Barton,  K. Begam,  A. Behn,  
 Y. A. Bernard,  E. J. Berquist,  H. Burton,  A. Carreras,  K. Carter-Fenk,  
 R. Chakraborty,  A. D. Chien,  K. D. Closser,  V. Cofer-Shabica,  
 S. Dasgupta,  Jia Deng,  M. de Wergifosse,  M. Diedenhofen,  Hainam Do,  
 S. Ehlert,  Po-Tung Fang,  S. Fatehi,  Qingguo Feng,  T. Friedhoff,  
 J. Gayvert,  Qinghui Ge,  G. Gidofalvi,  M. Goldey,  J. Gomes,  
 C. Gonzalez-Espinoza,  S. Gulania,  A. Gunina,  M. W. D. Hanson-Heine,  
 P. H. P. Harbach,  A. W. Hauser,  M. F. Herbst,  M. Hernandez Vera,  
 M. Hodecker,  Z. C. Holden,  S. Houck,  Xunkun Huang,  Kerwin Hui,  
 B. C. Huynh,  M. Ivanov,  Hyunjun Ji,  Hanjie Jiang,  B. Kaduk,  S. Kaehler,  
 K. Khistyaev,  Jaehoon Kim,  P. Klunzinger,  Z. Koczor-Benda,  
 Joong Hoon Koh,  D. Kosenkov,  L. Koulias,  T. Kowalczyk,  C. M. Krauter,  
 K. Kue,  A. Kunitsa,  T. Kus,  A. Landau,  K. V. Lawler,  D. Lefrancois,  
 S. Lehtola,  Rain Li,  Yi-Pei Li,  Jiashu Liang,  M. Liebenthal,  
 Hung-Hsuan Lin,  You-Sheng Lin,  Fenglai Liu,  Kuan-Yu Liu,  
 M. Loipersberger,  A. Luenser,  A. Manjanath,  P. Manohar,  E. Mansoor,  
 S. F. Manzer,  Shan-Ping Mao,  A. V. Marenich,  T. Markovich,  S. Mason,  
 S. A. Maurer,  P. F. McLaughlin,  M. F. S. J. Menger,  J.-M. Mewes,  
 S. A. Mewes,  P. Morgante,  J. W. Mullinax,  K. J. Oosterbaan,  G. Paran,  
 Alexander C. Paul,  Suranjan K. Paul,  F. Pavosevic,  Zheng Pei,  S. Prager,  
 E. I. Proynov,  E. Ramos,  B. Rana,  A. E. Rask,  A. Rettig,  R. M. Richard,  
 F. Rob,  E. Rossomme,  T. Scheele,  M. Scheurer,  M. Schneider,  
 N. Sergueev,  S. M. Sharada,  W. Skomorowski,  D. W. Small,  C. J. Stein,  
 Yu-Chuan Su,  E. J. Sundstrom,  Zhen Tao,  J. Thirman,  T. Tsuchimochi,  
 N. M. Tubman,  S. P. Veccham,  O. Vydrov,  J. Wenzel,  J. Witte,  A. Yamada,  
 Kun Yao,  S. Yeganeh,  S. R. Yost,  A. Zech,  Igor Ying Zhang,  Xing Zhang,  
 Yu Zhang,  D. Zuev,  A. Aspuru-Guzik,  A. T. Bell,  N. A. Besley,  
 K. B. Bravaya,  B. R. Brooks,  D. Casanova,  Jeng-Da Chai,  S. Coriani,  
 C. J. Cramer,  A. E. DePrince, III,  R. A. DiStasio Jr.,  A. Dreuw,  
 B. D. Dunietz,  T. R. Furlani,  W. A. Goddard III,  S. Grimme,  
 S. Hammes-Schiffer,  T. Head-Gordon,  W. J. Hehre,  Chao-Ping Hsu,  
 T.-C. Jagau,  Yousung Jung,  A. Klamt,  Jing Kong,  D. S. Lambrecht,  
 WanZhen Liang,  N. J. Mayhall,  C. W. McCurdy,  J. B. Neaton,  
 C. Ochsenfeld,  J. A. Parkhill,  R. Peverati,  V. A. Rassolov,  Yihan Shao,  
 L. V. Slipchenko,  T. Stauch,  R. P. Steele,  J. E. Subotnik,  
 A. J. W. Thom,  A. Tkatchenko,  D. G. Truhlar,  T. Van Voorhis,  
 T. A. Wesolowski,  K. B. Whaley,  H. L. Woodcock III,  P. M. Zimmerman,  
 S. Faraji,  P. M. W. Gill,  M. Head-Gordon,  J. M. Herbert,  A. I. Krylov

 Additional authors for Version 5.4.1: 
 S. Kotaru,  Shaozhi Li,  Xiangyuan Li,  F. Matz,  A. Molle,  Haisheng Ren,  
 Yingli Su,  Hung-Yi Tsai,  C. Utku,  Fang Wang

 Contributors to earlier versions of Q-Chem not listed above: 
 R. D. Adamson,  B. Austin,  R. Baer,  J. Baker,  G. J. O. Beran,  
 K. Brandhorst,  S. T. Brown,  E. F. C. Byrd,  A. K. Chakraborty,  
 G. K. L. Chan,  Chun-Min Chang,  Yunqing Chen,  C.-L. Cheng,  
 Siu Hung Chien,  D. M. Chipman,  D. L. Crittenden,  H. Dachsel,  
 R. J. Doerksen,  A. D. Dutoi,  R. G. Edgar,  J. Fosso-Tande,  
 L. Fusti-Molnar,  D. Ghosh,  A. Ghysels,  A. Golubeva-Zadorozhnaya,  
 J. Gonthier,  M. S. Gordon,  S. R. Gwaltney,  G. Hawkins,  J. E. Herr,  
 A. Heyden,  S. Hirata,  E. G. Hohenstein,  G. Kedziora,  F. J. Keil,  
 C. Kelley,  Jihan Kim,  R. A. King,  R. Z. Khaliullin,  P. P. Korambath,  
 W. Kurlancheek,  A. Laurent,  A. M. Lee,  M. S. Lee,  S. V. Levchenko,  
 Ching Yeh Lin,  D. Liotard,  E. Livshits,  R. C. Lochan,  I. Lotan,  
 L. A. Martinez-Martinez,  P. E. Maslen,  N. Nair,  D. P. O'Neill,  
 D. Neuhauser,  E. Neuscamman,  C. M. Oana,  R. Olivares-Amaya,  R. Olson,  
 T. M. Perrine,  B. Peters,  P. A. Pieniazek,  A. Prociuk,  Y. M. Rhee,  
 J. Ritchie,  M. A. Rohrdanz,  E. Rosta,  N. J. Russ,  H. F. Schaefer III,  
 M. W. Schmidt,  N. E. Schultz,  S. Sharma,  N. Shenvi,  C. D. Sherrill,  
 A. C. Simmonett,  A. Sodt,  T. Stein,  D. Stuck,  K. S. Thanthiriwatte,  
 V. Vanovschi,  L. Vogt,  Tao Wang,  A. Warshel,  M. A. Watson,  
 C. F. Williams,  Q. Wu,  X. Xu,  Jun Yang,  W. Zhang,  Yan Zhao

 Please cite Q-Chem as follows:
 Y. Shao et al., Mol. Phys. 113, 184-215 (2015)
 DOI: 10.1080/00268976.2014.952696

 Q-Chem 5.4.1 for Intel X86 EM64T Linux

 Parts of Q-Chem use Armadillo 9.800.1 (Horizon Scraper).
 http://arma.sourceforge.net/

 Q-Chem begins on Wed Mar 15 17:51:17 2023  

 Host: cpu121.yggdrasil
0

     Scratch files written to /srv/beegfs/scratch/users/f/fum/qchem92145//
 Processing $rem in /home/share/wesolowski/qc5.aug2021.FDE/config/preferences:
 Processing $rem in /home/fum/.qchemrc:

 Checking the input file for inconsistencies... 	...done.

--------------------------------------------------------------
User input:
--------------------------------------------------------------
$comment
generated from CCJob.Templates
$end

$rem
sym_ignore = true
method = adc(2)
ee_states = 10
basis = cc-pVDZ
mem_static = 1024
mem_total = 40000
adc_davidson_maxiter = 900
adc_davidson_conv = 6
adc_print = 3
adc_prop_es = true
adc_prop_es2es = true
adc_prop_tpa = true
molden_format = True
state_analysis = true
print_orbitals = 15
gen_scfman = false
fde_export_density = true
fde_details = 3
$end

$molecule
0 1
H -0.0348278765 -0.20420978269999998 0.0636489606
C -1.0765972949 -0.5242748755 -0.0023551776
H -1.313264467 -1.5767591607 -0.0757276926
C -2.043634118 0.3926884087 0.0061254933
H -1.8137616575 1.4459188338 0.0804456828
H -3.085977293 0.114931858 -0.0593381042                     
$end
--------------------------------------------------------------
 ----------------------------------------------------------------
             Standard Nuclear Orientation (Angstroms)
    I     Atom           X                Y                Z
 ----------------------------------------------------------------
    1      H      -0.0348278765    -0.2042097827     0.0636489606
    2      C      -1.0765972949    -0.5242748755    -0.0023551776
    3      H      -1.3132644670    -1.5767591607    -0.0757276926
    4      C      -2.0436341180     0.3926884087     0.0061254933
    5      H      -1.8137616575     1.4459188338     0.0804456828
    6      H      -3.0859772930     0.1149318580    -0.0593381042
 ----------------------------------------------------------------
 Nuclear Repulsion Energy =          33.40063091 hartrees
 There are        8 alpha and        8 beta electrons
 Requested basis set is cc-pVDZ
 There are 24 shells and 48 basis functions
 Total memory of 40000 MB is distributed as follows: 
   MEM_STATIC is set to 1024 MB
   QALLOC/CCMAN JOB total memory use is  38976 MB
 Warning: actual memory use might exceed 40000 MB

 Total QAlloc Memory Limit  40000 MB
 Mega-Array Size      1001 MB
 MEM_STATIC part      1024 MB

                       Distance Matrix (Angstroms)
             H (  1)   C (  2)   H (  3)   C (  4)   H (  5)
   C (  2)  1.091825
   H (  3)  1.880882  1.081258
   C (  4)  2.096401  1.332687  2.102109
   H (  5)  2.426481  2.105215  3.067812  1.080583
   H (  6)  3.070259  2.109370  2.450428  1.080700  1.846510

 A cutoff of  1.0D-11 yielded    300 shell pairs
 There are      1220 function pairs (      1329 Cartesian)
 Smallest overlap matrix eigenvalue = 4.80E-03

 Scale SEOQF with 1.000000e-01/1.000000e-01/1.000000e+00

 Standard Electronic Orientation quadrupole field applied
 Nucleus-field energy     =     0.0000000022 hartrees
 Guess from superposition of atomic densities
 Warning:  Energy on first SCF cycle will be non-variational
 SAD guess density has 16.000000 electrons
 A restricted Hartree-Fock SCF calculation will be
 performed using Pulay DIIS extrapolation
 SCF converges when DIIS error is below 1.0E-08
 using 10 threads for integral computing
 -------------------------------------------------------
 OpenMP Integral computing Module                
 Release: version 1.0, May 2013, Q-Chem Inc. Pittsburgh 
 -------------------------------------------------------
 ---------------------------------------
  Cycle       Energy         DIIS Error
 ---------------------------------------
    1     -78.4324095334      1.01E-01
    2     -78.0174132999      7.21E-03
    3     -78.0380372786      1.85E-03
    4     -78.0395219599      5.79E-04
    5     -78.0396455377      6.06E-05
    6     -78.0396474536      1.51E-05
    7     -78.0396475532      5.74E-06
    8     -78.0396475658      9.65E-07
    9     -78.0396475666      1.89E-07
   10     -78.0396475666      6.18E-08
   11     -78.0396475666      7.48E-09 Convergence criterion met
 ---------------------------------------
 SCF time:  CPU 2.08 s  wall 3.45 s
 SCF   energy in the final basis set = -78.03964757
 Total energy in the final basis set = -78.03964757
Exporting Density Matrix to file 'Densmat_SCF.txt'.
Export successful
================================================================================
|                                                                              |
|                                 A D C  M A N                                 |
|                                                                              |
 ------------------------------------------------------------------------------ 
|                                                                              |
| Components:                                                                  |
|                                                                              |
| - libvmm - 1.3-trunk                                                         |
|   Authors:                                                                   |
|   Evgeny Epifanovsky, Ilya Kaliman                                           |
|                                                                              |
| - libtensor - 2.5-trunk                                                      |
|   Authors:                                                                   |
|   Evgeny Epifanovsky, Michael Wormit, Dmitry Zuev, Sam Manzer,               |
|   Ilya Kaliman                                                               |
|                                                                              |
| - libwfa - 1.1-trunk                                                         |
|   Authors:                                                                   |
|   Felix Plasser, Stefanie Mewes (Baeppler), Benjamin Thomitzni,              |
|   Michael Wormit, Feng Chen, Anna I. Krylov, Pavel Pokhilko                  |
|                                                                              |
| - libadc - 1.1-trunk                                                         |
|   Authors:                                                                   |
|   Michael Wormit, Adrian L. Dempwolff, Philipp H. P. Harbach,                |
|   Caroline Krauter, Dirk Rehn, Matthias Schneider, Jan Wenzel                |
|                                                                              |
| - adcman - 2.6-trunk                                                         |
|   Authors:                                                                   |
|   Michael Wormit, Adrian L. Dempwolff, Philipp H. P. Harbach,                |
|   Caroline Krauter, Daniel Lefrancois, Jan-Michael Mewes, Dirk Rehn,         |
|   Matthias Schneider, Jan Wenzel, Andreas Dreuw                              |
|                                                                              |
| Authors of earlier versions of ADCMAN:                                       |
| Andreas Dreuw, Jan Hendrik Starcke, Dirk Rehn, Michael Wormit                |
|                                                                              |
================================================================================

 Created directory /srv/beegfs/scratch/users/f/fum/qchem92145/plots
  Import QC data ...  CPU 0.00 s  wall 0.01 s

 Alpha MOs, Restricted
 -- Occupied --                  
-11.236 -11.233  -1.032  -0.787  -0.642  -0.579  -0.505  -0.374
  1 A     2 A     3 A     4 A     5 A     6 A     7 A     8 A                  
 -- Virtual --                   
  0.169   0.203   0.232   0.240   0.303   0.460   0.576   0.619
  9 A    10 A    11 A    12 A    13 A    14 A    15 A    16 A                  
  0.689   0.706   0.784   0.808   0.862   0.935   0.971   1.008
 17 A    18 A    19 A    20 A    21 A    22 A    23 A    24 A                  
  1.128   1.235   1.265   1.268   1.292   1.599   1.704   1.747
 25 A    26 A    27 A    28 A    29 A    30 A    31 A    32 A                  
  1.820   1.861   1.871   1.928   1.970   1.981   2.213   2.257
 33 A    34 A    35 A    36 A    37 A    38 A    39 A    40 A                  
  2.378   2.453   2.488   2.618   2.721   2.812   3.145   3.385
 41 A    42 A    43 A    44 A    45 A    46 A    47 A    48 A                  

 Beta MOs, Restricted
 -- Occupied --                  
-11.236 -11.233  -1.032  -0.787  -0.642  -0.579  -0.505  -0.374
  1 A     2 A     3 A     4 A     5 A     6 A     7 A     8 A                  
 -- Virtual --                   
  0.169   0.203   0.232   0.240   0.303   0.460   0.576   0.619
  9 A    10 A    11 A    12 A    13 A    14 A    15 A    16 A                  
  0.689   0.706   0.784   0.808   0.862   0.935   0.971   1.008
 17 A    18 A    19 A    20 A    21 A    22 A    23 A    24 A                  
  1.128   1.235   1.265   1.268   1.292   1.599   1.704   1.747
 25 A    26 A    27 A    28 A    29 A    30 A    31 A    32 A                  
  1.820   1.861   1.871   1.928   1.970   1.981   2.213   2.257
 33 A    34 A    35 A    36 A    37 A    38 A    39 A    40 A                  
  2.378   2.453   2.488   2.618   2.721   2.812   3.145   3.385
 41 A    42 A    43 A    44 A    45 A    46 A    47 A    48 A                  
  Import AO data ...  CPU 0.01 s  wall 0.05 s
  Using point group: C1
  Irreducible representations in point group: A
  Molecular orbitals: 
  Occupied MOs:
  Block   0:   1 (  A) A   2 (  A) A   3 (  A) A   4 (  A) A   5 (  A) A
                  -11.24      -11.23      -1.032     -0.7874     -0.6422
               6 (  A) A   7 (  A) A   8 (  A) A
                  -0.579     -0.5048      -0.374
  Block   1:   1 (  A) B   2 (  A) B   3 (  A) B   4 (  A) B   5 (  A) B
                  -11.24      -11.23      -1.032     -0.7874     -0.6422
               6 (  A) B   7 (  A) B   8 (  A) B
                  -0.579     -0.5048      -0.374
  Virtual MOs:
  Block   0:   9 (  A) A  10 (  A) A  11 (  A) A  12 (  A) A  13 (  A) A
                  0.1686      0.2029      0.2321      0.2399      0.3031
              14 (  A) A  15 (  A) A  16 (  A) A  17 (  A) A  18 (  A) A
                  0.4596      0.5757      0.6193      0.6891      0.7061
              19 (  A) A  20 (  A) A  21 (  A) A  22 (  A) A
                  0.7839       0.808       0.862       0.935
  Block   1:  23 (  A) A  24 (  A) A  25 (  A) A  26 (  A) A  27 (  A) A
                  0.9709       1.008       1.128       1.235       1.265
              28 (  A) A  29 (  A) A  30 (  A) A  31 (  A) A  32 (  A) A
                   1.268       1.292       1.599       1.704       1.747
              33 (  A) A  34 (  A) A  35 (  A) A  36 (  A) A
                    1.82       1.861       1.871       1.928
  Block   2:  37 (  A) A  38 (  A) A  39 (  A) A  40 (  A) A  41 (  A) A
                    1.97       1.981       2.213       2.257       2.378
              42 (  A) A  43 (  A) A  44 (  A) A  45 (  A) A  46 (  A) A
                   2.453       2.488       2.618       2.721       2.812
              47 (  A) A  48 (  A) A
                   3.145       3.385
  Block   3:   9 (  A) B  10 (  A) B  11 (  A) B  12 (  A) B  13 (  A) B
                  0.1686      0.2029      0.2321      0.2399      0.3031
              14 (  A) B  15 (  A) B  16 (  A) B  17 (  A) B  18 (  A) B
                  0.4596      0.5757      0.6193      0.6891      0.7061
              19 (  A) B  20 (  A) B  21 (  A) B  22 (  A) B
                  0.7839       0.808       0.862       0.935
  Block   4:  23 (  A) B  24 (  A) B  25 (  A) B  26 (  A) B  27 (  A) B
                  0.9709       1.008       1.128       1.235       1.265
              28 (  A) B  29 (  A) B  30 (  A) B  31 (  A) B  32 (  A) B
                   1.268       1.292       1.599       1.704       1.747
              33 (  A) B  34 (  A) B  35 (  A) B  36 (  A) B
                    1.82       1.861       1.871       1.928
  Block   5:  37 (  A) B  38 (  A) B  39 (  A) B  40 (  A) B  41 (  A) B
                    1.97       1.981       2.213       2.257       2.378
              42 (  A) B  43 (  A) B  44 (  A) B  45 (  A) B  46 (  A) B
                   2.453       2.488       2.618       2.721       2.812
              47 (  A) B  48 (  A) B
                   3.145       3.385
  Import MO data ...  CPU 0.01 s  wall 0.05 s
  Import HF data ...  CPU 0.07 s  wall 0.04 s
  Import 2e integrals ...  CPU 0.90 s  wall 0.16 s

--------------------------------------------------------------------------------
                                   HF Summary                                   
--------------------------------------------------------------------------------
  Energy:                                                  -78.0396475666 a.u.
  Dip. moment [a.u.]:                  [  -0.005248,    0.003453,   -0.000239]
  Total dipole [Debye]:                                               0.015979
  <r^2> [a.u.]:                        [ 175.338713,   34.834625,   11.637770]
  Total <r^2> [a.u.]:                                               221.811108
--------------------------------------------------------------------------------
  HF properties ...  CPU 0.01 s  wall 0.01 s
  MP(1) calculation ...  CPU 0.01 s  wall 0.01 s
  N^6 prerequesite intermediates ...  CPU 0.44 s  wall 0.07 s
  Difference density matrix of state mp2_gs printed to ASCII file 'State_mp2_gs_Difference.txt'
Exporting MP density matrix to file 'Densmat_MP.txt'.
Export successful
  Total density matrix of state mp2_gs printed to ASCII file 'State_mp2_gs_Total.txt'
Exporting MP density matrix to file 'Densmat_MP.txt'.
Export successful

--------------------------------------------------------------------------------
                                 MP(2) Summary                                  
--------------------------------------------------------------------------------
  MP energy contribution:                                   -0.2799017868 a.u.
  Total energy:                                            -78.3195493534 a.u.
  Dip. moment [a.u.]:                  [  -0.004463,    0.003609,   -0.000190]
  Total dipole [Debye]:                                               0.014597
  <r^2> [a.u.]:                        [ 175.387168,   34.877007,   11.468720]
  Total <r^2> [a.u.]:                                               221.732895

  Density matrix analysis:
  ------------------------
  NOs
    Occupation of frontier NOs:
       0.0453   1.9382
    Number of electrons: 16.000000
    Number of unpaired electrons: n_u =  0.40419, n_u,nl =  0.04522
    NO participation ratio (PR_NO): 13.867386
  
  
  Mulliken Population Analysis
  Atom      Charge (e)              h+              e-           Del q
  --------------------------------------------------------------------
   1 H        0.053617        0.013783       -0.011260        0.002523
   2 C       -0.103396        0.094486       -0.098989       -0.004503
   3 H        0.052130        0.013827       -0.011268        0.002559
   4 C       -0.101904        0.092523       -0.099018       -0.006495
   5 H        0.049746        0.014149       -0.011185        0.002964
   6 H        0.049807        0.014144       -0.011191        0.002953
  --------------------------------------------------------------------
  Sum:        0.000000        0.242911       -0.242911       -0.000000
  
  Multipole moment analysis of the density matrix
    Molecular charge:                      0.000000
    Number of electrons:                   16.000000
      Center of electronic charge [Ang]: [ -1.560429,  -0.063222,   0.001984]
    Total nuclear charge:                  16.000000
      Center of nuclear charge [Ang]:    [ -1.560576,  -0.063102,   0.001978]
    Dipole moment [D]:                     0.014597
      Cartesian components [D]:          [ -0.011344,   0.009172,  -0.000484]
    RMS size of the density [Ang]:         1.200742
      Cartesian components [Ang]:        [  0.796650,   0.778725,   0.448017]
  
  Exciton analysis of the difference density matrix
    <r_h> [Ang]:                  [ -1.557635,  -0.064149,   0.002092]
    <r_e> [Ang]:                  [ -1.559344,  -0.064489,   0.001985]
    |<r_e - r_h>| [Ang]:            0.001746
    Hole size [Ang]:                1.394140
      Cartesian components [Ang]: [  0.848552,   0.832725,   0.728118]
    Electron size [Ang]:            1.359445
      Cartesian components [Ang]: [  0.877821,   0.861536,   0.579029]
--------------------------------------------------------------------------------
  MP(2) calculation ...  CPU 0.11 s  wall 1.17 s
  Start ADC(2)-s ...  CPU 0.01 s  wall 0.00 s
  ADC(2) intermediates ...  CPU 0.02 s  wall 0.01 s
  Starting Davidson for singlet states of irrep A ... 
--------------------------------------------------------------------------------
   It NVec Conv  Avg. Norm  Max. Norm  Conv. states           Remark
--------------------------------------------------------------------------------
        10    0  1.330e-01  4.672e-01  0.4106 n n n n n n n n Guess.
    1   20    0  2.314e-02  1.100e-01  0.3264 n n n n n n n n 
    2   30    0  6.070e-03  3.000e-02  0.3216 n n n n n n n n 
    3   40    0  2.195e-03  1.621e-02  0.3212 n n n n n n n n 
    4   50    0  6.406e-04  4.844e-03  0.3212 n n n n n n n n 
    5   20    0  2.875e-04  2.147e-03  0.3212 n n n n n n n n Subspace collapsed.
    6   30    0  2.360e-04  2.182e-03  0.3212 n n n n n n n n 
    7   40    0  2.065e-04  1.900e-03  0.3212 n n n n n n n n 
    8   50    0  2.389e-04  2.358e-03  0.3212 n n n n n n n n 
    9   20    2  1.043e-04  1.025e-03  0.3212 n y n y n n n n Subspace collapsed.
   10   30    3  9.193e-05  9.077e-04  0.3212 n y y y n n n n 
   11   40    5  6.524e-05  6.464e-04  0.3212 n y y y y y n n 
   12   50    5  8.615e-05  8.601e-04  0.3212 n y y y y y n n 
   13   20    6  4.629e-05  4.622e-04  0.3212 y y y y y y n n Subspace collapsed.
   14   30    6  5.590e-05  5.584e-04  0.3212 y y y y y y n n 
   15   40    6  4.391e-05  4.388e-04  0.3212 y y y y y y n n 
   16   50    6  5.120e-05  5.119e-04  0.3212 y y y y y y n n 
   17   20    6  2.607e-05  2.606e-04  0.3212 y y y y y y n n Subspace collapsed.
   18   30    6  2.484e-05  2.483e-04  0.3212 y y y y y y n n 
   19   40    8  1.521e-05  1.520e-04  0.3212 y y y y y y y y 
   20   50    8  2.176e-05  2.176e-04  0.3212 y y y y y y y y 
   21   20    8  9.908e-06  9.906e-05  0.3212 y y y y y y y y Subspace collapsed.
   22   30    8  1.541e-05  1.541e-04  0.3212 y y y y y y y y 
   23   32    8  1.443e-05  1.443e-04  0.3212 y y y y y y y y 
   24   41    8  1.208e-05  1.208e-04  0.3212 y y y y y y y y 
   25   48    8  1.322e-05  1.322e-04  0.3212 y y y y y y y y 
   26   50    8  1.373e-05  1.373e-04  0.3212 y y y y y y y y 
   27   16    9  6.644e-06  6.644e-05  0.3212 y y y y y y y y Subspace collapsed.
   28   21    9  6.297e-06  6.296e-05  0.3212 y y y y y y y y 
   29   26    9  4.897e-06  4.897e-05  0.3212 y y y y y y y y 
   30   31    9  5.254e-06  5.254e-05  0.3212 y y y y y y y y 
   31   36    9  4.758e-06  4.758e-05  0.3212 y y y y y y y y 
   32   40    9  3.385e-06  3.385e-05  0.3212 y y y y y y y y 
   33   44    9  2.373e-06  2.373e-05  0.3212 y y y y y y y y 
   34   48    9  1.330e-06  1.330e-05  0.3212 y y y y y y y y 
   35   50    9  7.300e-07  7.300e-06  0.3212 y y y y y y y y 
   36   14    9  3.971e-07  3.971e-06  0.3212 y y y y y y y y Subspace collapsed.
   37   18    9  3.185e-07  3.185e-06  0.3212 y y y y y y y y 
   38   22    9  2.390e-07  2.390e-06  0.3212 y y y y y y y y 
   39   26    9  1.698e-07  1.698e-06  0.3212 y y y y y y y y 
   40   30   10  9.691e-08  9.691e-07  0.3212 y y y y y y y y Converged.
--------------------------------------------------------------------------------
  Davidson Summary: 
 ------------------------------------------------------------
  State  0: excitation energy =   0.3212 a.u.   (converged)
  State  1: excitation energy =   0.3333 a.u.   (converged)
  State  2: excitation energy =   0.3356 a.u.   (converged)
  State  3: excitation energy =   0.3608 a.u.   (converged)
  State  4: excitation energy =   0.3742 a.u.   (converged)
  State  5: excitation energy =   0.3863 a.u.   (converged)
  State  6: excitation energy =   0.4238 a.u.   (converged)
  State  7: excitation energy =   0.4476 a.u.   (converged)
  State  8: excitation energy =   0.4569 a.u.   (converged)
  State  9: excitation energy =   0.4643 a.u.   (converged)
 ------------------------------------------------------------

  Singlet states of irrep A ...  CPU 111.77 s  wall 28.96 s
  TDMs ...  CPU 0.59 s  wall 0.23 s
  SDMs ...  CPU 1.25 s  wall 0.44 s
  Starting TPA DIIS iterations ... 
------------------------------------ 
   It     Res. Norm  Remark
------------------------------------
                       Guess.
    1     4.390e+00  
    2     5.822e+00  
    3     1.081e+00  
    4     2.596e-01  
    5     6.587e-02  
    6     2.692e-02  
    7     8.253e-03  
    8     1.467e-03  
    9     5.411e-04  
   10     9.154e-05  
   11     2.880e-05  
   12     4.610e-06  
   13     1.492e-06  
   14     5.761e-07  Converged.
   ... Converged in 14 steps (norm: 5.7607e-07)
------------------------------------
  Starting TPA DIIS iterations ... 
------------------------------------ 
   It     Res. Norm  Remark
------------------------------------
                       Guess.
    1     4.184e+00  
    2     5.533e+00  
    3     1.023e+00  
    4     2.544e-01  
    5     6.550e-02  
    6     2.649e-02  
    7     8.049e-03  
    8     1.443e-03  
    9     5.358e-04  
   10     8.920e-05  
   11     2.821e-05  
   12     4.450e-06  
   13     1.525e-06  
   14     5.726e-07  Converged.
   ... Converged in 14 steps (norm: 5.72596e-07)
------------------------------------
  Starting TPA DIIS iterations ... 
------------------------------------ 
   It     Res. Norm  Remark
------------------------------------
                       Guess.
    1     6.928e-01  
    2     4.847e-01  
    3     1.699e-01  
    4     5.774e-02  
    5     1.870e-02  
    6     6.833e-03  
    7     1.094e-03  
    8     4.517e-04  
    9     1.373e-04  
   10     2.133e-05  
   11     1.050e-05  
   12     3.672e-06  
   13     2.297e-06  
   14     9.218e-07  Converged.
   ... Converged in 14 steps (norm: 9.21814e-07)
------------------------------------
  Starting TPA DIIS iterations ... 
------------------------------------ 
   It     Res. Norm  Remark
------------------------------------
                       Guess.
    1     4.686e+00  
    2     6.355e+00  
    3     1.166e+00  
    4     2.896e-01  
    5     7.450e-02  
    6     3.073e-02  
    7     9.404e-03  
    8     1.669e-03  
    9     6.203e-04  
   10     1.055e-04  
   11     3.355e-05  
   12     5.451e-06  
   13     1.776e-06  
   14     7.106e-07  Converged.
   ... Converged in 14 steps (norm: 7.10589e-07)
------------------------------------
  Starting TPA DIIS iterations ... 
------------------------------------ 
   It     Res. Norm  Remark
------------------------------------
                       Guess.
    1     4.466e+00  
    2     6.038e+00  
    3     1.103e+00  
    4     2.834e-01  
    5     7.410e-02  
    6     3.025e-02  
    7     9.169e-03  
    8     1.642e-03  
    9     6.143e-04  
   10     1.028e-04  
   11     3.283e-05  
   12     5.256e-06  
   13     1.824e-06  
   14     7.054e-07  Converged.
   ... Converged in 14 steps (norm: 7.05358e-07)
------------------------------------
  Starting TPA DIIS iterations ... 
------------------------------------ 
   It     Res. Norm  Remark
------------------------------------
                       Guess.
    1     7.053e-01  
    2     5.026e-01  
    3     1.801e-01  
    4     6.549e-02  
    5     2.024e-02  
    6     7.484e-03  
    7     1.239e-03  
    8     5.288e-04  
    9     1.616e-04  
   10     2.364e-05  
   11     1.236e-05  
   12     4.362e-06  
   13     2.885e-06  
   14     1.179e-06  
   15     4.258e-07  Converged.
   ... Converged in 15 steps (norm: 4.25776e-07)
------------------------------------
  Starting TPA DIIS iterations ... 
------------------------------------ 
   It     Res. Norm  Remark
------------------------------------
                       Guess.
    1     4.748e+00  
    2     6.467e+00  
    3     1.183e+00  
    4     2.960e-01  
    5     7.635e-02  
    6     3.155e-02  
    7     9.650e-03  
    8     1.713e-03  
    9     6.372e-04  
   10     1.086e-04  
   11     3.458e-05  
   12     5.635e-06  
   13     1.839e-06  
   14     7.411e-07  Converged.
   ... Converged in 14 steps (norm: 7.41087e-07)
------------------------------------
  Starting TPA DIIS iterations ... 
------------------------------------ 
   It     Res. Norm  Remark
------------------------------------
                       Guess.
    1     4.524e+00  
    2     6.145e+00  
    3     1.119e+00  
    4     2.896e-01  
    5     7.594e-02  
    6     3.105e-02  
    7     9.409e-03  
    8     1.685e-03  
    9     6.312e-04  
   10     1.058e-04  
   11     3.383e-05  
   12     5.432e-06  
   13     1.890e-06  
   14     7.354e-07  Converged.
   ... Converged in 14 steps (norm: 7.3537e-07)
------------------------------------
  Starting TPA DIIS iterations ... 
------------------------------------ 
   It     Res. Norm  Remark
------------------------------------
                       Guess.
    1     7.079e-01  
    2     5.063e-01  
    3     1.822e-01  
    4     6.717e-02  
    5     2.055e-02  
    6     7.624e-03  
    7     1.270e-03  
    8     5.457e-04  
    9     1.669e-04  
   10     2.412e-05  
   11     1.277e-05  
   12     4.515e-06  
   13     3.019e-06  
   14     1.238e-06  
   15     4.462e-07  Converged.
   ... Converged in 15 steps (norm: 4.46172e-07)
------------------------------------
  Starting TPA DIIS iterations ... 
------------------------------------ 
   It     Res. Norm  Remark
------------------------------------
                       Guess.
    1     5.502e+00  
    2     7.872e+00  
    3     1.396e+00  
    4     3.787e-01  
    5     1.002e-01  
    6     4.222e-02  
    7     1.283e-02  
    8     2.269e-03  
    9     8.586e-04  
   10     1.479e-04  
   11     4.828e-05  
   12     8.136e-06  
   13     2.705e-06  
   14     1.191e-06  
   15     3.624e-07  Converged.
   ... Converged in 15 steps (norm: 3.62384e-07)
------------------------------------
  Starting TPA DIIS iterations ... 
------------------------------------ 
   It     Res. Norm  Remark
------------------------------------
                       Guess.
    1     5.241e+00  
    2     7.479e+00  
    3     1.320e+00  
    4     3.697e-01  
    5     9.969e-02  
    6     4.157e-02  
    7     1.251e-02  
    8     2.233e-03  
    9     8.508e-04  
   10     1.440e-04  
   11     4.715e-05  
   12     7.815e-06  
   13     2.808e-06  
   14     1.175e-06  
   15     4.128e-07  Converged.
   ... Converged in 15 steps (norm: 4.12818e-07)
------------------------------------
  Starting TPA DIIS iterations ... 
------------------------------------ 
   It     Res. Norm  Remark
------------------------------------
                       Guess.
    1     7.359e-01  
    2     5.488e-01  
    3     2.071e-01  
    4     8.961e-02  
    5     2.431e-02  
    6     9.424e-03  
    7     1.690e-03  
    8     7.660e-04  
    9     2.362e-04  
   10     3.060e-05  
   11     1.835e-05  
   12     6.674e-06  
   13     4.964e-06  
   14     2.138e-06  
   15     7.077e-07  Converged.
   ... Converged in 15 steps (norm: 7.07718e-07)
------------------------------------
  Starting TPA DIIS iterations ... 
------------------------------------ 
   It     Res. Norm  Remark
------------------------------------
                       Guess.
    1     5.984e+00  
    2     8.801e+00  
    3     1.532e+00  
    4     4.355e-01  
    5     1.166e-01  
    6     4.964e-02  
    7     1.502e-02  
    8     2.650e-03  
    9     1.012e-03  
   10     1.753e-04  
   11     5.802e-05  
   12     9.970e-06  
   13     3.352e-06  
   14     1.563e-06  
   15     4.756e-07  Converged.
   ... Converged in 15 steps (norm: 4.75581e-07)
------------------------------------
  Starting TPA DIIS iterations ... 
------------------------------------ 
   It     Res. Norm  Remark
------------------------------------
                       Guess.
    1     5.698e+00  
    2     8.360e+00  
    3     1.448e+00  
    4     4.245e-01  
    5     1.160e-01  
    6     4.889e-02  
    7     1.464e-02  
    8     2.609e-03  
    9     1.003e-03  
   10     1.706e-04  
   11     5.658e-05  
   12     9.553e-06  
   13     3.500e-06  
   14     1.532e-06  
   15     5.336e-07  Converged.
   ... Converged in 15 steps (norm: 5.33636e-07)
------------------------------------
  Starting TPA DIIS iterations ... 
------------------------------------ 
   It     Res. Norm  Remark
------------------------------------
                       Guess.
    1     7.516e-01  
    2     5.740e-01  
    3     2.225e-01  
    4     1.056e-01  
    5     2.670e-02  
    6     1.067e-02  
    7     1.993e-03  
    8     9.125e-04  
    9     2.831e-04  
   10     3.598e-05  
   11     2.252e-05  
   12     8.358e-06  
   13     6.532e-06  
   14     2.881e-06  
   15     8.877e-07  Converged.
   ... Converged in 15 steps (norm: 8.877e-07)
------------------------------------
  Starting TPA DIIS iterations ... 
------------------------------------ 
   It     Res. Norm  Remark
------------------------------------
                       Guess.
    1     6.487e+00  
    2     9.793e+00  
    3     1.672e+00  
    4     4.979e-01  
    5     1.345e-01  
    6     5.784e-02  
    7     1.742e-02  
    8     3.067e-03  
    9     1.182e-03  
   10     2.056e-04  
   11     6.889e-05  
   12     1.208e-05  
   13     4.102e-06  
   14     2.032e-06  
   15     6.192e-07  Converged.
   ... Converged in 15 steps (norm: 6.1923e-07)
------------------------------------
  Starting TPA DIIS iterations ... 
------------------------------------ 
   It     Res. Norm  Remark
------------------------------------
                       Guess.
    1     6.175e+00  
    2     9.302e+00  
    3     1.580e+00  
    4     4.845e-01  
    5     1.338e-01  
    6     5.698e-02  
    7     1.697e-02  
    8     3.020e-03  
    9     1.172e-03  
   10     2.000e-04  
   11     6.711e-05  
   12     1.154e-05  
   13     4.308e-06  
   14     1.976e-06  
   15     6.771e-07  Converged.
   ... Converged in 15 steps (norm: 6.77112e-07)
------------------------------------
  Starting TPA DIIS iterations ... 
------------------------------------ 
   It     Res. Norm  Remark
------------------------------------
                       Guess.
    1     7.665e-01  
    2     5.991e-01  
    3     2.381e-01  
    4     1.236e-01  
    5     2.925e-02  
    6     1.204e-02  
    7     2.336e-03  
    8     1.062e-03  
    9     3.326e-04  
   10     4.299e-05  
   11     2.737e-05  
   12     1.039e-05  
   13     8.457e-06  
   14     3.793e-06  
   15     1.103e-06  
   16     5.743e-07  Converged.
   ... Converged in 16 steps (norm: 5.7431e-07)
------------------------------------
  Starting TPA DIIS iterations ... 
------------------------------------ 
   It     Res. Norm  Remark
------------------------------------
                       Guess.
    1     8.551e+00  
    2     1.410e+01  
    3     2.238e+00  
    4     7.813e-01  
    5     2.161e-01  
    6     9.596e-02  
    7     2.835e-02  
    8     4.953e-03  
    9     1.968e-03  
   10     3.458e-04  
   11     1.192e-04  
   12     2.285e-05  
   13     7.911e-06  
   14     5.013e-06  
   15     1.608e-06  
   16     1.244e-06  
   17     3.109e-07  Converged.
   ... Converged in 17 steps (norm: 3.10919e-07)
------------------------------------
  Starting TPA DIIS iterations ... 
------------------------------------ 
   It     Res. Norm  Remark
------------------------------------
                       Guess.
    1     8.135e+00  
    2     1.339e+01  
    3     2.114e+00  
    4     7.562e-01  
    5     2.151e-01  
    6     9.459e-02  
    7     2.760e-02  
    8     4.882e-03  
    9     1.951e-03  
   10     3.357e-04  
   11     1.159e-04  
   12     2.154e-05  
   13     8.458e-06  
   14     4.692e-06  
   15     1.445e-06  
   16     9.836e-07  Converged.
   ... Converged in 16 steps (norm: 9.83581e-07)
------------------------------------
  Starting TPA DIIS iterations ... 
------------------------------------ 
   It     Res. Norm  Remark
------------------------------------
                       Guess.
    1     8.167e-01  
    2     6.913e-01  
    3     2.985e-01  
    4     2.080e-01  
    5     4.051e-02  
    6     1.827e-02  
    7     4.003e-03  
    8     1.548e-03  
    9     5.333e-04  
   10     8.326e-05  
   11     5.268e-05  
   12     2.190e-05  
   13     1.945e-05  
   14     8.938e-06  
   15     2.704e-06  
   16     1.497e-06  
   17     3.905e-07  Converged.
   ... Converged in 17 steps (norm: 3.90515e-07)
------------------------------------
  Starting TPA DIIS iterations ... 
------------------------------------ 
   It     Res. Norm  Remark
------------------------------------
                       Guess.
    1     1.047e+01  
    2     1.843e+01  
    3     2.752e+00  
    4     1.076e+00  
    5     3.018e-01  
    6     1.370e-01  
    7     3.983e-02  
    8     6.923e-03  
    9     2.810e-03  
   10     4.954e-04  
   11     1.712e-04  
   12     3.626e-05  
   13     1.258e-05  
   14     9.668e-06  
   15     3.400e-06  
   16     2.549e-06  
   17     6.514e-07  Converged.
   ... Converged in 17 steps (norm: 6.51372e-07)
------------------------------------
  Starting TPA DIIS iterations ... 
------------------------------------ 
   It     Res. Norm  Remark
------------------------------------
                       Guess.
    1     9.962e+00  
    2     1.750e+01  
    3     2.599e+00  
    4     1.038e+00  
    5     3.005e-01  
    6     1.351e-01  
    7     3.875e-02  
    8     6.826e-03  
    9     2.785e-03  
   10     4.801e-04  
   11     1.664e-04  
   12     3.366e-05  
   13     1.346e-05  
   14     8.758e-06  
   15     2.467e-06  
   16     1.947e-06  
   17     4.046e-07  Converged.
   ... Converged in 17 steps (norm: 4.04585e-07)
------------------------------------
  Starting TPA DIIS iterations ... 
------------------------------------ 
   It     Res. Norm  Remark
------------------------------------
                       Guess.
    1     8.525e-01  
    2     7.661e-01  
    3     3.504e-01  
    4     2.940e-01  
    5     5.203e-02  
    6     2.448e-02  
    7     5.823e-03  
    8     1.801e-03  
    9     7.128e-04  
   10     1.288e-04  
   11     8.362e-05  
   12     3.729e-05  
   13     3.278e-05  
   14     1.556e-05  
   15     5.608e-06  
   16     2.858e-06  
   17     6.332e-07  Converged.
   ... Converged in 17 steps (norm: 6.33184e-07)
------------------------------------
  Starting TPA DIIS iterations ... 
------------------------------------ 
   It     Res. Norm  Remark
------------------------------------
                       Guess.
    1     1.142e+01  
    2     2.064e+01  
    3     2.999e+00  
    4     1.229e+00  
    5     3.467e-01  
    6     1.587e-01  
    7     4.584e-02  
    8     7.950e-03  
    9     3.255e-03  
   10     5.742e-04  
   11     1.977e-04  
   12     4.418e-05  
   13     1.542e-05  
   14     1.268e-05  
   15     4.660e-06  
   16     3.407e-06  
   17     8.737e-07  Converged.
   ... Converged in 17 steps (norm: 8.73703e-07)
------------------------------------
  Starting TPA DIIS iterations ... 
------------------------------------ 
   It     Res. Norm  Remark
------------------------------------
                       Guess.
    1     1.086e+01  
    2     1.960e+01  
    3     2.832e+00  
    4     1.183e+00  
    5     3.451e-01  
    6     1.566e-01  
    7     4.458e-02  
    8     7.841e-03  
    9     3.227e-03  
   10     5.559e-04  
   11     1.923e-04  
   12     4.067e-05  
   13     1.637e-05  
   14     1.136e-05  
   15     3.129e-06  
   16     2.583e-06  
   17     5.254e-07  Converged.
   ... Converged in 17 steps (norm: 5.25423e-07)
------------------------------------
  Starting TPA DIIS iterations ... 
------------------------------------ 
   It     Res. Norm  Remark
------------------------------------
                       Guess.
    1     8.676e-01  
    2     7.999e-01  
    3     3.745e-01  
    4     3.358e-01  
    5     5.793e-02  
    6     2.749e-02  
    7     6.771e-03  
    8     1.883e-03  
    9     7.988e-04  
   10     1.522e-04  
   11     1.012e-04  
   12     4.646e-05  
   13     3.958e-05  
   14     1.937e-05  
   15     7.531e-06  
   16     3.729e-06  
   17     8.022e-07  Converged.
   ... Converged in 17 steps (norm: 8.0221e-07)
------------------------------------
  Starting TPA DIIS iterations ... 
------------------------------------ 
   It     Res. Norm  Remark
------------------------------------
                       Guess.
    1     1.227e+01  
    2     2.268e+01  
    3     3.219e+00  
    4     1.370e+00  
    5     3.885e-01  
    6     1.792e-01  
    7     5.145e-02  
    8     8.908e-03  
    9     3.673e-03  
   10     6.480e-04  
   11     2.223e-04  
   12     5.212e-05  
   13     1.841e-05  
   14     1.579e-05  
   15     6.019e-06  
   16     4.317e-06  
   17     1.095e-06  
   18     5.884e-07  Converged.
   ... Converged in 18 steps (norm: 5.88406e-07)
------------------------------------
  Starting TPA DIIS iterations ... 
------------------------------------ 
   It     Res. Norm  Remark
------------------------------------
                       Guess.
    1     1.166e+01  
    2     2.154e+01  
    3     3.039e+00  
    4     1.317e+00  
    5     3.868e-01  
    6     1.768e-01  
    7     5.002e-02  
    8     8.787e-03  
    9     3.641e-03  
   10     6.269e-04  
   11     2.163e-04  
   12     4.763e-05  
   13     1.930e-05  
   14     1.406e-05  
   15     3.849e-06  
   16     3.262e-06  
   17     6.441e-07  Converged.
   ... Converged in 17 steps (norm: 6.44139e-07)
------------------------------------
  Starting TPA DIIS iterations ... 
------------------------------------ 
   It     Res. Norm  Remark
------------------------------------
                       Guess.
    1     8.800e-01  
    2     8.292e-01  
    3     3.957e-01  
    4     3.723e-01  
    5     6.336e-02  
    6     3.013e-02  
    7     7.646e-03  
    8     1.948e-03  
    9     8.756e-04  
   10     1.736e-04  
   11     1.182e-04  
   12     5.564e-05  
   13     4.560e-05  
   14     2.310e-05  
   15     9.536e-06  
   16     4.645e-06  
   17     1.024e-06  
   18     7.623e-07  Converged.
   ... Converged in 18 steps (norm: 7.62255e-07)
------------------------------------
  Two-photon absorbption ...  CPU 99.61 s  wall 19.20 s
  Transition density matrix of state singlet_A_1 printed to ASCII file 'State_singlet_A_1_Transition.txt'
  Transition density matrix of state singlet_A_2 printed to ASCII file 'State_singlet_A_2_Transition.txt'
  Transition density matrix of state singlet_A_3 printed to ASCII file 'State_singlet_A_3_Transition.txt'
  Transition density matrix of state singlet_A_4 printed to ASCII file 'State_singlet_A_4_Transition.txt'
  Transition density matrix of state singlet_A_5 printed to ASCII file 'State_singlet_A_5_Transition.txt'
  Transition density matrix of state singlet_A_6 printed to ASCII file 'State_singlet_A_6_Transition.txt'
  Transition density matrix of state singlet_A_7 printed to ASCII file 'State_singlet_A_7_Transition.txt'
  Transition density matrix of state singlet_A_8 printed to ASCII file 'State_singlet_A_8_Transition.txt'
  Transition density matrix of state singlet_A_9 printed to ASCII file 'State_singlet_A_9_Transition.txt'
  Transition density matrix of state singlet_A_10 printed to ASCII file 'State_singlet_A_10_Transition.txt'
  Transition properties ...  CPU 0.15 s  wall 1.32 s
  Difference density matrix of state singlet_A_1 printed to ASCII file 'State_singlet_A_1_Difference.txt'
  Total density matrix of state singlet_A_1 printed to ASCII file 'State_singlet_A_1_Total.txt'
  Difference density matrix of state singlet_A_2 printed to ASCII file 'State_singlet_A_2_Difference.txt'
  Total density matrix of state singlet_A_2 printed to ASCII file 'State_singlet_A_2_Total.txt'
  Difference density matrix of state singlet_A_3 printed to ASCII file 'State_singlet_A_3_Difference.txt'
  Total density matrix of state singlet_A_3 printed to ASCII file 'State_singlet_A_3_Total.txt'
  Difference density matrix of state singlet_A_4 printed to ASCII file 'State_singlet_A_4_Difference.txt'
  Total density matrix of state singlet_A_4 printed to ASCII file 'State_singlet_A_4_Total.txt'
  Difference density matrix of state singlet_A_5 printed to ASCII file 'State_singlet_A_5_Difference.txt'
  Total density matrix of state singlet_A_5 printed to ASCII file 'State_singlet_A_5_Total.txt'
  Difference density matrix of state singlet_A_6 printed to ASCII file 'State_singlet_A_6_Difference.txt'
  Total density matrix of state singlet_A_6 printed to ASCII file 'State_singlet_A_6_Total.txt'
  Difference density matrix of state singlet_A_7 printed to ASCII file 'State_singlet_A_7_Difference.txt'
  Total density matrix of state singlet_A_7 printed to ASCII file 'State_singlet_A_7_Total.txt'
  Difference density matrix of state singlet_A_8 printed to ASCII file 'State_singlet_A_8_Difference.txt'
  Total density matrix of state singlet_A_8 printed to ASCII file 'State_singlet_A_8_Total.txt'
  Difference density matrix of state singlet_A_9 printed to ASCII file 'State_singlet_A_9_Difference.txt'
  Total density matrix of state singlet_A_9 printed to ASCII file 'State_singlet_A_9_Total.txt'
  Difference density matrix of state singlet_A_10 printed to ASCII file 'State_singlet_A_10_Difference.txt'
  Total density matrix of state singlet_A_10 printed to ASCII file 'State_singlet_A_10_Total.txt'
  Properties ...  CPU 0.27 s  wall 1.87 s
  ISR TDMS ...  CPU 7.51 s  wall 2.66 s
  ISR transition properties ...  CPU 0.15 s  wall 0.07 s
  Sum-over-states TPA ...  CPU 0.00 s  wall 0.00 s

--------------------------------------------------------------------------------
                   State-averaged natural transition orbitals
--------------------------------------------------------------------------------
--------------------------------------------------------------------------------
  SA-NTO decomposition ...  CPU 0.01 s  wall 0.06 s

--------------------------------------------------------------------------------
                             Excited State Summary
--------------------------------------------------------------------------------
--------------------------------------------------------------------------------

  Excited state 1 (singlet, A)                                     [converged]
  ----------------------------------------------------------------------------
  Term symbol:  2 (1) A                                     R^2 =  3.77511e-13

  Total energy:                                            -77.9983569801 a.u.
  Excitation energy:                                               8.740089 eV

  Osc. strength:                                                      0.446023
  Trans. dip. moment [a.u.]:           [   1.049993,   -0.990156,   -0.008732]
  <i|r^2|0> [a.u.]:                    [   6.178699,   -0.239022,   -0.000840]
  Two-photon absorption cross-section (SoS) [a.u.]:                   0.016452
  Two-photon absorption matrix (SoS) [a.u.]:
                                       |   -0.006865   -0.021109   -0.002795 |
                                       |   -0.021109    0.026417   -0.001250 |
                                       |   -0.002795   -0.001250    0.032900 |
  Two-photon absorption cross-section [a.u.]:                         0.015766
  Two-photon absorption matrix [a.u.]:
                                       |   -0.043053   -0.023957    0.001910 |
                                       |   -0.023957    0.008209    0.003630 |
                                       |    0.001910    0.003630    0.028631 |

  Dip. moment [a.u.]:                  [  -0.003240,    0.003313,   -0.000178]
  Total dipole [Debye]:                                               0.011786
  <r^2> [a.u.]:                        [ 176.146950,   35.569957,   11.877514]
  Total <r^2> [a.u.]:                                               223.594421

  V1^2 = 0.9715, V2^2 = 0.0285

  Important amplitudes:
      occ i     occ j     vir a      vir b          v   
    -----------------------------------------------------
     8 (A) A              9 (A) A                 0.6809
     6 (A) A             14 (A) A                 0.0625
     4 (A) A             10 (A) A                -0.0615
     7 (A) A             16 (A) A                -0.0561
     5 (A) A             13 (A) A                 0.0512
     6 (A) A             23 (A) A                 0.0491
     8 (A) A             20 (A) A                 0.0352
     6 (A) A             19 (A) A                 0.0304
     3 (A) A             12 (A) A                -0.0280
     7 (A) A             11 (A) A                 0.0224
     5 (A) A             22 (A) A                -0.0214
     4 (A) A             24 (A) A                -0.0188
     3 (A) A             26 (A) A                 0.0184
     8 (A) A   8 (A) B   17 (A) A   20 (A) B     -0.0184
     8 (A) A   8 (A) B    9 (A) A   28 (A) B      0.0166
     6 (A) A             26 (A) A                -0.0160
     7 (A) A             21 (A) A                -0.0154
     3 (A) A             14 (A) A                -0.0139
     6 (A) A             12 (A) A                -0.0138
     3 (A) A   4 (A) B    9 (A) A    9 (A) B      0.0129
     3 (A) A             19 (A) A                -0.0118
     8 (A) A   8 (A) B   18 (A) A   19 (A) B      0.0112
     7 (A) A             32 (A) A                -0.0090
     7 (A) A             36 (A) A                -0.0084
     3 (A) A             23 (A) A                -0.0084
     8 (A) A   8 (A) B   25 (A) A   29 (A) B     -0.0076
     7 (A) A              9 (A) A                 0.0070
     6 (A) A             40 (A) A                 0.0068
     3 (A) A   6 (A) B    9 (A) A   28 (A) B     -0.0064
     5 (A) A   7 (A) B    9 (A) A    9 (A) B      0.0060
     5 (A) A   8 (A) B   11 (A) A   20 (A) B      0.0060
     6 (A) A   8 (A) A   19 (A) A   28 (A) A     -0.0060
     7 (A) A   8 (A) B   13 (A) A   20 (A) B      0.0059
     5 (A) A   8 (A) B   16 (A) A    9 (A) B     -0.0059
     3 (A) A   5 (A) B    9 (A) A   25 (A) B     -0.0058
     5 (A) A   8 (A) B   11 (A) A    9 (A) B     -0.0058
     6 (A) A   8 (A) A    9 (A) A   18 (A) A      0.0057
     3 (A) A             40 (A) A                -0.0057
     7 (A) A   8 (A) B   22 (A) A   20 (A) B     -0.0057
     8 (A) A   8 (A) B   19 (A) A   30 (A) B      0.0056
    -----------------------------------------------------

  Density matrix analysis:
  ------------------------
  NOs
    Occupation of frontier NOs:
       0.9492   1.0220
    Number of electrons: 16.000000
    Number of unpaired electrons: n_u =  2.31403, n_u,nl =  2.03282
    NO participation ratio (PR_NO):  2.867312
  
  
  Mulliken Population Analysis
  Atom      Charge (e)              h+              e-           Del q
  --------------------------------------------------------------------
   1 H        0.060897        0.020087       -0.012806        0.007280
   2 C       -0.117535        0.491267       -0.505407       -0.014139
   3 H        0.059504        0.020052       -0.012678        0.007374
   4 C       -0.117752        0.490321       -0.506168       -0.015848
   5 H        0.057443        0.020277       -0.012580        0.007698
   6 H        0.057442        0.020200       -0.012565        0.007635
  --------------------------------------------------------------------
  Sum:        0.000000        1.062204       -1.062204        0.000000
  
  Multipole moment analysis of the density matrix
    Molecular charge:                      0.000000
    Number of electrons:                   16.000000
      Center of electronic charge [Ang]: [ -1.560469,  -0.063212,   0.001984]
    Total nuclear charge:                  16.000000
      Center of nuclear charge [Ang]:    [ -1.560576,  -0.063102,   0.001978]
    Dipole moment [D]:                     0.011786
      Cartesian components [D]:          [ -0.008235,   0.008420,  -0.000452]
    RMS size of the density [Ang]:         1.214182
      Cartesian components [Ang]:        [  0.804874,   0.786474,   0.455932]
  
  Exciton analysis of the difference density matrix
    <r_h> [Ang]:                  [ -1.559790,  -0.065080,   0.002023]
    <r_e> [Ang]:                  [ -1.560399,  -0.064933,   0.002017]
    |<r_e - r_h>| [Ang]:            0.000627
    Hole size [Ang]:                1.285447
      Cartesian components [Ang]: [  0.728752,   0.712250,   0.783577]
    Electron size [Ang]:            1.463299
      Cartesian components [Ang]: [  0.854095,   0.830663,   0.849567]

  Transition density matrix analysis:
  -----------------------------------
  
  CT numbers (Mulliken)
    omega =     0.9534
    <Phe> =    -0.1602
  
  Exciton analysis of the transition density matrix
    Trans. dipole moment [D]:             1.834188
      Cartesian components [D]:         [  1.334408,  -1.258362,  -0.011097]
    <r_h> [Ang]:                        [ -1.559323,  -0.065809,   0.001974]
    <r_e> [Ang]:                        [ -1.560388,  -0.064811,   0.002035]
    |<r_e - r_h>| [Ang]:                  0.001460
    Hole size [Ang]:                      1.214276
      Cartesian components [Ang]:       [  0.649934,   0.636356,   0.804426]
    Electron size [Ang]:                  1.486007
      Cartesian components [Ang]:       [  0.864546,   0.839397,   0.869591]
    RMS electron-hole separation [Ang]:   1.936058
      Cartesian components [Ang]:       [  1.106104,   1.074834,   1.170293]
    Covariance(r_h, r_e) [Ang^2]:        -0.032819
    Correlation coefficient:             -0.018188
    Center-of-mass size [Ang]:            0.950926
      Cartesian components [Ang]:       [  0.528262,   0.515705,   0.599373]

  Decomposition into state-averaged NTOs
    H- 0 -> L+ 0: -0.6698 ( 89.7%)
    H- 2 -> L+ 5:  0.0839 (  1.4%)
                   omega =  95.3%
  ----------------------------------------------------------------------------


  Excited state 2 (singlet, A)                                     [converged]
  ----------------------------------------------------------------------------
  Term symbol:  3 (1) A                                     R^2 =  5.02471e-13

  Total energy:                                            -77.9862923839 a.u.
  Excitation energy:                                               9.068383 eV

  Osc. strength:                                                      0.000626
  Trans. dip. moment [a.u.]:           [  -0.014065,    0.007845,    0.050567]
  <i|r^2|0> [a.u.]:                    [  -0.016173,    0.082877,   -0.148026]
  Two-photon absorption cross-section (SoS) [a.u.]:                   5.470035
  Two-photon absorption matrix (SoS) [a.u.]:
                                       |    0.051717    0.061546   -0.570846 |
                                       |    0.061546    0.072348   -0.585260 |
                                       |   -0.570846   -0.585260   -0.123433 |
  Two-photon absorption cross-section [a.u.]:                         0.064506
  Two-photon absorption matrix [a.u.]:
                                       |   -0.002495   -0.005663    0.084460 |
                                       |   -0.005663   -0.008137    0.028280 |
                                       |    0.084460    0.028280    0.011105 |

  Dip. moment [a.u.]:                  [  -0.105197,   -0.050228,   -0.008340]
  Total dipole [Debye]:                                               0.297056
  <r^2> [a.u.]:                        [ 174.013975,   34.191743,   13.119887]
  Total <r^2> [a.u.]:                                               221.325605

  V1^2 = 0.9543, V2^2 = 0.0457

  Important amplitudes:
      occ i     occ j     vir a      vir b          v   
    -----------------------------------------------------
     7 (A) A              9 (A) A                 0.6597
     8 (A) A             11 (A) A                 0.1544
     8 (A) A             10 (A) A                -0.1040
     7 (A) A             20 (A) A                 0.0749
     5 (A) A   8 (A) B    9 (A) A    9 (A) B      0.0311
     8 (A) A             16 (A) A                 0.0278
     8 (A) A             21 (A) A                -0.0185
     5 (A) A             28 (A) A                -0.0146
     4 (A) A   7 (A) B    9 (A) A   19 (A) B     -0.0134
     5 (A) A   7 (A) B    9 (A) A   16 (A) B      0.0131
     7 (A) A   8 (A) B   20 (A) A   17 (A) B     -0.0104
     7 (A) A   8 (A) A    9 (A) A   28 (A) A     -0.0095
     5 (A) A   8 (A) B    9 (A) A   20 (A) B      0.0094
     4 (A) A   6 (A) B    9 (A) A   16 (A) B      0.0090
     5 (A) A   6 (A) A    9 (A) A   23 (A) A     -0.0090
     5 (A) A   6 (A) A    9 (A) A   14 (A) A     -0.0087
     5 (A) A   6 (A) B    9 (A) A   19 (A) B     -0.0084
     4 (A) A   5 (A) A    9 (A) A   10 (A) A     -0.0084
     8 (A) A   7 (A) B    9 (A) A   28 (A) B      0.0083
     6 (A) A   7 (A) B    9 (A) A   18 (A) B      0.0082
     5 (A) A   6 (A) B    9 (A) A   23 (A) B     -0.0080
     3 (A) A   7 (A) B    9 (A) A   18 (A) B      0.0078
     5 (A) A   7 (A) A    9 (A) A   16 (A) A      0.0077
     4 (A) A   8 (A) B    9 (A) A   25 (A) B     -0.0076
     4 (A) A   7 (A) B   19 (A) A    9 (A) B     -0.0073
     7 (A) A   8 (A) B   17 (A) A   20 (A) B     -0.0073
     8 (A) A             24 (A) A                -0.0071
     7 (A) A   8 (A) B   19 (A) A   18 (A) B      0.0071
     5 (A) A   5 (A) B    9 (A) A   13 (A) B     -0.0071
     5 (A) A   8 (A) A    9 (A) A   20 (A) A      0.0068
     8 (A) A              9 (A) A                -0.0066
     4 (A) A   5 (A) B    9 (A) A   18 (A) B      0.0066
     7 (A) A   7 (A) B   20 (A) A   22 (A) B     -0.0064
     7 (A) A   8 (A) B   17 (A) A    9 (A) B     -0.0064
     5 (A) A   6 (A) B    9 (A) A   14 (A) B     -0.0061
     4 (A) A   7 (A) B    9 (A) A   14 (A) B      0.0061
     4 (A) A   7 (A) A    9 (A) A   19 (A) A     -0.0061
     4 (A) A   5 (A) B   10 (A) A    9 (A) B      0.0060
     5 (A) A   7 (A) B   11 (A) A   20 (A) B      0.0059
     5 (A) A             37 (A) A                 0.0059
    -----------------------------------------------------

  Density matrix analysis:
  ------------------------
  NOs
    Occupation of frontier NOs:
       0.9317   1.0791
    Number of electrons: 16.000000
    Number of unpaired electrons: n_u =  2.35588, n_u,nl =  2.08207
    NO participation ratio (PR_NO):  3.181477
  
  
  Mulliken Population Analysis
  Atom      Charge (e)              h+              e-           Del q
  --------------------------------------------------------------------
   1 H        0.130679        0.128445       -0.051383        0.077062
   2 C       -0.286485        0.268128       -0.451217       -0.183089
   3 H        0.151990        0.111432       -0.011572        0.099860
   4 C       -0.286282        0.276079       -0.460457       -0.184378
   5 H        0.126931        0.124291       -0.047105        0.077186
   6 H        0.163166        0.125242       -0.011883        0.113359
  --------------------------------------------------------------------
  Sum:        0.000000        1.033617       -1.033617        0.000000
  
  Multipole moment analysis of the density matrix
    Molecular charge:                      0.000000
    Number of electrons:                   16.000000
      Center of electronic charge [Ang]: [ -1.557097,  -0.061441,   0.002254]
    Total nuclear charge:                  16.000000
      Center of nuclear charge [Ang]:    [ -1.560576,  -0.063102,   0.001978]
    Dipole moment [D]:                     0.297056
      Cartesian components [D]:          [ -0.267384,  -0.127668,  -0.021199]
    RMS size of the density [Ang]:         1.202190
      Cartesian components [Ang]:        [  0.788038,   0.771130,   0.479183]
  
  Exciton analysis of the difference density matrix
    <r_h> [Ang]:                  [ -1.561514,  -0.037418,   0.003397]
    <r_e> [Ang]:                  [ -1.509942,  -0.009855,   0.007570]
    |<r_e - r_h>| [Ang]:            0.058624
    Hole size [Ang]:                1.485307
      Cartesian components [Ang]: [  1.017120,   0.974994,   0.470095]
    Electron size [Ang]:            1.501816
      Cartesian components [Ang]: [  0.906040,   0.875365,   0.817484]

  Transition density matrix analysis:
  -----------------------------------
  
  CT numbers (Mulliken)
    omega =     0.9218
    <Phe> =    -0.0119
  
  Exciton analysis of the transition density matrix
    Trans. dipole moment [D]:             0.067445
      Cartesian components [D]:         [ -0.017875,   0.009970,   0.064264]
    <r_h> [Ang]:                        [ -1.564944,  -0.036612,   0.003263]
    <r_e> [Ang]:                        [ -1.504374,  -0.008790,   0.007929]
    |<r_e - r_h>| [Ang]:                  0.066817
    Hole size [Ang]:                      1.506650
      Cartesian components [Ang]:       [  1.036852,   0.992066,   0.459062]
    Electron size [Ang]:                  1.500377
      Cartesian components [Ang]:       [  0.898605,   0.868118,   0.830669]
    RMS electron-hole separation [Ang]:   2.108705
      Cartesian components [Ang]:       [  1.357602,   1.305475,   0.948309]
    Covariance(r_h, r_e) [Ang^2]:         0.039476
    Correlation coefficient:              0.017463
    Center-of-mass size [Ang]:            1.072389
      Cartesian components [Ang]:       [  0.693846,   0.665612,   0.474929]

  Decomposition into state-averaged NTOs
    H- 1 -> L+ 0:  0.6522 ( 85.1%)
    H- 0 -> L+ 2: -0.1515 (  4.6%)
    H- 0 -> L+ 1: -0.1067 (  2.3%)
                   omega =  92.2%
  ----------------------------------------------------------------------------


  Excited state 3 (singlet, A)                                     [converged]
  ----------------------------------------------------------------------------
  Term symbol:  4 (1) A                                     R^2 =  6.11074e-13

  Total energy:                                            -77.9839378575 a.u.
  Excitation energy:                                               9.132453 eV

  Osc. strength:                                                      0.023494
  Trans. dip. moment [a.u.]:           [   0.011427,    0.022518,   -0.323059]
  <i|r^2|0> [a.u.]:                    [   0.083523,    0.010844,   -0.018872]
  Two-photon absorption cross-section (SoS) [a.u.]:                   0.027686
  Two-photon absorption matrix (SoS) [a.u.]:
                                       |    0.040979    0.000248    0.014933 |
                                       |    0.000248   -0.047028    0.035828 |
                                       |    0.014933    0.035828    0.003840 |
  Two-photon absorption cross-section [a.u.]:                         0.130740
  Two-photon absorption matrix [a.u.]:
                                       |    0.025043   -0.006448    0.059579 |
                                       |   -0.006448   -0.045272    0.106133 |
                                       |    0.059579    0.106133    0.017096 |

  Dip. moment [a.u.]:                  [  -0.078413,    0.016354,   -0.002394]
  Total dipole [Debye]:                                               0.203685
  <r^2> [a.u.]:                        [ 180.237102,   40.305896,   11.072762]
  Total <r^2> [a.u.]:                                               231.615761

  V1^2 = 0.9586, V2^2 = 0.0414

  Important amplitudes:
      occ i     occ j     vir a      vir b          v   
    -----------------------------------------------------
     8 (A) A             10 (A) A                 0.6809
     7 (A) A              9 (A) A                 0.1040
     8 (A) A             24 (A) A                 0.0500
     8 (A) A             18 (A) A                -0.0313
     4 (A) A              9 (A) A                -0.0241
     8 (A) A   8 (A) B    9 (A) A   12 (A) B     -0.0216
     8 (A) A             15 (A) A                 0.0181
     8 (A) A   8 (A) B   10 (A) A   17 (A) B      0.0170
     5 (A) A   8 (A) B   11 (A) A   10 (A) B     -0.0163
     7 (A) A   8 (A) B   13 (A) A   10 (A) B     -0.0139
     7 (A) A             20 (A) A                 0.0116
     4 (A) A   8 (A) B   12 (A) A   10 (A) B      0.0110
     7 (A) A   8 (A) B   22 (A) A   10 (A) B      0.0106
     6 (A) A   8 (A) A   10 (A) A   15 (A) A      0.0106
     4 (A) A   8 (A) A   10 (A) A   12 (A) A     -0.0105
     6 (A) A   8 (A) B   15 (A) A   10 (A) B     -0.0104
     8 (A) A             11 (A) A                 0.0101
     7 (A) A   8 (A) A   10 (A) A   22 (A) A     -0.0097
     7 (A) A   8 (A) A   10 (A) A   13 (A) A      0.0096
     5 (A) A   8 (A) B   21 (A) A   10 (A) B      0.0093
     5 (A) A   8 (A) A   10 (A) A   11 (A) A      0.0091
     6 (A) A   8 (A) A   10 (A) A   18 (A) A      0.0089
     6 (A) A   8 (A) B   10 (A) A   10 (A) B      0.0086
     7 (A) A   8 (A) A   12 (A) A   16 (A) A      0.0080
     8 (A) A             12 (A) A                 0.0079
     3 (A) A   4 (A) B   10 (A) A    9 (A) B      0.0079
     5 (A) A   8 (A) A   10 (A) A   21 (A) A     -0.0078
     4 (A) A   8 (A) B   19 (A) A   10 (A) B      0.0075
     8 (A) A   8 (A) B    9 (A) A   23 (A) B      0.0073
     3 (A) A   8 (A) B   10 (A) A   10 (A) B      0.0072
     5 (A) A   8 (A) B   10 (A) A   11 (A) B     -0.0071
     8 (A) A   8 (A) B   10 (A) A   28 (A) B      0.0071
     3 (A) A   8 (A) A   10 (A) A   24 (A) A     -0.0070
     7 (A) A   8 (A) B   16 (A) A   12 (A) B     -0.0069
     8 (A) A   8 (A) B    9 (A) A   19 (A) B     -0.0069
     6 (A) A   8 (A) B   18 (A) A   10 (A) B     -0.0068
     3 (A) A   8 (A) B   10 (A) A   18 (A) B     -0.0068
     3 (A) A   6 (A) B   10 (A) A   28 (A) B     -0.0061
     7 (A) A   8 (A) B   12 (A) A   11 (A) B     -0.0057
     6 (A) A             28 (A) A                 0.0056
    -----------------------------------------------------

  Density matrix analysis:
  ------------------------
  NOs
    Occupation of frontier NOs:
       0.9625   1.0037
    Number of electrons: 16.000000
    Number of unpaired electrons: n_u =  2.32461, n_u,nl =  2.03626
    NO participation ratio (PR_NO):  2.801099
  
  
  Mulliken Population Analysis
  Atom      Charge (e)              h+              e-           Del q
  --------------------------------------------------------------------
   1 H       -0.161351        0.053683       -0.268651       -0.214968
   2 C        0.304669        0.523259       -0.115194        0.408065
   3 H       -0.155090        0.056476       -0.263696       -0.207220
   4 C        0.302574        0.512678       -0.108200        0.404478
   5 H       -0.147923        0.054406       -0.252075       -0.197669
   6 H       -0.142878        0.057320       -0.250005       -0.192685
  --------------------------------------------------------------------
  Sum:        0.000000        1.257821       -1.257821       -0.000000
  
  Multipole moment analysis of the density matrix
    Molecular charge:                      0.000000
    Number of electrons:                   16.000000
      Center of electronic charge [Ang]: [ -1.557983,  -0.063643,   0.002057]
    Total nuclear charge:                  16.000000
      Center of nuclear charge [Ang]:    [ -1.560576,  -0.063102,   0.001978]
    Dipole moment [D]:                     0.203684
      Cartesian components [D]:          [ -0.199305,   0.041568,  -0.006085]
    RMS size of the density [Ang]:         1.273705
      Cartesian components [Ang]:        [  0.852737,   0.837481,   0.440215]
  
  Exciton analysis of the difference density matrix
    <r_h> [Ang]:                  [ -1.559256,  -0.069451,   0.001725]
    <r_e> [Ang]:                  [ -1.528145,  -0.074813,   0.002652]
    |<r_e - r_h>| [Ang]:            0.031584
    Hole size [Ang]:                1.417708
      Cartesian components [Ang]: [  0.840840,   0.825983,   0.787804]
    Electron size [Ang]:            2.074944
      Cartesian components [Ang]: [  1.372154,   1.374812,   0.729712]

  Transition density matrix analysis:
  -----------------------------------
  
  CT numbers (Mulliken)
    omega =     0.9257
    <Phe> =    -0.0112
  
  Exciton analysis of the transition density matrix
    Trans. dipole moment [D]:             0.411820
      Cartesian components [D]:         [  0.014522,   0.028617,  -0.410567]
    <r_h> [Ang]:                        [ -1.564471,  -0.070874,   0.001453]
    <r_e> [Ang]:                        [ -1.519362,  -0.079245,   0.002748]
    |<r_e - r_h>| [Ang]:                  0.045897
    Hole size [Ang]:                      1.221038
      Cartesian components [Ang]:       [  0.648275,   0.636218,   0.816027]
    Electron size [Ang]:                  2.270786
      Cartesian components [Ang]:       [  1.500212,   1.504982,   0.800540]
    RMS electron-hole separation [Ang]:   2.568481
      Cartesian components [Ang]:       [  1.627105,   1.626809,   1.141541]
    Covariance(r_h, r_e) [Ang^2]:         0.026207
    Correlation coefficient:              0.009452
    Center-of-mass size [Ang]:            1.294200
      Cartesian components [Ang]:       [  0.821029,   0.820526,   0.572366]

  Decomposition into state-averaged NTOs
    H- 0 -> L+ 1:  0.6712 ( 90.1%)
    H- 1 -> L+ 0:  0.1028 (  2.1%)
                   omega =  92.6%
  ----------------------------------------------------------------------------


  Excited state 4 (singlet, A)                                     [converged]
  ----------------------------------------------------------------------------
  Term symbol:  5 (1) A                                     R^2 =  2.90132e-13

  Total energy:                                            -77.9587216550 a.u.
  Excitation energy:                                               9.818621 eV

  Osc. strength:                                                      0.000078
  Trans. dip. moment [a.u.]:           [  -0.005643,    0.003511,    0.016777]
  <i|r^2|0> [a.u.]:                    [  -0.048628,   -0.019644,    0.035763]
  Two-photon absorption cross-section (SoS) [a.u.]:                 146.491340
  Two-photon absorption matrix (SoS) [a.u.]:
                                       |   -0.288310   -0.317957    2.925171 |
                                       |   -0.317957   -0.350810    3.057217 |
                                       |    2.925171    3.057217    0.638780 |
  Two-photon absorption cross-section [a.u.]:                        91.176501
  Two-photon absorption matrix [a.u.]:
                                       |   -0.235809   -0.251661    2.330318 |
                                       |   -0.251661   -0.267692    2.390185 |
                                       |    2.330318    2.390185    0.503450 |

  Dip. moment [a.u.]:                  [   0.094981,    0.143840,    0.013294]
  Total dipole [Debye]:                                               0.439422
  <r^2> [a.u.]:                        [ 181.846844,   40.504064,   10.792842]
  Total <r^2> [a.u.]:                                               233.143751

  V1^2 = 0.9634, V2^2 = 0.0366

  Important amplitudes:
      occ i     occ j     vir a      vir b          v   
    -----------------------------------------------------
     8 (A) A             11 (A) A                -0.6684
     7 (A) A              9 (A) A                 0.1560
     8 (A) A             21 (A) A                 0.0776
     8 (A) A             16 (A) A                -0.0637
     8 (A) A   8 (A) B    9 (A) A   13 (A) B      0.0166
     5 (A) A   8 (A) B   11 (A) A   11 (A) B      0.0156
     7 (A) A             20 (A) A                 0.0144
     8 (A) A   8 (A) B   11 (A) A   17 (A) B     -0.0140
     8 (A) A             10 (A) A                -0.0139
     7 (A) A   8 (A) B   13 (A) A   11 (A) B      0.0127
     4 (A) A   8 (A) B   12 (A) A   11 (A) B     -0.0111
     5 (A) A   8 (A) A   11 (A) A   21 (A) A      0.0110
     8 (A) A   8 (A) B    9 (A) A   22 (A) B     -0.0107
     7 (A) A   8 (A) A   11 (A) A   22 (A) A      0.0097
     6 (A) A   8 (A) B   10 (A) A   11 (A) B     -0.0090
     6 (A) A   8 (A) B   15 (A) A   11 (A) B      0.0089
     7 (A) A   8 (A) B   22 (A) A   11 (A) B     -0.0089
     3 (A) A   4 (A) B   11 (A) A    9 (A) B     -0.0083
     3 (A) A   8 (A) B   11 (A) A   18 (A) B      0.0081
     6 (A) A   8 (A) A   11 (A) A   15 (A) A     -0.0079
     7 (A) A   8 (A) A   13 (A) A   16 (A) A     -0.0078
     7 (A) A   8 (A) A   11 (A) A   13 (A) A     -0.0077
     5 (A) A   8 (A) B   21 (A) A   11 (A) B     -0.0071
     4 (A) A   8 (A) B   19 (A) A   11 (A) B     -0.0070
     5 (A) A   8 (A) B    9 (A) A    9 (A) B      0.0070
     6 (A) A   8 (A) A   11 (A) A   18 (A) A     -0.0064
     4 (A) A   8 (A) A   11 (A) A   12 (A) A      0.0063
     6 (A) A   8 (A) B   18 (A) A   11 (A) B      0.0062
     3 (A) A   6 (A) B   11 (A) A   28 (A) B      0.0060
     7 (A) A   8 (A) B   16 (A) A   13 (A) B      0.0057
     5 (A) A   8 (A) B   10 (A) A   10 (A) B      0.0057
     3 (A) A   8 (A) A   11 (A) A   18 (A) A      0.0056
     3 (A) A   8 (A) B   11 (A) A   30 (A) B      0.0055
     3 (A) A   5 (A) B   11 (A) A   25 (A) B      0.0054
     6 (A) A   8 (A) B   11 (A) A   10 (A) B     -0.0054
     7 (A) A   8 (A) B   12 (A) A   10 (A) B      0.0054
     8 (A) A   8 (A) B   20 (A) A   22 (A) B     -0.0053
     3 (A) A   8 (A) A   11 (A) A   24 (A) A      0.0053
     5 (A) A   8 (A) A   11 (A) A   16 (A) A     -0.0049
     6 (A) A   8 (A) A   10 (A) A   16 (A) A      0.0048
    -----------------------------------------------------

  Density matrix analysis:
  ------------------------
  NOs
    Occupation of frontier NOs:
       0.9372   1.0313
    Number of electrons: 16.000000
    Number of unpaired electrons: n_u =  2.32018, n_u,nl =  2.05175
    NO participation ratio (PR_NO):  2.936889
  
  
  Mulliken Population Analysis
  Atom      Charge (e)              h+              e-           Del q
  --------------------------------------------------------------------
   1 H       -0.121767        0.047019       -0.222402       -0.175383
   2 C        0.273918        0.496412       -0.119098        0.377314
   3 H       -0.156107        0.046697       -0.254934       -0.208237
   4 C        0.270245        0.493759       -0.121610        0.372149
   5 H       -0.104846        0.046805       -0.201397       -0.154592
   6 H       -0.161443        0.047830       -0.259080       -0.211250
  --------------------------------------------------------------------
  Sum:        0.000000        1.178522       -1.178522        0.000000
  
  Multipole moment analysis of the density matrix
    Molecular charge:                      0.000000
    Number of electrons:                   16.000000
      Center of electronic charge [Ang]: [ -1.563718,  -0.067860,   0.001539]
    Total nuclear charge:                  16.000000
      Center of nuclear charge [Ang]:    [ -1.560576,  -0.063102,   0.001978]
    Dipole moment [D]:                     0.439422
      Cartesian components [D]:          [  0.241418,   0.365605,   0.033789]
    RMS size of the density [Ang]:         1.276954
      Cartesian components [Ang]:        [  0.858738,   0.839219,   0.434617]
  
  Exciton analysis of the difference density matrix
    <r_h> [Ang]:                  [ -1.563091,  -0.068114,   0.001632]
    <r_e> [Ang]:                  [ -1.607743,  -0.131080,  -0.004423]
    |<r_e - r_h>| [Ang]:            0.077429
    Hole size [Ang]:                1.396590
      Cartesian components [Ang]: [  0.823167,   0.805422,   0.790035]
    Electron size [Ang]:            2.123123
      Cartesian components [Ang]: [  1.439063,   1.404709,   0.680840]

  Transition density matrix analysis:
  -----------------------------------
  
  CT numbers (Mulliken)
    omega =     0.9296
    <Phe> =    -0.0135
  
  Exciton analysis of the transition density matrix
    Trans. dipole moment [D]:             0.022934
      Cartesian components [D]:         [ -0.007171,   0.004462,   0.021322]
    <r_h> [Ang]:                        [ -1.560413,  -0.064003,   0.002040]
    <r_e> [Ang]:                        [ -1.617025,  -0.143449,  -0.005625]
    |<r_e - r_h>| [Ang]:                  0.097854
    Hole size [Ang]:                      1.229269
      Cartesian components [Ang]:       [  0.664029,   0.647746,   0.806594]
    Electron size [Ang]:                  2.259624
      Cartesian components [Ang]:       [  1.532168,   1.495172,   0.723063]
    RMS electron-hole separation [Ang]:   2.563557
      Cartesian components [Ang]:       [  1.662259,   1.623646,   1.082816]
    Covariance(r_h, r_e) [Ang^2]:         0.027377
    Correlation coefficient:              0.009856
    Center-of-mass size [Ang]:            1.291487
      Cartesian components [Ang]:       [  0.839203,   0.818583,   0.541848]

  Decomposition into state-averaged NTOs
    H- 0 -> L+ 2:  0.6634 ( 88.0%)
    H- 1 -> L+ 0:  0.1540 (  4.7%)
                   omega =  93.0%
  ----------------------------------------------------------------------------


  Excited state 5 (singlet, A)                                     [converged]
  ----------------------------------------------------------------------------
  Term symbol:  6 (1) A                                     R^2 =  5.07618e-13

  Total energy:                                            -77.9453876079 a.u.
  Excitation energy:                                              10.181459 eV

  Osc. strength:                                                      0.000000
  Trans. dip. moment [a.u.]:           [  -0.000574,   -0.000537,    0.000385]
  <i|r^2|0> [a.u.]:                    [  -0.090743,    0.107686,   -0.021126]
  Two-photon absorption cross-section (SoS) [a.u.]:                 135.088611
  Two-photon absorption matrix (SoS) [a.u.]:
                                       |   -0.284112   -0.035007    2.932446 |
[...]
    16   -1.343820763976e-03
    17   -1.781699052011e-03
    18    8.320821004742e-04
    19   -3.811382570260e-03
    20    1.258706401977e-02
    21    9.122886539626e-01
    22   -1.140547573971e-03
    23    1.392047251867e-02
    24    7.805584499264e-04
    25    6.948563333093e-02
    26   -5.191817065188e-02
    27   -1.373615137173e+00
    28    9.376036685690e-02
    29   -9.572493984893e-02
    30   -1.652578365002e-03
    31    3.715561936066e-01
    32   -3.782404428643e-01
    33   -6.434678819092e-03
    34    1.533494212745e-02
    35   -1.408071939558e-03
    36   -1.769428803162e-03
    37   -2.515191600934e-05
    38   -2.726052792550e-03
    39    1.168517024770e-02
    40    9.496588911744e-01
    41    2.244097962416e-04
    42   -1.407073468096e-02
    43   -8.542229549344e-04
    44    7.977816038475e-03
    45    9.004032254654e-01
    46    1.351566739295e-02
    47    1.643147743941e-04
    48    6.364507028309e-04
Sym=X
Ene= 0.232124
Spin=Alpha
Occup=0
     1   -2.602558210344e-02
     2   -1.198277916244e+00
     3    1.370764002691e-02
     4    3.679876109747e-03
     5    8.268184171004e-04
     6   -8.686145635003e-05
     7    3.205720076745e-06
     8   -1.300221192683e-02
     9    1.513745421216e-01
    10    1.633729076662e-01
    11    1.631994514250e-02
    12    5.411499936109e-01
    13    6.010489509708e-01
    14    5.912525768769e-02
    15   -9.707820861620e-05
    16   -3.508838217377e-05
    17   -1.761472818659e-05
    18    1.728591185745e-04
    19    3.261977873166e-05
    20    2.363949877422e-02
    21    1.216038172129e+00
    22    2.948249856213e-03
    23    1.417165883163e-02
    24    9.601948647162e-04
    25    3.306662240884e-03
    26   -2.441636596478e-03
    27   -7.542549959532e-02
    28    1.555896543892e-01
    29    1.549085922696e-01
    30    1.685030446773e-02
    31    5.425865058627e-01
    32    5.413457346262e-01
    33    5.908217524505e-02
    34    8.879476156522e-04
    35   -1.338546176216e-04
    36   -1.009710499763e-05
    37   -9.235557103378e-04
    38   -4.430435938347e-04
    39   -2.469319945516e-02
    40   -1.126374194176e+00
    41    2.509790164812e-03
    42    1.323218441461e-02
    43    9.314349882175e-04
    44    2.560722699455e-02
    45    1.220065712313e+00
    46    1.463007561697e-02
    47    3.660270808902e-03
    48    9.162283770733e-04
Sym=X
Ene= 0.239884
Spin=Alpha
Occup=0
     1    1.771857662510e-02
     2    1.030034246378e+00
     3   -1.582644678647e-02
     4   -8.852385765452e-03
     5   -1.239423046469e-03
     6    8.655730498002e-02
     7   -8.049562481905e-02
     8   -1.583260415029e+00
     9   -5.470460697790e-02
    10    5.768436542428e-02
    11    1.091496716511e-03
    12   -1.912596945398e-01
    13    2.230383315775e-01
    14    5.063332775724e-03
    15    2.207269721308e-02
    16   -2.476743021530e-03
    17   -2.998577188169e-03
    18    1.832602881550e-03
    19   -1.324954327819e-02
    20    1.898813904451e-02
    21    1.120890719043e+00
    22    7.628386875380e-03
    23    1.800587079973e-02
    24    1.433529448061e-03
    25   -8.700154250346e-02
    26    7.886219296410e-02
    27    1.623410585343e+00
    28   -5.804208424687e-02
    29    5.920689994533e-02
    30    8.762864310372e-04
    31   -2.305625872557e-01
    32    2.176400260179e-01
    33    2.326227747859e-03
    34   -2.289597611576e-02
    35    2.660408940218e-03
    36    3.007818099580e-03
    37   -2.129764967889e-04
    38    1.320035179252e-02
    39   -1.584325971509e-02
    40   -1.108815039123e+00
    41    8.674367113432e-03
    42    1.761466793744e-02
    43    1.463204599177e-03
    44   -1.630551804915e-02
    45   -1.090770437840e+00
    46   -1.718958090916e-02
    47   -9.319792713662e-03
    48   -1.355434640159e-03
Sym=X
Ene= 0.303053
Spin=Alpha
Occup=0
     1    1.934937134757e-02
     2   -1.671755270691e+00
     3    2.278529879970e-02
     4    6.418270217490e-04
     5    1.085229931326e-03
     6   -1.078601282001e-03
     7   -1.441948120774e-04
     8    2.307256862736e-02
     9    1.310923066947e-01
    10    1.384818370113e-01
    11    1.408387284979e-02
    12    1.118162036927e+00
    13    1.218866342502e+00
    14    1.235828444091e-01
    15   -4.139391421304e-04
    16    1.573824086093e-03
    17   -1.774914611841e-03
    18    3.164294569525e-02
    19    1.891107400224e-03
    20   -2.264906760186e-02
    21    1.670985879013e+00
    22   -7.982941638663e-04
    23    2.216883522514e-02
    24    1.256989717572e-03
    25    1.108067159488e-03
    26    3.034930415210e-04
    27   -4.735749687231e-02
    28   -1.344737434493e-01
    29   -1.435844324353e-01
    30   -1.503089167368e-02
    31   -1.154097979612e+00
    32   -1.192864462737e+00
    33   -1.253811747500e-01
    34    7.543483686677e-04
    35    1.472941341234e-03
    36   -1.902711305876e-03
    37    3.134449303221e-02
    38    1.208512341759e-03
    39   -1.928744998426e-02
    40    1.723050066690e+00
    41    1.315381405735e-03
    42   -2.312640459579e-02
    43   -1.317328003787e-03
    44    1.898110338431e-02
    45   -1.695675280275e+00
    46   -2.239333649033e-02
    47    5.122000468245e-04
    48   -1.040781226389e-03
Sym=X
Ene= 0.459618
Spin=Alpha
Occup=0
     1   -1.406098152514e-01
     2   -6.534779794187e-01
     3   -1.650769757862e-02
     4   -9.672563546775e-03
     5   -1.324468020041e-03
     6    5.954786142232e-02
     7    2.159838677503e-02
     8   -3.567756610373e+00
     9    1.015368466281e-01
    10   -9.295124718058e-02
    11   -1.105875466930e-03
    12    2.402284311658e+00
    13   -2.281402334144e+00
    14   -2.180073812307e-02
    15    5.670331697731e-02
    16   -3.663736066125e-03
    17   -5.003063139925e-03
    18   -7.708526636249e-04
    19    1.523569360443e-02
    20   -1.296146874184e-01
    21   -6.960190321246e-01
    22    1.021555583252e-02
    23    1.709157855260e-02
    24    1.452319858354e-03
    25   -6.004940751193e-02
    26   -1.614067067753e-02
    27    3.553934453473e+00
    28    1.082434301884e-01
    29   -1.040615520211e-01
    30   -1.338630255980e-03
    31    2.384048946296e+00
    32   -2.263646808762e+00
    33   -2.114663063568e-02
    34   -5.146862001110e-02
    35    3.130425997077e-03
    36    4.318567079644e-03
    37    1.997022805121e-03
    38   -2.038211981257e-02
    39    1.057626033318e-01
    40    7.085836301378e-01
    41    7.967031067171e-03
    42    1.577403750049e-02
    43    1.329409185039e-03
    44    1.064088026751e-01
    45    7.087080329129e-01
    46   -1.590409105756e-02
    47   -9.082577820876e-03
    48   -1.308914031634e-03
Sym=X
Ene= 0.575691
Spin=Alpha
Occup=0
     1    2.745373410855e-01
     2   -3.738745972513e-02
     3   -1.524310731313e-02
     4    2.431165213301e-02
     5    7.418601888854e-04
     6   -1.503212867652e-03
     7   -1.486983339852e-01
     8   -5.727442824511e-01
     9    3.048680183502e-01
    10   -2.813997847582e-01
    11   -2.295995575161e-03
    12   -6.369771562764e-01
    13    5.934327703796e-01
    14    5.867624448406e-03
    15   -9.479081255801e-03
    16    4.411165952650e-03
    17    3.900072575850e-03
    18   -5.670259340549e-04
    19    6.175947300276e-02
    20    2.509662260776e-01
    21    1.117224702120e-03
    22   -2.624834786922e-02
    23    1.535094519662e-02
    24   -2.944097348681e-04
    25   -7.319425849638e-03
    26   -1.519266402818e-01
    27   -2.882303323985e-01
    28   -2.898783483231e-01
    29    2.758735275199e-01
    30    2.597134214937e-03
    31    8.413980284059e-01
    32   -8.047143566893e-01
    33   -8.578055965047e-03
    34   -9.408469392246e-03
    35    4.225123126472e-03
    36    4.061004057785e-03
    37   -3.619523408146e-03
    38    6.086888189966e-02
    39    2.648391071013e-01
    40    7.515638535816e-02
    41    2.663601030597e-02
    42   -1.475150235328e-02
    43    3.669405647941e-04
    44    2.494256182347e-01
    45    8.093961192189e-02
    46    1.773305580248e-02
    47   -2.794771993218e-02
    48   -8.433933343171e-04
Sym=X
Ene= 0.619251
Spin=Alpha
Occup=0
     1   -4.966228147805e-01
     2    2.167393169057e-01
     3   -6.215098593753e-02
     4    4.175520612781e-02
     5   -4.231960697613e-04
     6    1.232617046661e-03
     7    6.645261443813e-03
     8   -2.167285723592e-02
     9   -2.841881021142e-02
    10   -3.875166986669e-02
    11   -3.741927309180e-03
    12    2.266799494193e-01
    13    3.137110610257e-01
    14    2.817458362726e-02
    15   -2.027084569106e-03
    16   -7.163104515095e-03
    17    8.672081410512e-03
    18   -1.482975181692e-01
    19   -9.168169643064e-03
    20    5.236670968191e-01
    21   -1.899913527623e-01
    22    4.173118118950e-02
    23   -6.033563482448e-02
    24   -1.683734993839e-03
    25    1.945855090982e-04
    26    3.854010233079e-03
    27   -4.099349610886e-02
    28   -3.927068929489e-02
    29   -3.970367468177e-02
    30   -4.069785895909e-03
    31    3.028994923206e-01
    32    3.171974955449e-01
    33    3.392691062553e-02
    34   -7.606514543404e-04
    35    7.774437530826e-03
    36   -8.623776930478e-03
    37    1.533457010165e-01
    38    9.769415471597e-03
    39   -5.172784741787e-01
    40    2.033732550024e-01
    41    4.212294425896e-02
    42   -6.051365071597e-02
    43   -1.601713475759e-03
    44    5.329469918511e-01
    45   -2.076206334210e-01
    46   -6.229378911992e-02
    47    3.645320555190e-02
    48   -7.130025251153e-04
Sym=X
Ene= 0.689143
Spin=Alpha
Occup=0
     1    3.601404305344e-04
     2    1.039328732008e-03
     3    7.983091069156e-04
     4    1.105141475714e-03
     5   -1.901718959308e-02
     6    3.878809091282e-05
     7   -2.650977147537e-04
     8    5.470199650176e-04
     9    3.082661776402e-02
    10    3.937693675408e-02
    11   -6.712697686157e-01
    12   -2.922644545340e-02
    13   -3.466445094674e-02
    14    6.139863457097e-01
    15   -1.302051023220e-03
    16    8.218581612696e-02
    17   -7.806329482022e-02
    18   -8.614513101184e-03
    19   -1.076606984612e-03
    20    5.484520612841e-04
    21    2.637204851439e-04
    22    8.506665410638e-04
    23    1.250343058175e-03
    24   -2.093815414687e-02
    25   -1.914228048365e-05
    26    1.993427320560e-04
    27   -5.924154830996e-04
    28    3.172550183510e-02
    29    4.006801320465e-02
    30   -6.696429816292e-01
    31   -3.041013718456e-02
    32   -3.566569497400e-02
    33    6.124906210871e-01
    34    1.264515801163e-03
    35   -8.295206012722e-02
    36    7.864577362711e-02
    37    8.388230561743e-03
    38    1.085725657889e-03
    39   -2.753976486105e-04
    40   -1.038011086022e-03
    41    1.006080849172e-03
    42    1.328818726951e-03
    43   -2.107032402297e-02
    44   -4.422911143105e-04
    45   -1.951830837391e-04
    46    9.878465515904e-04
    47    1.368147656867e-03
    48   -2.103589113054e-02
Sym=X
Ene= 0.706139
Spin=Alpha
Occup=0
     1   -4.945757197308e-01
     2    2.177155327483e-01
     3   -8.214945857850e-02
     4   -4.524109801000e-02
     5   -6.503063036109e-03
     6   -5.049243032894e-02
     7   -3.126186268263e-01
     8    5.758989865040e-01
     9    2.156099629492e-01
    10   -1.946838210189e-01
    11   -1.485020586905e-03
    12   -1.958755442527e-01
    13    1.771946743877e-01
    14    3.485215688639e-04
    15    1.952025246353e-01
    16   -2.043624389341e-02
    17   -2.395315530418e-02
    18    2.633802162950e-03
    19   -8.167798134564e-02
    20   -4.726130727228e-01
    21    1.872679284136e-01
    22    3.955195973994e-02
    23    8.343421717191e-02
    24    6.673566128854e-03
    25   -4.364433544908e-02
    26   -3.243806947277e-01
    27    3.299246009454e-01
    28   -2.097060489105e-01
    29    2.028104759213e-01
    30    2.090912874769e-03
    31    1.286268558766e-02
    32   -1.109357848732e-02
    33    9.030612548608e-04
    34    1.900851121249e-01
    35   -1.958773395180e-02
    36   -2.342195177443e-02
    37    6.492911237494e-03
    38   -7.072574971111e-02
    39   -4.602341725669e-01
    40    1.198576192535e-01
    41   -3.845310911768e-02
    42   -8.135820554414e-02
    43   -6.626472224122e-03
    44   -4.485327763135e-01
    45    1.102891997399e-01
    46    7.671003172781e-02
    47    4.267058182086e-02
    48    6.219737905231e-03
Sym=X
Ene= 0.783896
Spin=Alpha
Occup=0
     1    5.214044419974e-01
     2   -5.212843647528e-01
     3    1.101041093543e-01
     4    2.729130398667e-02
     5    6.655038916743e-03
     6    8.950113831698e-02
     7   -2.317137449314e-01
     8   -6.610579228955e-01
     9    1.029218033578e-01
    10   -1.080236604047e-01
    11   -1.615772708258e-03
    12    3.977913103500e-01
    13   -3.515023140511e-01
    14   -1.609293310851e-03
    15   -1.991094814086e-01
    16    1.666280157334e-02
    17    2.110442406303e-02
    18   -5.270911036370e-04
    19    1.547939141004e-02
    20    5.121539376458e-01
    21   -4.868601635172e-01
    22   -1.765088491121e-02
    23   -1.102269424339e-01
    24   -7.260418298369e-03
    25   -9.293095677858e-02
    26    2.009024666185e-01
    27    7.606942592328e-01
    28    1.010003533883e-01
    29   -1.068500698105e-01
    30   -1.010200699791e-03
    31    3.607441711003e-01
    32   -3.243191142174e-01
    33   -2.838053942888e-03
    34    2.110041077117e-01
    35   -1.853030311652e-02
    36   -2.257089291755e-02
    37   -4.382438815179e-03
    38   -1.514775305953e-02
    39   -5.478013747164e-01
    40    4.720934838763e-01
    41   -2.296531043787e-02
    42   -1.109477728731e-01
    43   -7.711776135746e-03
    44   -5.537310917178e-01
    45    4.974646023129e-01
    46    1.148426898765e-01
    47    2.837848921690e-02
    48    7.159778204418e-03
Sym=X
Ene= 0.808020
Spin=Alpha
Occup=0
     1   -1.713294291001e-04
     2   -6.805645427284e-04
     3    1.504634440667e-03
     4    2.117082550899e-03
     5   -3.389034004666e-02
     6   -2.273610775558e-05
     7   -2.865385850985e-04
     8    2.513515555540e-04
     9    3.488587835996e-02
    10    4.442359600405e-02
    11   -7.626949839746e-01
    12   -5.178441269332e-02
    13   -6.519071293163e-02
    14    1.126619093088e+00
    15    1.160357448193e-03
    16   -6.539364127725e-02
    17    6.201124069434e-02
    18    7.009693110984e-03
    19    9.313838323648e-04
    20   -2.340834381580e-04
    21    1.432632076080e-03
    22    1.640947246126e-03
    23    2.301980410240e-03
    24   -3.431341874730e-02
    25    5.566567844159e-05
    26   -4.703896653146e-04
    27    1.079203927273e-04
    28   -3.662293417719e-02
    29   -4.578441516811e-02
    30    7.637992980022e-01
    31    5.404251897964e-02
    32    6.790873121472e-02
    33   -1.127327782628e+00
    34    9.096549699505e-04
    35   -6.532261691572e-02
    36    6.189206127756e-02
    37    6.435093427194e-03
    38    8.641465033895e-04
    39    2.127530757962e-04
    40   -1.240795156411e-03
    41   -1.511621258469e-03
    42   -1.942502517150e-03
    43    3.429910710910e-02
    44    2.011707490500e-04
    45    9.509450809713e-04
    46   -1.456161361302e-03
    47   -1.939684770040e-03
    48    3.380144401100e-02
Sym=X
Ene= 0.861954
Spin=Alpha
Occup=0
     1    1.126825635146e-02
     2   -1.103215903347e+00
     3    1.463923958867e-01
     4    6.462811862341e-02
     5    1.045901468925e-02
     6   -2.105331051819e-03
     7   -8.404500477780e-03
     8    1.005109326959e-03
     9   -4.161681590922e-01
    10   -4.319504041817e-01
    11   -4.378801540182e-02
    12    9.526026966408e-01
    13    1.012865627195e+00
    14    1.016939441703e-01
    15    6.610121462538e-03
    16    1.111077315710e-02
    17   -1.350255918965e-02
    18    2.289540960793e-01
    19    1.808588042104e-02
    20   -2.410987814823e-02
    21    1.105370652543e+00
    22    5.234971627492e-02
    23    1.525107267531e-01
    24    1.148069837843e-02
    25    9.621107179333e-04
    26   -1.234882451686e-02
    27    1.051469063897e-02
    28   -4.101830437870e-01
    29   -4.203003069366e-01
    30   -4.524932398380e-02
    31    9.624240878036e-01
    32    9.889328106689e-01
    33    1.062367615002e-01
    34   -1.545087683769e-03
    35   -1.151615568525e-02
    36    1.349806031005e-02
    37   -2.341479539853e-01
    38   -1.359702505672e-02
    39    5.066941619770e-03
    40   -1.087050524292e+00
    41    4.945111966012e-02
    42    1.510535155014e-01
    43    1.143154636389e-02
    44    3.039080807446e-03
    45    1.085157908941e+00
    46    1.455199303411e-01
    47    5.650029832329e-02
    48    1.015048764109e-02
Sym=X
Ene= 0.934967
Spin=Alpha
Occup=0
     1    1.161511412287e-01
     2   -1.312601726309e+00
     3    1.846638508228e-01
     4    7.584991159765e-03
     5    8.993271487694e-03
     6   -1.776886595574e-03
     7   -3.110676048074e-02
     8    1.043390679999e-02
     9   -4.906644784680e-01
    10   -4.773736991157e-01
    11   -5.077297133114e-02
    12    1.516472669433e+00
    13    1.493290640996e+00
    14    1.580774165989e-01
    15    3.413072034748e-03
    16    6.106217418583e-03
    17   -5.496207345706e-03
    18    1.095317222752e-01
    19    2.434173683738e-02
    20   -1.085648060575e-01
    21    1.220467769830e+00
    22   -1.589216936914e-02
    23    1.730710675549e-01
    24    9.318454597534e-03
    25    8.819957919013e-04
    26   -1.160465964257e-02
    27    4.976127516051e-02
    28    4.601057340380e-01
    29    5.171138457406e-01
    30    5.254683855085e-02
    31   -1.421769527107e+00
    32   -1.598982499313e+00
    33   -1.622744971614e-01
    34   -9.546260395602e-04
    35    5.727592442894e-03
    36   -7.412645565652e-03
    37    1.213411387362e-01
    38   -5.244487124990e-03
    39   -1.199007228314e-01
    40    1.325445190106e+00
    41    1.060088635951e-02
    42   -1.838814106857e-01
    43   -1.042087938566e-02
    44    1.150342236486e-01
    45   -1.272383218148e+00
    46   -1.811720093444e-01
    47    7.453171556988e-03
    48   -8.236809645975e-03
Sym=X
Ene= 0.970882
Spin=Alpha
Occup=0
     1   -6.048282661437e-02
     2    8.481219136547e-01
     3   -7.838497818001e-02
     4   -1.019369882162e-01
     5   -9.498462873441e-03
     6    2.672017759634e-02
     7    2.921952683293e-01
     8    4.595512525422e-01
     9    4.653666253727e-01
    10   -4.827578338999e-01
    11   -6.997955452272e-03
    12   -1.398692975442e+00
    13    1.503559228718e+00
    14    2.391638109361e-02
    15   -6.178587405909e-02
    16   -1.189932384112e-02
    17   -1.003099460956e-02
    18    2.716878937616e-02
    19   -3.100607742004e-01
    20   -5.735031272686e-02
    21    1.009434980937e+00
    22    9.508806828486e-02
    23    1.052996226380e-01
    24    1.077645635888e-02
    25   -2.540838429723e-02
    26   -1.793107499912e-01
    27   -6.460201928548e-01
    28    4.915508643024e-01
    29   -4.310285210829e-01
    30   -2.485737325922e-03
    31   -1.544253483282e+00
    32    1.313609770574e+00
    33    5.222154343004e-03
    34    5.488793042056e-02
    35    1.222891113252e-02
    36    9.214480913522e-03
    37   -1.354143041098e-02
    38    2.949026198239e-01
    39    6.492370224068e-02
    40   -8.163087042840e-01
    41    9.177955754765e-02
    42    7.931654266276e-02
    43    9.103345174149e-03
    44    5.593270910242e-02
    45   -9.232591769387e-01
    46   -8.710120356931e-02
    47   -9.501347590898e-02
    48   -9.644379903479e-03
[5D]

======= END OF MOLDEN-FORMATTED INPUT FILE =======


        *************************************************************
        *                                                           *
        *  Thank you very much for using Q-Chem.  Have a nice day.  *
        *                                                           *
        *************************************************************


