                  Welcome to Q-Chem
     A Quantum Leap Into The Future Of Chemistry


 Q-Chem 5.4 (devel), Q-Chem, Inc., Pleasanton, CA (2021)

 E. Epifanovsky,  A. T. B. Gilbert,  Xintian Feng,  Joonho Lee,  Yuezhi Mao,  
 N. Mardirossian,  P. Pokhilko,  A. White,  M. Wormit,  M. P. Coons,  
 A. L. Dempwolff,  Zhengting Gan,  D. Hait,  P. R. Horn,  L. D. Jacobson,  
 I. Kaliman,  J. Kussmann,  A. W. Lange,  Ka Un Lao,  D. S. Levine,  Jie Liu,  
 S. C. McKenzie,  A. F. Morrison,  K. Nanda,  F. Plasser,  D. R. Rehn,  
 M. L. Vidal,  Zhi-Qiang You,  Ying Zhu,  B. Alam,  B. Albrecht,  
 A. Aldossary,  E. Alguire,  J. H. Andersen,  D. Barton,  K. Begam,  A. Behn,  
 Y. A. Bernard,  E. J. Berquist,  H. Burton,  A. Carreras,  K. Carter-Fenk,  
 R. Chakraborty,  A. D. Chien,  K. D. Closser,  V. Cofer-Shabica,  
 S. Dasgupta,  Jia Deng,  M. de Wergifosse,  M. Diedenhofen,  Hainam Do,  
 S. Ehlert,  Po-Tung Fang,  S. Fatehi,  Qingguo Feng,  T. Friedhoff,  
 J. Gayvert,  Qinghui Ge,  G. Gidofalvi,  M. Goldey,  J. Gomes,  
 C. Gonzalez-Espinoza,  S. Gulania,  A. Gunina,  M. W. D. Hanson-Heine,  
 P. H. P. Harbach,  A. W. Hauser,  M. F. Herbst,  M. Hernandez Vera,  
 M. Hodecker,  Z. C. Holden,  S. Houck,  Xunkun Huang,  Kerwin Hui,  
 B. C. Huynh,  M. Ivanov,  Hyunjun Ji,  Hanjie Jiang,  B. Kaduk,  S. Kaehler,  
 K. Khistyaev,  Jaehoon Kim,  P. Klunzinger,  Z. Koczor-Benda,  
 Joong Hoon Koh,  D. Kosenkov,  L. Koulias,  T. Kowalczyk,  C. M. Krauter,  
 K. Kue,  A. Kunitsa,  T. Kus,  A. Landau,  K. V. Lawler,  D. Lefrancois,  
 S. Lehtola,  Rain Li,  Yi-Pei Li,  Jiashu Liang,  M. Liebenthal,  
 Hung-Hsuan Lin,  You-Sheng Lin,  Fenglai Liu,  Kuan-Yu Liu,  
 M. Loipersberger,  A. Luenser,  A. Manjanath,  P. Manohar,  E. Mansoor,  
 S. F. Manzer,  Shan-Ping Mao,  A. V. Marenich,  T. Markovich,  S. Mason,  
 S. A. Maurer,  P. F. McLaughlin,  M. F. S. J. Menger,  J.-M. Mewes,  
 S. A. Mewes,  P. Morgante,  J. W. Mullinax,  K. J. Oosterbaan,  G. Paran,  
 Alexander C. Paul,  Suranjan K. Paul,  F. Pavosevic,  Zheng Pei,  S. Prager,  
 E. I. Proynov,  E. Ramos,  B. Rana,  A. E. Rask,  A. Rettig,  R. M. Richard,  
 F. Rob,  E. Rossomme,  T. Scheele,  M. Scheurer,  M. Schneider,  
 N. Sergueev,  S. M. Sharada,  W. Skomorowski,  D. W. Small,  C. J. Stein,  
 Yu-Chuan Su,  E. J. Sundstrom,  Zhen Tao,  J. Thirman,  T. Tsuchimochi,  
 N. M. Tubman,  S. P. Veccham,  O. Vydrov,  J. Wenzel,  J. Witte,  A. Yamada,  
 Kun Yao,  S. Yeganeh,  S. R. Yost,  A. Zech,  Igor Ying Zhang,  Xing Zhang,  
 Yu Zhang,  D. Zuev,  A. Aspuru-Guzik,  A. T. Bell,  N. A. Besley,  
 K. B. Bravaya,  B. R. Brooks,  D. Casanova,  Jeng-Da Chai,  S. Coriani,  
 C. J. Cramer,  A. E. DePrince, III,  R. A. DiStasio Jr.,  A. Dreuw,  
 B. D. Dunietz,  T. R. Furlani,  W. A. Goddard III,  S. Grimme,  
 S. Hammes-Schiffer,  T. Head-Gordon,  W. J. Hehre,  Chao-Ping Hsu,  
 T.-C. Jagau,  Yousung Jung,  A. Klamt,  Jing Kong,  D. S. Lambrecht,  
 WanZhen Liang,  N. J. Mayhall,  C. W. McCurdy,  J. B. Neaton,  
 C. Ochsenfeld,  J. A. Parkhill,  R. Peverati,  V. A. Rassolov,  Yihan Shao,  
 L. V. Slipchenko,  T. Stauch,  R. P. Steele,  J. E. Subotnik,  
 A. J. W. Thom,  A. Tkatchenko,  D. G. Truhlar,  T. Van Voorhis,  
 T. A. Wesolowski,  K. B. Whaley,  H. L. Woodcock III,  P. M. Zimmerman,  
 S. Faraji,  P. M. W. Gill,  M. Head-Gordon,  J. M. Herbert,  A. I. Krylov

 Additional authors for Version 5.4.1: 
 S. Kotaru,  Shaozhi Li,  Xiangyuan Li,  F. Matz,  A. Molle,  Haisheng Ren,  
 Yingli Su,  Hung-Yi Tsai,  C. Utku,  Fang Wang

 Contributors to earlier versions of Q-Chem not listed above: 
 R. D. Adamson,  B. Austin,  R. Baer,  J. Baker,  G. J. O. Beran,  
 K. Brandhorst,  S. T. Brown,  E. F. C. Byrd,  A. K. Chakraborty,  
 G. K. L. Chan,  Chun-Min Chang,  Yunqing Chen,  C.-L. Cheng,  
 Siu Hung Chien,  D. M. Chipman,  D. L. Crittenden,  H. Dachsel,  
 R. J. Doerksen,  A. D. Dutoi,  R. G. Edgar,  J. Fosso-Tande,  
 L. Fusti-Molnar,  D. Ghosh,  A. Ghysels,  A. Golubeva-Zadorozhnaya,  
 J. Gonthier,  M. S. Gordon,  S. R. Gwaltney,  G. Hawkins,  J. E. Herr,  
 A. Heyden,  S. Hirata,  E. G. Hohenstein,  G. Kedziora,  F. J. Keil,  
 C. Kelley,  Jihan Kim,  R. A. King,  R. Z. Khaliullin,  P. P. Korambath,  
 W. Kurlancheek,  A. Laurent,  A. M. Lee,  M. S. Lee,  S. V. Levchenko,  
 Ching Yeh Lin,  D. Liotard,  E. Livshits,  R. C. Lochan,  I. Lotan,  
 L. A. Martinez-Martinez,  P. E. Maslen,  N. Nair,  D. P. O'Neill,  
 D. Neuhauser,  E. Neuscamman,  C. M. Oana,  R. Olivares-Amaya,  R. Olson,  
 T. M. Perrine,  B. Peters,  P. A. Pieniazek,  A. Prociuk,  Y. M. Rhee,  
 J. Ritchie,  M. A. Rohrdanz,  E. Rosta,  N. J. Russ,  H. F. Schaefer III,  
 M. W. Schmidt,  N. E. Schultz,  S. Sharma,  N. Shenvi,  C. D. Sherrill,  
 A. C. Simmonett,  A. Sodt,  T. Stein,  D. Stuck,  K. S. Thanthiriwatte,  
 V. Vanovschi,  L. Vogt,  Tao Wang,  A. Warshel,  M. A. Watson,  
 C. F. Williams,  Q. Wu,  X. Xu,  Jun Yang,  W. Zhang,  Yan Zhao

 Please cite Q-Chem as follows:
 Y. Shao et al., Mol. Phys. 113, 184-215 (2015)
 DOI: 10.1080/00268976.2014.952696

 Q-Chem 5.4.1 for Intel X86 EM64T Linux

 Parts of Q-Chem use Armadillo 9.800.1 (Horizon Scraper).
 http://arma.sourceforge.net/

 Q-Chem begins on Wed Mar 15 16:14:15 2023  

 Host: cpu121.yggdrasil
0

     Scratch files written to /srv/beegfs/scratch/users/f/fum/qchem65181//
 Processing $rem in /home/share/wesolowski/qc5.aug2021.FDE/config/preferences:
 Processing $rem in /home/fum/.qchemrc:

 Checking the input file for inconsistencies... 	...done.

--------------------------------------------------------------
User input:
--------------------------------------------------------------
$comment
generated from CCJob.Templates
$end

$rem
sym_ignore = true
method = adc(2)
ee_states = 10
basis = cc-pVDZ
mem_static = 1024
mem_total = 40000
adc_davidson_maxiter = 900
adc_davidson_conv = 6
adc_print = 3
adc_prop_es = true
adc_prop_es2es = true
adc_prop_tpa = true
molden_format = True
state_analysis = true
print_orbitals = 15
gen_scfman = false
fde_export_density = true
fde_details = 3
$end

$molecule
0 1
H -0.0748278765 -0.2442097827 0.0636489606
C -1.0765972949 -0.5242748755 -0.0023551776
H -1.313264467 -1.5767591607 -0.0757276926
C -2.043634118 0.3926884087 0.0061254933
H -1.8137616575 1.4459188338 0.0804456828
H -3.085977293 0.114931858 -0.0593381042                     
$end
--------------------------------------------------------------
 ----------------------------------------------------------------
             Standard Nuclear Orientation (Angstroms)
    I     Atom           X                Y                Z
 ----------------------------------------------------------------
    1      H      -0.0748278765    -0.2442097827     0.0636489606
    2      C      -1.0765972949    -0.5242748755    -0.0023551776
    3      H      -1.3132644670    -1.5767591607    -0.0757276926
    4      C      -2.0436341180     0.3926884087     0.0061254933
    5      H      -1.8137616575     1.4459188338     0.0804456828
    6      H      -3.0859772930     0.1149318580    -0.0593381042
 ----------------------------------------------------------------
 Nuclear Repulsion Energy =          33.56898278 hartrees
 There are        8 alpha and        8 beta electrons
 Requested basis set is cc-pVDZ
 There are 24 shells and 48 basis functions
 Total memory of 40000 MB is distributed as follows: 
   MEM_STATIC is set to 1024 MB
   QALLOC/CCMAN JOB total memory use is  38976 MB
 Warning: actual memory use might exceed 40000 MB

 Total QAlloc Memory Limit  40000 MB
 Mega-Array Size      1001 MB
 MEM_STATIC part      1024 MB

                       Distance Matrix (Angstroms)
             H (  1)   C (  2)   H (  3)   C (  4)   H (  5)
   C (  2)  1.042274
   H (  3)  1.824511  1.081258
   C (  4)  2.070059  1.332687  2.102109
   H (  5)  2.425017  2.105215  3.067812  1.080583
   H (  6)  3.034984  2.109370  2.450428  1.080700  1.846510

 A cutoff of  1.0D-11 yielded    300 shell pairs
 There are      1220 function pairs (      1329 Cartesian)
 Smallest overlap matrix eigenvalue = 4.81E-03

 Scale SEOQF with 1.000000e-01/1.000000e-01/1.000000e+00

 Standard Electronic Orientation quadrupole field applied
 Nucleus-field energy     =     0.0000000022 hartrees
 Guess from superposition of atomic densities
 Warning:  Energy on first SCF cycle will be non-variational
 SAD guess density has 16.000000 electrons
 A restricted Hartree-Fock SCF calculation will be
 performed using Pulay DIIS extrapolation
 SCF converges when DIIS error is below 1.0E-08
 using 10 threads for integral computing
 -------------------------------------------------------
 OpenMP Integral computing Module                
 Release: version 1.0, May 2013, Q-Chem Inc. Pittsburgh 
 -------------------------------------------------------
 ---------------------------------------
  Cycle       Energy         DIIS Error
 ---------------------------------------
    1     -78.4667439152      1.02E-01
    2     -78.0161997442      7.27E-03
    3     -78.0369856024      1.87E-03
    4     -78.0384803254      5.87E-04
    5     -78.0386079301      6.73E-05
    6     -78.0386100434      2.09E-05
    7     -78.0386102315      6.71E-06
    8     -78.0386102508      1.44E-06
    9     -78.0386102527      4.65E-07
   10     -78.0386102529      9.02E-08
   11     -78.0386102529      6.28E-09 Convergence criterion met
 ---------------------------------------
 SCF time:  CPU 2.23 s  wall 10.40 s
 SCF   energy in the final basis set = -78.03861025
 Total energy in the final basis set = -78.03861025
Exporting Density Matrix to file 'Densmat_SCF.txt'.
Export successful
================================================================================
|                                                                              |
|                                 A D C  M A N                                 |
|                                                                              |
 ------------------------------------------------------------------------------ 
|                                                                              |
| Components:                                                                  |
|                                                                              |
| - libvmm - 1.3-trunk                                                         |
|   Authors:                                                                   |
|   Evgeny Epifanovsky, Ilya Kaliman                                           |
|                                                                              |
| - libtensor - 2.5-trunk                                                      |
|   Authors:                                                                   |
|   Evgeny Epifanovsky, Michael Wormit, Dmitry Zuev, Sam Manzer,               |
|   Ilya Kaliman                                                               |
|                                                                              |
| - libwfa - 1.1-trunk                                                         |
|   Authors:                                                                   |
|   Felix Plasser, Stefanie Mewes (Baeppler), Benjamin Thomitzni,              |
|   Michael Wormit, Feng Chen, Anna I. Krylov, Pavel Pokhilko                  |
|                                                                              |
| - libadc - 1.1-trunk                                                         |
|   Authors:                                                                   |
|   Michael Wormit, Adrian L. Dempwolff, Philipp H. P. Harbach,                |
|   Caroline Krauter, Dirk Rehn, Matthias Schneider, Jan Wenzel                |
|                                                                              |
| - adcman - 2.6-trunk                                                         |
|   Authors:                                                                   |
|   Michael Wormit, Adrian L. Dempwolff, Philipp H. P. Harbach,                |
|   Caroline Krauter, Daniel Lefrancois, Jan-Michael Mewes, Dirk Rehn,         |
|   Matthias Schneider, Jan Wenzel, Andreas Dreuw                              |
|                                                                              |
| Authors of earlier versions of ADCMAN:                                       |
| Andreas Dreuw, Jan Hendrik Starcke, Dirk Rehn, Michael Wormit                |
|                                                                              |
================================================================================

 Created directory /srv/beegfs/scratch/users/f/fum/qchem65181/plots
  Import QC data ...  CPU 0.01 s  wall 0.03 s

 Alpha MOs, Restricted
 -- Occupied --                  
-11.234 -11.230  -1.034  -0.793  -0.645  -0.583  -0.508  -0.374
  1 A     2 A     3 A     4 A     5 A     6 A     7 A     8 A                  
 -- Virtual --                   
  0.168   0.204   0.234   0.241   0.303   0.462   0.577   0.618
  9 A    10 A    11 A    12 A    13 A    14 A    15 A    16 A                  
  0.689   0.713   0.790   0.808   0.865   0.941   0.974   1.013
 17 A    18 A    19 A    20 A    21 A    22 A    23 A    24 A                  
  1.131   1.233   1.259   1.267   1.296   1.607   1.731   1.758
 25 A    26 A    27 A    28 A    29 A    30 A    31 A    32 A                  
  1.825   1.861   1.875   1.933   1.978   1.991   2.222   2.263
 33 A    34 A    35 A    36 A    37 A    38 A    39 A    40 A                  
  2.389   2.473   2.519   2.645   2.746   2.852   3.170   3.427
 41 A    42 A    43 A    44 A    45 A    46 A    47 A    48 A                  

 Beta MOs, Restricted
 -- Occupied --                  
-11.234 -11.230  -1.034  -0.793  -0.645  -0.583  -0.508  -0.374
  1 A     2 A     3 A     4 A     5 A     6 A     7 A     8 A                  
 -- Virtual --                   
  0.168   0.204   0.234   0.241   0.303   0.462   0.577   0.618
  9 A    10 A    11 A    12 A    13 A    14 A    15 A    16 A                  
  0.689   0.713   0.790   0.808   0.865   0.941   0.974   1.013
 17 A    18 A    19 A    20 A    21 A    22 A    23 A    24 A                  
  1.131   1.233   1.259   1.267   1.296   1.607   1.731   1.758
 25 A    26 A    27 A    28 A    29 A    30 A    31 A    32 A                  
  1.825   1.861   1.875   1.933   1.978   1.991   2.222   2.263
 33 A    34 A    35 A    36 A    37 A    38 A    39 A    40 A                  
  2.389   2.473   2.519   2.645   2.746   2.852   3.170   3.427
 41 A    42 A    43 A    44 A    45 A    46 A    47 A    48 A                  
  Import AO data ...  CPU 0.01 s  wall 0.26 s
  Using point group: C1
  Irreducible representations in point group: A
  Molecular orbitals: 
  Occupied MOs:
  Block   0:   1 (  A) A   2 (  A) A   3 (  A) A   4 (  A) A   5 (  A) A
                  -11.23      -11.23      -1.034     -0.7935     -0.6449
               6 (  A) A   7 (  A) A   8 (  A) A
                 -0.5825     -0.5077     -0.3737
  Block   1:   1 (  A) B   2 (  A) B   3 (  A) B   4 (  A) B   5 (  A) B
                  -11.23      -11.23      -1.034     -0.7935     -0.6449
               6 (  A) B   7 (  A) B   8 (  A) B
                 -0.5825     -0.5077     -0.3737
  Virtual MOs:
  Block   0:   9 (  A) A  10 (  A) A  11 (  A) A  12 (  A) A  13 (  A) A
                  0.1685      0.2044      0.2342      0.2412      0.3034
              14 (  A) A  15 (  A) A  16 (  A) A  17 (  A) A  18 (  A) A
                  0.4623      0.5767      0.6179      0.6895      0.7125
              19 (  A) A  20 (  A) A  21 (  A) A  22 (  A) A
                  0.7902      0.8082      0.8651      0.9411
  Block   1:  23 (  A) A  24 (  A) A  25 (  A) A  26 (  A) A  27 (  A) A
                  0.9742       1.013       1.131       1.233       1.259
              28 (  A) A  29 (  A) A  30 (  A) A  31 (  A) A  32 (  A) A
                   1.267       1.296       1.607       1.731       1.758
              33 (  A) A  34 (  A) A  35 (  A) A  36 (  A) A
                   1.825       1.861       1.875       1.933
  Block   2:  37 (  A) A  38 (  A) A  39 (  A) A  40 (  A) A  41 (  A) A
                   1.978       1.991       2.222       2.263       2.389
              42 (  A) A  43 (  A) A  44 (  A) A  45 (  A) A  46 (  A) A
                   2.473       2.519       2.645       2.746       2.852
              47 (  A) A  48 (  A) A
                    3.17       3.427
  Block   3:   9 (  A) B  10 (  A) B  11 (  A) B  12 (  A) B  13 (  A) B
                  0.1685      0.2044      0.2342      0.2412      0.3034
              14 (  A) B  15 (  A) B  16 (  A) B  17 (  A) B  18 (  A) B
                  0.4623      0.5767      0.6179      0.6895      0.7125
              19 (  A) B  20 (  A) B  21 (  A) B  22 (  A) B
                  0.7902      0.8082      0.8651      0.9411
  Block   4:  23 (  A) B  24 (  A) B  25 (  A) B  26 (  A) B  27 (  A) B
                  0.9742       1.013       1.131       1.233       1.259
              28 (  A) B  29 (  A) B  30 (  A) B  31 (  A) B  32 (  A) B
                   1.267       1.296       1.607       1.731       1.758
              33 (  A) B  34 (  A) B  35 (  A) B  36 (  A) B
                   1.825       1.861       1.875       1.933
  Block   5:  37 (  A) B  38 (  A) B  39 (  A) B  40 (  A) B  41 (  A) B
                   1.978       1.991       2.222       2.263       2.389
              42 (  A) B  43 (  A) B  44 (  A) B  45 (  A) B  46 (  A) B
                   2.473       2.519       2.645       2.746       2.852
              47 (  A) B  48 (  A) B
                    3.17       3.427
  Import MO data ...  CPU 0.01 s  wall 0.45 s
  Import HF data ...  CPU 0.07 s  wall 0.32 s
  Import 2e integrals ...  CPU 1.00 s  wall 0.53 s

--------------------------------------------------------------------------------
                                   HF Summary                                   
--------------------------------------------------------------------------------
  Energy:                                                  -78.0386102529 a.u.
  Dip. moment [a.u.]:                  [   0.005072,    0.001955,    0.001348]
  Total dipole [Debye]:                                               0.014235
  <r^2> [a.u.]:                        [ 175.371263,   34.901040,   11.589747]
  Total <r^2> [a.u.]:                                               221.862051
--------------------------------------------------------------------------------
  HF properties ...  CPU 0.01 s  wall 0.00 s
  MP(1) calculation ...  CPU 0.01 s  wall 0.05 s
  N^6 prerequesite intermediates ...  CPU 0.45 s  wall 0.19 s
  Difference density matrix of state mp2_gs printed to ASCII file 'State_mp2_gs_Difference.txt'
Exporting MP density matrix to file 'Densmat_MP.txt'.
Export successful
  Total density matrix of state mp2_gs printed to ASCII file 'State_mp2_gs_Total.txt'
Exporting MP density matrix to file 'Densmat_MP.txt'.
Export successful

--------------------------------------------------------------------------------
                                 MP(2) Summary                                  
--------------------------------------------------------------------------------
  MP energy contribution:                                   -0.2791680222 a.u.
  Total energy:                                            -78.3177782751 a.u.
  Dip. moment [a.u.]:                  [   0.004594,    0.001325,    0.001275]
  Total dipole [Debye]:                                               0.012579
  <r^2> [a.u.]:                        [ 175.420387,   34.943020,   11.424168]
  Total <r^2> [a.u.]:                                               221.787574

  Density matrix analysis:
  ------------------------
  NOs
    Occupation of frontier NOs:
       0.0453   1.9384
    Number of electrons: 16.000000
    Number of unpaired electrons: n_u =  0.40093, n_u,nl =  0.04464
    NO participation ratio (PR_NO): 13.821695
  
  
  Mulliken Population Analysis
  Atom      Charge (e)              h+              e-           Del q
  --------------------------------------------------------------------
   1 H        0.039254        0.014664       -0.011019        0.003645
   2 C       -0.080464        0.090841       -0.097704       -0.006863
   3 H        0.049537        0.014111       -0.011086        0.003026
   4 C       -0.107724        0.093328       -0.098974       -0.005646
   5 H        0.049578        0.014105       -0.011159        0.002946
   6 H        0.049819        0.014071       -0.011179        0.002892
  --------------------------------------------------------------------
  Sum:        0.000000        0.241120       -0.241120       -0.000000
  
  Multipole moment analysis of the density matrix
    Molecular charge:                      0.000000
    Number of electrons:                   16.000000
      Center of electronic charge [Ang]: [ -1.563228,  -0.065646,   0.001936]
    Total nuclear charge:                  16.000000
      Center of nuclear charge [Ang]:    [ -1.563076,  -0.065602,   0.001978]
    Dipole moment [D]:                     0.012579
      Cartesian components [D]:          [  0.011678,   0.003368,   0.003240]
    RMS size of the density [Ang]:         1.197365
      Cartesian components [Ang]:        [  0.791509,   0.779266,   0.447146]
  
  Exciton analysis of the difference density matrix
    <r_h> [Ang]:                  [ -1.568272,  -0.064440,   0.001607]
    <r_e> [Ang]:                  [ -1.567224,  -0.063057,   0.001767]
    |<r_e - r_h>| [Ang]:            0.001743
    Hole size [Ang]:                1.388957
      Cartesian components [Ang]: [  0.838990,   0.834308,   0.727480]
    Electron size [Ang]:            1.358738
      Cartesian components [Ang]: [  0.874210,   0.863133,   0.580454]
--------------------------------------------------------------------------------
  MP(2) calculation ...  CPU 0.11 s  wall 0.19 s
  Start ADC(2)-s ...  CPU 0.01 s  wall 0.02 s
  ADC(2) intermediates ...  CPU 0.13 s  wall 0.02 s
  Starting Davidson for singlet states of irrep A ... 
--------------------------------------------------------------------------------
   It NVec Conv  Avg. Norm  Max. Norm  Conv. states           Remark
--------------------------------------------------------------------------------
        10    0  1.330e-01  4.690e-01  0.4122 n n n n n n n n Guess.
    1   20    0  2.365e-02  1.118e-01  0.3262 n n n n n n n n 
    2   30    0  6.354e-03  3.578e-02  0.3214 n n n n n n n n 
    3   40    0  2.251e-03  1.694e-02  0.3210 n n n n n n n n 
    4   50    0  7.174e-04  5.748e-03  0.3210 n n n n n n n n 
    5   20    0  3.506e-04  2.823e-03  0.3210 n n n n n n n n Subspace collapsed.
    6   30    0  3.760e-04  3.632e-03  0.3210 n n n n n n n n 
    7   40    0  2.474e-04  2.423e-03  0.3210 n n n n n n n n 
    8   50    0  2.665e-04  2.654e-03  0.3210 n n n n n n n n 
    9   20    1  2.327e-04  2.318e-03  0.3210 n y n n n n n n Subspace collapsed.
   10   30    3  2.242e-04  2.240e-03  0.3210 n y y y n n n n 
   11   40    5  1.509e-04  1.507e-03  0.3210 n y y y y y n n 
   12   50    5  1.917e-04  1.917e-03  0.3210 n y y y y y n n 
   13   20    6  1.051e-04  1.050e-03  0.3210 y y y y y y n n Subspace collapsed.
   14   30    6  1.179e-04  1.179e-03  0.3210 y y y y y y n n 
   15   40    7  1.078e-04  1.078e-03  0.3210 y y y y y y n y 
   16   50    7  1.323e-04  1.323e-03  0.3210 y y y y y y n y 
   17   20    8  6.322e-05  6.322e-04  0.3210 y y y y y y n y Subspace collapsed.
   18   30    8  6.192e-05  6.192e-04  0.3210 y y y y y y n y 
   19   40    8  4.455e-05  4.455e-04  0.3210 y y y y y y n y 
   20   50    9  5.255e-05  5.255e-04  0.3210 y y y y y y y y 
   21   20    9  2.655e-05  2.655e-04  0.3210 y y y y y y y y Subspace collapsed.
   22   30    9  3.385e-05  3.385e-04  0.3210 y y y y y y y y 
   23   31    9  3.345e-05  3.345e-04  0.3210 y y y y y y y y 
   24   32    9  3.378e-05  3.378e-04  0.3210 y y y y y y y y 
   25   33    9  3.328e-05  3.328e-04  0.3210 y y y y y y y y 
   26   35    9  3.313e-05  3.313e-04  0.3210 y y y y y y y y 
   27   36    9  3.354e-05  3.354e-04  0.3210 y y y y y y y y 
   28   36    9  3.354e-05  3.354e-04  0.3210 y y y y y y y y 
   29   46    9  2.675e-05  2.675e-04  0.3210 y y y y y y y y 
   30   50    9  2.929e-05  2.929e-04  0.3210 y y y y y y y y 
   31   16    9  2.109e-05  2.109e-04  0.3210 y y y y y y y y Subspace collapsed.
   32   21    9  2.212e-05  2.212e-04  0.3210 y y y y y y y y 
   33   26    9  1.800e-05  1.800e-04  0.3210 y y y y y y y y 
   34   30    9  1.896e-05  1.896e-04  0.3210 y y y y y y y y 
   35   34    9  1.615e-05  1.615e-04  0.3210 y y y y y y y y 
   36   38    9  1.484e-05  1.484e-04  0.3210 y y y y y y y y 
   37   42    9  6.089e-06  6.089e-05  0.3210 y y y y y y y y 
   38   46    9  3.516e-06  3.516e-05  0.3210 y y y y y y y y 
   39   50    9  1.381e-06  1.381e-05  0.3210 y y y y y y y y 
   40   14    9  6.762e-07  6.762e-06  0.3210 y y y y y y y y Subspace collapsed.
   41   18    9  5.445e-07  5.445e-06  0.3210 y y y y y y y y 
   42   22    9  2.801e-07  2.801e-06  0.3210 y y y y y y y y 
   43   26    9  1.740e-07  1.740e-06  0.3210 y y y y y y y y 
   44   30    9  1.029e-07  1.029e-06  0.3210 y y y y y y y y 
   45   34   10  5.324e-08  5.324e-07  0.3210 y y y y y y y y Converged.
--------------------------------------------------------------------------------
  Davidson Summary: 
 ------------------------------------------------------------
  State  0: excitation energy =   0.3210 a.u.   (converged)
  State  1: excitation energy =   0.3347 a.u.   (converged)
  State  2: excitation energy =   0.3380 a.u.   (converged)
  State  3: excitation energy =   0.3635 a.u.   (converged)
  State  4: excitation energy =   0.3765 a.u.   (converged)
  State  5: excitation energy =   0.3881 a.u.   (converged)
  State  6: excitation energy =   0.4278 a.u.   (converged)
  State  7: excitation energy =   0.4488 a.u.   (converged)
  State  8: excitation energy =   0.4580 a.u.   (converged)
  State  9: excitation energy =   0.4684 a.u.   (converged)
 ------------------------------------------------------------

  Singlet states of irrep A ...  CPU 116.64 s  wall 31.19 s
  TDMs ...  CPU 0.58 s  wall 0.23 s
  SDMs ...  CPU 1.25 s  wall 0.44 s
  Starting TPA DIIS iterations ... 
------------------------------------ 
   It     Res. Norm  Remark
------------------------------------
                       Guess.
    1     4.426e+00  
    2     5.864e+00  
    3     1.067e+00  
    4     2.473e-01  
    5     6.491e-02  
    6     2.520e-02  
    7     8.014e-03  
    8     1.297e-03  
    9     4.753e-04  
   10     8.299e-05  
   11     2.451e-05  
   12     4.119e-06  
   13     1.253e-06  
   14     4.354e-07  Converged.
   ... Converged in 14 steps (norm: 4.35356e-07)
------------------------------------
  Starting TPA DIIS iterations ... 
------------------------------------ 
   It     Res. Norm  Remark
------------------------------------
                       Guess.
    1     4.185e+00  
    2     5.547e+00  
    3     1.032e+00  
    4     2.574e-01  
    5     6.602e-02  
    6     2.709e-02  
    7     8.077e-03  
    8     1.469e-03  
    9     5.367e-04  
   10     8.830e-05  
   11     2.814e-05  
   12     4.265e-06  
   13     1.427e-06  
   14     4.336e-07  Converged.
   ... Converged in 14 steps (norm: 4.33591e-07)
------------------------------------
  Starting TPA DIIS iterations ... 
------------------------------------ 
   It     Res. Norm  Remark
------------------------------------
                       Guess.
    1     6.885e-01  
    2     4.862e-01  
    3     1.722e-01  
    4     6.179e-02  
    5     1.797e-02  
    6     6.565e-03  
    7     1.090e-03  
    8     4.119e-04  
    9     1.620e-04  
   10     2.799e-05  
   11     1.903e-05  
   12     7.344e-06  
   13     3.816e-06  
   14     1.626e-06  
   15     4.501e-07  Converged.
   ... Converged in 15 steps (norm: 4.5012e-07)
------------------------------------
  Starting TPA DIIS iterations ... 
------------------------------------ 
   It     Res. Norm  Remark
------------------------------------
                       Guess.
    1     4.769e+00  
    2     6.481e+00  
    3     1.163e+00  
    4     2.800e-01  
    5     7.469e-02  
    6     2.924e-02  
    7     9.285e-03  
    8     1.497e-03  
    9     5.540e-04  
   10     9.746e-05  
   11     2.917e-05  
   12     4.968e-06  
   13     1.520e-06  
   14     5.361e-07  Converged.
   ... Converged in 14 steps (norm: 5.36101e-07)
------------------------------------
  Starting TPA DIIS iterations ... 
------------------------------------ 
   It     Res. Norm  Remark
------------------------------------
                       Guess.
    1     4.508e+00  
    2     6.130e+00  
    3     1.124e+00  
    4     2.913e-01  
    5     7.598e-02  
    6     3.151e-02  
    7     9.365e-03  
    8     1.702e-03  
    9     6.267e-04  
   10     1.037e-04  
   11     3.344e-05  
   12     5.113e-06  
   13     1.740e-06  
   14     5.280e-07  Converged.
   ... Converged in 14 steps (norm: 5.27996e-07)
------------------------------------
  Starting TPA DIIS iterations ... 
------------------------------------ 
   It     Res. Norm  Remark
------------------------------------
                       Guess.
    1     7.027e-01  
    2     5.071e-01  
    3     1.841e-01  
    4     7.156e-02  
    5     1.962e-02  
    6     7.298e-03  
    7     1.260e-03  
    8     4.822e-04  
    9     1.921e-04  
   10     3.608e-05  
   11     2.326e-05  
   12     9.105e-06  
   13     4.944e-06  
   14     2.181e-06  
   15     5.732e-07  Converged.
   ... Converged in 15 steps (norm: 5.73249e-07)
------------------------------------
  Starting TPA DIIS iterations ... 
------------------------------------ 
   It     Res. Norm  Remark
------------------------------------
                       Guess.
    1     4.857e+00  
    2     6.641e+00  
    3     1.187e+00  
    4     2.886e-01  
    5     7.728e-02  
    6     3.031e-02  
    7     9.621e-03  
    8     1.550e-03  
    9     5.749e-04  
   10     1.013e-04  
   11     3.042e-05  
   12     5.199e-06  
   13     1.593e-06  
   14     5.638e-07  Converged.
   ... Converged in 14 steps (norm: 5.63849e-07)
------------------------------------
  Starting TPA DIIS iterations ... 
------------------------------------ 
   It     Res. Norm  Remark
------------------------------------
                       Guess.
    1     4.591e+00  
    2     6.282e+00  
    3     1.148e+00  
    4     3.003e-01  
    5     7.862e-02  
    6     3.269e-02  
    7     9.706e-03  
    8     1.763e-03  
    9     6.506e-04  
   10     1.078e-04  
   11     3.486e-05  
   12     5.341e-06  
   13     1.826e-06  
   14     5.538e-07  Converged.
   ... Converged in 14 steps (norm: 5.53777e-07)
------------------------------------
  Starting TPA DIIS iterations ... 
------------------------------------ 
   It     Res. Norm  Remark
------------------------------------
                       Guess.
    1     7.062e-01  
    2     5.123e-01  
    3     1.871e-01  
    4     7.419e-02  
    5     2.004e-02  
    6     7.492e-03  
    7     1.306e-03  
    8     5.007e-04  
    9     2.002e-04  
   10     3.841e-05  
   11     2.442e-05  
   12     9.600e-06  
   13     5.267e-06  
   14     2.342e-06  
   15     6.055e-07  Converged.
   ... Converged in 15 steps (norm: 6.05459e-07)
------------------------------------
  Starting TPA DIIS iterations ... 
------------------------------------ 
   It     Res. Norm  Remark
------------------------------------
                       Guess.
    1     5.651e+00  
    2     8.125e+00  
    3     1.407e+00  
    4     3.710e-01  
    5     1.019e-01  
    6     4.064e-02  
    7     1.283e-02  
    8     2.051e-03  
    9     7.761e-04  
   10     1.385e-04  
   11     4.283e-05  
   12     7.499e-06  
   13     2.333e-06  
   14     8.515e-07  Converged.
   ... Converged in 14 steps (norm: 8.51457e-07)
------------------------------------
  Starting TPA DIIS iterations ... 
------------------------------------ 
   It     Res. Norm  Remark
------------------------------------
                       Guess.
    1     5.340e+00  
    2     7.684e+00  
    3     1.359e+00  
    4     3.857e-01  
    5     1.038e-01  
    6     4.402e-02  
    7     1.296e-02  
    8     2.350e-03  
    9     8.807e-04  
   10     1.473e-04  
   11     4.881e-05  
   12     7.578e-06  
   13     2.706e-06  
   14     8.172e-07  Converged.
   ... Converged in 14 steps (norm: 8.17157e-07)
------------------------------------
  Starting TPA DIIS iterations ... 
------------------------------------ 
   It     Res. Norm  Remark
------------------------------------
                       Guess.
    1     7.346e-01  
    2     5.569e-01  
    3     2.136e-01  
    4     1.000e-01  
    5     2.381e-02  
    6     9.341e-03  
    7     1.755e-03  
    8     6.683e-04  
    9     2.763e-04  
   10     6.343e-05  
   11     3.632e-05  
   12     1.492e-05  
   13     8.936e-06  
   14     4.105e-06  
   15     9.189e-07  Converged.
   ... Converged in 15 steps (norm: 9.18911e-07)
------------------------------------
  Starting TPA DIIS iterations ... 
------------------------------------ 
   It     Res. Norm  Remark
------------------------------------
                       Guess.
    1     6.138e+00  
    2     9.067e+00  
    3     1.541e+00  
    4     4.252e-01  
    5     1.182e-01  
    6     4.751e-02  
    7     1.494e-02  
    8     2.379e-03  
    9     9.099e-04  
   10     1.633e-04  
   11     5.134e-05  
   12     9.099e-06  
   13     2.860e-06  
   14     1.063e-06  
   15     2.929e-07  Converged.
   ... Converged in 15 steps (norm: 2.92865e-07)
------------------------------------
  Starting TPA DIIS iterations ... 
------------------------------------ 
   It     Res. Norm  Remark
------------------------------------
                       Guess.
    1     5.798e+00  
    2     8.574e+00  
    3     1.487e+00  
    4     4.420e-01  
    5     1.203e-01  
    6     5.159e-02  
    7     1.510e-02  
    8     2.736e-03  
    9     1.034e-03  
   10     1.736e-04  
   11     5.827e-05  
   12     9.093e-06  
   13     3.338e-06  
   14     1.009e-06  
   15     5.251e-07  Converged.
   ... Converged in 15 steps (norm: 5.25093e-07)
------------------------------------
  Starting TPA DIIS iterations ... 
------------------------------------ 
   It     Res. Norm  Remark
------------------------------------
                       Guess.
    1     7.499e-01  
    2     5.824e-01  
    3     2.292e-01  
    4     1.176e-01  
    5     2.617e-02  
    6     1.056e-02  
    7     2.063e-03  
    8     7.667e-04  
    9     3.255e-04  
   10     8.196e-05  
   11     4.491e-05  
   12     1.899e-05  
   13     1.198e-05  
   14     5.442e-06  
   15     1.158e-06  
   16     5.047e-07  Converged.
   ... Converged in 16 steps (norm: 5.04696e-07)
------------------------------------
  Starting TPA DIIS iterations ... 
------------------------------------ 
   It     Res. Norm  Remark
------------------------------------
                       Guess.
    1     6.638e+00  
    2     1.006e+01  
    3     1.677e+00  
    4     4.835e-01  
    5     1.356e-01  
    6     5.496e-02  
    7     1.721e-02  
    8     2.730e-03  
    9     1.055e-03  
   10     1.903e-04  
   11     6.075e-05  
   12     1.088e-05  
   13     3.458e-06  
   14     1.312e-06  
   15     3.646e-07  Converged.
   ... Converged in 15 steps (norm: 3.64618e-07)
------------------------------------
  Starting TPA DIIS iterations ... 
------------------------------------ 
   It     Res. Norm  Remark
------------------------------------
                       Guess.
    1     6.270e+00  
    2     9.511e+00  
    3     1.618e+00  
    4     5.025e-01  
    5     1.381e-01  
    6     5.981e-02  
    7     1.741e-02  
    8     3.150e-03  
    9     1.200e-03  
   10     2.021e-04  
   11     6.860e-05  
   12     1.075e-05  
   13     4.058e-06  
   14     1.233e-06  
   15     6.835e-07  Converged.
   ... Converged in 15 steps (norm: 6.83465e-07)
------------------------------------
  Starting TPA DIIS iterations ... 
------------------------------------ 
   It     Res. Norm  Remark
------------------------------------
                       Guess.
    1     7.642e-01  
    2     6.074e-01  
    3     2.449e-01  
    4     1.369e-01  
    5     2.867e-02  
    6     1.187e-02  
    7     2.403e-03  
    8     8.602e-04  
    9     3.774e-04  
   10     1.031e-04  
   11     5.477e-05  
   12     2.383e-05  
   13     1.582e-05  
   14     6.993e-06  
   15     1.467e-06  
   16     6.347e-07  Converged.
   ... Converged in 16 steps (norm: 6.34677e-07)
------------------------------------
  Starting TPA DIIS iterations ... 
------------------------------------ 
   It     Res. Norm  Remark
------------------------------------
                       Guess.
    1     8.940e+00  
    2     1.490e+01  
    3     2.295e+00  
    4     7.810e-01  
    5     2.251e-01  
    6     9.380e-02  
    7     2.882e-02  
    8     4.507e-03  
    9     1.812e-03  
   10     3.305e-04  
   11     1.109e-04  
   12     2.078e-05  
   13     6.892e-06  
   14     2.918e-06  
   15     8.762e-07  Converged.
   ... Converged in 15 steps (norm: 8.76235e-07)
------------------------------------
  Starting TPA DIIS iterations ... 
------------------------------------ 
   It     Res. Norm  Remark
------------------------------------
                       Guess.
    1     8.441e+00  
    2     1.409e+01  
    3     2.211e+00  
    4     8.110e-01  
    5     2.295e-01  
    6     1.029e-01  
    7     2.923e-02  
    8     5.264e-03  
    9     2.062e-03  
   10     3.494e-04  
   11     1.218e-04  
   12     1.933e-05  
   13     8.271e-06  
   14     2.749e-06  
   15     1.817e-06  
   16     7.033e-07  Converged.
   ... Converged in 16 steps (norm: 7.03314e-07)
------------------------------------
  Starting TPA DIIS iterations ... 
------------------------------------ 
   It     Res. Norm  Remark
------------------------------------
                       Guess.
    1     8.178e-01  
    2     7.101e-01  
    3     3.127e-01  
    4     2.362e-01  
    5     4.112e-02  
    6     1.837e-02  
    7     4.211e-03  
    8     1.186e-03  
    9     6.277e-04  
   10     2.201e-04  
   11     1.130e-04  
   12     5.413e-05  
   13     4.192e-05  
   14     1.612e-05  
   15     4.003e-06  
   16     1.413e-06  
   17     4.616e-07  Converged.
   ... Converged in 17 steps (norm: 4.61569e-07)
------------------------------------
  Starting TPA DIIS iterations ... 
------------------------------------ 
   It     Res. Norm  Remark
------------------------------------
                       Guess.
    1     1.073e+01  
    2     1.894e+01  
    3     2.762e+00  
    4     1.038e+00  
    5     3.030e-01  
    6     1.284e-01  
    7     3.892e-02  
    8     6.038e-03  
    9     2.486e-03  
   10     4.545e-04  
   11     1.552e-04  
   12     3.023e-05  
   13     1.025e-05  
   14     4.751e-06  
   15     1.580e-06  
   16     9.501e-07  Converged.
   ... Converged in 16 steps (norm: 9.50075e-07)
------------------------------------
  Starting TPA DIIS iterations ... 
------------------------------------ 
   It     Res. Norm  Remark
------------------------------------
                       Guess.
    1     1.013e+01  
    2     1.791e+01  
    3     2.658e+00  
    4     1.076e+00  
    5     3.091e-01  
    6     1.413e-01  
    7     3.951e-02  
    8     7.098e-03  
    9     2.826e-03  
   10     4.785e-04  
   11     1.668e-04  
   12     2.694e-05  
   13     1.267e-05  
   14     4.742e-06  
   15     3.260e-06  
   16     1.429e-06  
   17     9.200e-07  Converged.
   ... Converged in 17 steps (norm: 9.20013e-07)
------------------------------------
  Starting TPA DIIS iterations ... 
------------------------------------ 
   It     Res. Norm  Remark
------------------------------------
                       Guess.
    1     8.499e-01  
    2     7.800e-01  
    3     3.613e-01  
    4     3.167e-01  
    5     5.164e-02  
    6     2.351e-02  
    7     5.797e-03  
    8     1.392e-03  
    9     8.313e-04  
   10     3.254e-04  
   11     1.714e-04  
   12     8.477e-05  
   13     6.667e-05  
   14     2.509e-05  
   15     7.298e-06  
   16     2.270e-06  
   17     6.593e-07  Converged.
   ... Converged in 17 steps (norm: 6.59272e-07)
------------------------------------
  Starting TPA DIIS iterations ... 
------------------------------------ 
   It     Res. Norm  Remark
------------------------------------
                       Guess.
    1     1.169e+01  
    2     2.121e+01  
    3     3.010e+00  
    4     1.183e+00  
    5     3.476e-01  
    6     1.484e-01  
    7     4.470e-02  
    8     6.910e-03  
    9     2.878e-03  
   10     5.259e-04  
   11     1.805e-04  
   12     3.597e-05  
   13     1.231e-05  
   14     5.963e-06  
   15     2.112e-06  
   16     1.268e-06  
   17     7.183e-07  Converged.
   ... Converged in 17 steps (norm: 7.18258e-07)
------------------------------------
  Starting TPA DIIS iterations ... 
------------------------------------ 
   It     Res. Norm  Remark
------------------------------------
                       Guess.
    1     1.104e+01  
    2     2.006e+01  
    3     2.896e+00  
    4     1.226e+00  
    5     3.547e-01  
    6     1.637e-01  
    7     4.540e-02  
    8     8.146e-03  
    9     3.268e-03  
   10     5.524e-04  
   11     1.919e-04  
   12     3.141e-05  
   13     1.554e-05  
   14     6.203e-06  
   15     4.291e-06  
   16     1.981e-06  
   17     1.187e-06  
   18     3.966e-07  Converged.
   ... Converged in 18 steps (norm: 3.96569e-07)
------------------------------------
  Starting TPA DIIS iterations ... 
------------------------------------ 
   It     Res. Norm  Remark
------------------------------------
                       Guess.
    1     8.649e-01  
    2     8.151e-01  
    3     3.863e-01  
    4     3.585e-01  
    5     5.752e-02  
    6     2.618e-02  
    7     6.689e-03  
    8     1.517e-03  
    9     9.442e-04  
   10     3.854e-04  
   11     2.070e-04  
   12     1.032e-04  
   13     7.955e-05  
   14     3.053e-05  
   15     9.548e-06  
   16     2.869e-06  
   17     8.160e-07  Converged.
   ... Converged in 17 steps (norm: 8.16005e-07)
------------------------------------
  Starting TPA DIIS iterations ... 
------------------------------------ 
   It     Res. Norm  Remark
------------------------------------
                       Guess.
    1     1.296e+01  
    2     2.429e+01  
    3     3.331e+00  
    4     1.380e+00  
    5     4.087e-01  
    6     1.760e-01  
    7     5.261e-02  
    8     8.101e-03  
    9     3.418e-03  
   10     6.240e-04  
   11     2.151e-04  
   12     4.420e-05  
   13     1.531e-05  
   14     7.795e-06  
   15     2.997e-06  
   16     1.783e-06  
   17     1.003e-06  
   18     5.016e-07  Converged.
   ... Converged in 18 steps (norm: 5.01605e-07)
------------------------------------
  Starting TPA DIIS iterations ... 
------------------------------------ 
   It     Res. Norm  Remark
------------------------------------
                       Guess.
    1     1.224e+01  
    2     2.297e+01  
    3     3.203e+00  
    4     1.429e+00  
    5     4.171e-01  
    6     1.946e-01  
    7     5.346e-02  
    8     9.581e-03  
    9     3.876e-03  
   10     6.535e-04  
   11     2.260e-04  
   12     3.771e-05  
   13     1.991e-05  
   14     8.544e-06  
   15     5.949e-06  
   16     2.897e-06  
   17     1.587e-06  
   18     5.861e-07  Converged.
   ... Converged in 18 steps (norm: 5.86118e-07)
------------------------------------
  Starting TPA DIIS iterations ... 
------------------------------------ 
   It     Res. Norm  Remark
------------------------------------
                       Guess.
    1     8.828e-01  
    2     8.592e-01  
    3     4.181e-01  
    4     4.099e-01  
    5     6.542e-02  
    6     2.949e-02  
    7     7.882e-03  
    8     1.710e-03  
    9     1.096e-03  
   10     4.663e-04  
   11     2.578e-04  
   12     1.293e-04  
   13     9.459e-05  
   14     3.828e-05  
   15     1.300e-05  
   16     3.862e-06  
   17     1.122e-06  
   18     7.730e-07  Converged.
   ... Converged in 18 steps (norm: 7.72969e-07)
------------------------------------
  Two-photon absorbption ...  CPU 97.04 s  wall 18.87 s
  Transition density matrix of state singlet_A_1 printed to ASCII file 'State_singlet_A_1_Transition.txt'
  Transition density matrix of state singlet_A_2 printed to ASCII file 'State_singlet_A_2_Transition.txt'
  Transition density matrix of state singlet_A_3 printed to ASCII file 'State_singlet_A_3_Transition.txt'
  Transition density matrix of state singlet_A_4 printed to ASCII file 'State_singlet_A_4_Transition.txt'
  Transition density matrix of state singlet_A_5 printed to ASCII file 'State_singlet_A_5_Transition.txt'
  Transition density matrix of state singlet_A_6 printed to ASCII file 'State_singlet_A_6_Transition.txt'
  Transition density matrix of state singlet_A_7 printed to ASCII file 'State_singlet_A_7_Transition.txt'
  Transition density matrix of state singlet_A_8 printed to ASCII file 'State_singlet_A_8_Transition.txt'
  Transition density matrix of state singlet_A_9 printed to ASCII file 'State_singlet_A_9_Transition.txt'
  Transition density matrix of state singlet_A_10 printed to ASCII file 'State_singlet_A_10_Transition.txt'
  Transition properties ...  CPU 0.15 s  wall 1.24 s
  Difference density matrix of state singlet_A_1 printed to ASCII file 'State_singlet_A_1_Difference.txt'
  Total density matrix of state singlet_A_1 printed to ASCII file 'State_singlet_A_1_Total.txt'
  Difference density matrix of state singlet_A_2 printed to ASCII file 'State_singlet_A_2_Difference.txt'
  Total density matrix of state singlet_A_2 printed to ASCII file 'State_singlet_A_2_Total.txt'
  Difference density matrix of state singlet_A_3 printed to ASCII file 'State_singlet_A_3_Difference.txt'
  Total density matrix of state singlet_A_3 printed to ASCII file 'State_singlet_A_3_Total.txt'
  Difference density matrix of state singlet_A_4 printed to ASCII file 'State_singlet_A_4_Difference.txt'
  Total density matrix of state singlet_A_4 printed to ASCII file 'State_singlet_A_4_Total.txt'
  Difference density matrix of state singlet_A_5 printed to ASCII file 'State_singlet_A_5_Difference.txt'
  Total density matrix of state singlet_A_5 printed to ASCII file 'State_singlet_A_5_Total.txt'
  Difference density matrix of state singlet_A_6 printed to ASCII file 'State_singlet_A_6_Difference.txt'
  Total density matrix of state singlet_A_6 printed to ASCII file 'State_singlet_A_6_Total.txt'
  Difference density matrix of state singlet_A_7 printed to ASCII file 'State_singlet_A_7_Difference.txt'
  Total density matrix of state singlet_A_7 printed to ASCII file 'State_singlet_A_7_Total.txt'
  Difference density matrix of state singlet_A_8 printed to ASCII file 'State_singlet_A_8_Difference.txt'
  Total density matrix of state singlet_A_8 printed to ASCII file 'State_singlet_A_8_Total.txt'
  Difference density matrix of state singlet_A_9 printed to ASCII file 'State_singlet_A_9_Difference.txt'
  Total density matrix of state singlet_A_9 printed to ASCII file 'State_singlet_A_9_Total.txt'
  Difference density matrix of state singlet_A_10 printed to ASCII file 'State_singlet_A_10_Difference.txt'
  Total density matrix of state singlet_A_10 printed to ASCII file 'State_singlet_A_10_Total.txt'
  Properties ...  CPU 0.27 s  wall 1.17 s
  ISR TDMS ...  CPU 7.66 s  wall 2.65 s
  ISR transition properties ...  CPU 0.15 s  wall 0.07 s
  Sum-over-states TPA ...  CPU 0.00 s  wall 0.00 s

--------------------------------------------------------------------------------
                   State-averaged natural transition orbitals
--------------------------------------------------------------------------------
--------------------------------------------------------------------------------
  SA-NTO decomposition ...  CPU 0.01 s  wall 0.05 s

--------------------------------------------------------------------------------
                             Excited State Summary
--------------------------------------------------------------------------------
--------------------------------------------------------------------------------

  Excited state 1 (singlet, A)                                     [converged]
  ----------------------------------------------------------------------------
  Term symbol:  2 (1) A                                     R^2 =  1.01114e-13

  Total energy:                                            -77.9967512065 a.u.
  Excitation energy:                                               8.735591 eV

  Osc. strength:                                                      0.444870
  Trans. dip. moment [a.u.]:           [   1.041067,   -0.997367,   -0.009827]
  <i|r^2|0> [a.u.]:                    [   6.171719,   -0.256444,    0.002095]
  Two-photon absorption cross-section (SoS) [a.u.]:                   0.035009
  Two-photon absorption matrix (SoS) [a.u.]:
                                       |    0.052554    0.044641    0.006908 |
                                       |    0.044641    0.008555    0.005736 |
                                       |    0.006908    0.005736   -0.039085 |
  Two-photon absorption cross-section [a.u.]:                         0.019665
  Two-photon absorption matrix [a.u.]:
                                       |    0.012343    0.025161    0.001401 |
                                       |    0.025161   -0.016054    0.002043 |
                                       |    0.001401    0.002043   -0.045117 |

  Dip. moment [a.u.]:                  [   0.004293,    0.000862,    0.001520]
  Total dipole [Debye]:                                               0.011781
  <r^2> [a.u.]:                        [ 176.178438,   35.632694,   11.832932]
  Total <r^2> [a.u.]:                                               223.644064

  V1^2 = 0.9716, V2^2 = 0.0284

  Important amplitudes:
      occ i     occ j     vir a      vir b          v   
    -----------------------------------------------------
     8 (A) A              9 (A) A                 0.6812
     6 (A) A             14 (A) A                -0.0626
     4 (A) A             10 (A) A                 0.0597
     7 (A) A             16 (A) A                 0.0567
     5 (A) A             13 (A) A                -0.0504
     6 (A) A             23 (A) A                -0.0479
     8 (A) A             20 (A) A                 0.0350
     6 (A) A             19 (A) A                 0.0313
     3 (A) A             12 (A) A                -0.0275
     7 (A) A             11 (A) A                 0.0216
     5 (A) A             22 (A) A                 0.0208
     4 (A) A             24 (A) A                 0.0186
     3 (A) A             26 (A) A                -0.0184
     8 (A) A   8 (A) B   17 (A) A   20 (A) B     -0.0184
     8 (A) A   8 (A) B    9 (A) A   28 (A) B      0.0168
     6 (A) A             26 (A) A                -0.0164
     7 (A) A             21 (A) A                 0.0144
     3 (A) A             14 (A) A                -0.0137
     3 (A) A   4 (A) B    9 (A) A    9 (A) B     -0.0129
     6 (A) A             12 (A) A                 0.0125
     3 (A) A             19 (A) A                 0.0118
     8 (A) A   8 (A) B   18 (A) A   19 (A) B     -0.0113
     7 (A) A             32 (A) A                 0.0095
     7 (A) A             36 (A) A                 0.0085
     3 (A) A             23 (A) A                -0.0077
     8 (A) A   8 (A) B   25 (A) A   29 (A) B     -0.0077
     6 (A) A             35 (A) A                 0.0072
     6 (A) A             40 (A) A                -0.0068
     6 (A) A             22 (A) A                 0.0068
     3 (A) A   6 (A) B    9 (A) A   28 (A) B      0.0065
     6 (A) A   8 (A) A   19 (A) A   28 (A) A     -0.0061
     5 (A) A   7 (A) B    9 (A) A    9 (A) B     -0.0060
     5 (A) A   8 (A) B   16 (A) A    9 (A) B     -0.0059
     7 (A) A   8 (A) B   13 (A) A   20 (A) B      0.0059
     5 (A) A   8 (A) B   11 (A) A   20 (A) B     -0.0058
     3 (A) A   5 (A) B    9 (A) A   25 (A) B     -0.0058
     3 (A) A             40 (A) A                -0.0057
     6 (A) A   8 (A) A    9 (A) A   18 (A) A     -0.0057
     5 (A) A   8 (A) B   11 (A) A    9 (A) B      0.0056
     7 (A) A   8 (A) B   22 (A) A   20 (A) B     -0.0056
    -----------------------------------------------------

  Density matrix analysis:
  ------------------------
  NOs
    Occupation of frontier NOs:
       0.9498   1.0215
    Number of electrons: 16.000000
    Number of unpaired electrons: n_u =  2.31109, n_u,nl =  2.03222
    NO participation ratio (PR_NO):  2.856946
  
  
  Mulliken Population Analysis
  Atom      Charge (e)              h+              e-           Del q
  --------------------------------------------------------------------
   1 H        0.046368        0.019876       -0.012761        0.007115
   2 C       -0.094834        0.490873       -0.505243       -0.014370
   3 H        0.057269        0.020352       -0.012621        0.007732
   4 C       -0.123458        0.490798       -0.506532       -0.015734
   5 H        0.057188        0.020217       -0.012607        0.007610
   6 H        0.057467        0.020128       -0.012480        0.007648
  --------------------------------------------------------------------
  Sum:        0.000000        1.062244       -1.062244       -0.000000
  
  Multipole moment analysis of the density matrix
    Molecular charge:                      0.000000
    Number of electrons:                   16.000000
      Center of electronic charge [Ang]: [ -1.563218,  -0.065631,   0.001928]
    Total nuclear charge:                  16.000000
      Center of nuclear charge [Ang]:    [ -1.563076,  -0.065602,   0.001978]
    Dipole moment [D]:                     0.011781
      Cartesian components [D]:          [  0.010911,   0.002191,   0.003864]
    RMS size of the density [Ang]:         1.210871
      Cartesian components [Ang]:        [  0.799866,   0.786974,   0.455075]
  
  Exciton analysis of the difference density matrix
    <r_h> [Ang]:                  [ -1.561167,  -0.065692,   0.001557]
    <r_e> [Ang]:                  [ -1.561017,  -0.065461,   0.001434]
    |<r_e - r_h>| [Ang]:            0.000301
    Hole size [Ang]:                1.284329
      Cartesian components [Ang]: [  0.726094,   0.712798,   0.783715]
    Electron size [Ang]:            1.462672
      Cartesian components [Ang]: [  0.852947,   0.830616,   0.849687]

  Transition density matrix analysis:
  -----------------------------------
  
  CT numbers (Mulliken)
    omega =     0.9538
    <Phe> =    -0.1612
  
  Exciton analysis of the transition density matrix
    Trans. dipole moment [D]:             1.832287
      Cartesian components [D]:         [  1.323064,  -1.267526,  -0.012489]
    <r_h> [Ang]:                        [ -1.559878,  -0.066125,   0.001680]
    <r_e> [Ang]:                        [ -1.561257,  -0.065436,   0.001345]
    |<r_e - r_h>| [Ang]:                  0.001577
    Hole size [Ang]:                      1.214114
      Cartesian components [Ang]:       [  0.649106,   0.636608,   0.804652]
    Electron size [Ang]:                  1.485448
      Cartesian components [Ang]:       [  0.863414,   0.839452,   0.869709]
    RMS electron-hole separation [Ang]:   1.936685
      Cartesian components [Ang]:       [  1.106585,   1.075181,   1.170557]
    Covariance(r_h, r_e) [Ang^2]:        -0.035058
    Correlation coefficient:             -0.019439
    Center-of-mass size [Ang]:            0.950067
      Cartesian components [Ang]:       [  0.526573,   0.515724,   0.599481]

  Decomposition into state-averaged NTOs
    H- 0 -> L+ 0:  0.6701 ( 89.8%)
    H- 2 -> L+ 5:  0.0839 (  1.4%)
                   omega =  95.4%
  ----------------------------------------------------------------------------


  Excited state 2 (singlet, A)                                     [converged]
  ----------------------------------------------------------------------------
  Term symbol:  3 (1) A                                     R^2 =  1.18609e-13

  Total energy:                                            -77.9830467055 a.u.
  Excitation energy:                                               9.108509 eV

  Osc. strength:                                                      0.000842
  Trans. dip. moment [a.u.]:           [  -0.007231,   -0.000382,    0.060998]
  <i|r^2|0> [a.u.]:                    [  -0.102470,   -0.090014,    0.149186]
  Two-photon absorption cross-section (SoS) [a.u.]:                   5.700814
  Two-photon absorption matrix (SoS) [a.u.]:
                                       |   -0.046333   -0.061913    0.500918 |
                                       |   -0.061913   -0.083690    0.667220 |
                                       |    0.500918    0.667220    0.127195 |
  Two-photon absorption cross-section [a.u.]:                         0.090246
  Two-photon absorption matrix [a.u.]:
                                       |    0.000162    0.004378    0.018376 |
                                       |    0.004378    0.008429   -0.104037 |
                                       |    0.018376   -0.104037   -0.011213 |

  Dip. moment [a.u.]:                  [   0.020816,    0.121745,    0.010369]
  Total dipole [Debye]:                                               0.315039
  <r^2> [a.u.]:                        [ 174.969898,   34.094031,   13.079955]
  Total <r^2> [a.u.]:                                               222.143883

  V1^2 = 0.9544, V2^2 = 0.0456

  Important amplitudes:
      occ i     occ j     vir a      vir b          v   
    -----------------------------------------------------
     7 (A) A              9 (A) A                 0.6604
     8 (A) A             11 (A) A                 0.1455
     8 (A) A             10 (A) A                -0.1119
     7 (A) A             20 (A) A                 0.0750
     5 (A) A   8 (A) B    9 (A) A    9 (A) B     -0.0312
     8 (A) A             16 (A) A                -0.0274
     8 (A) A             21 (A) A                 0.0178
     5 (A) A             28 (A) A                 0.0148
     8 (A) A             12 (A) A                 0.0147
     4 (A) A   7 (A) B    9 (A) A   19 (A) B     -0.0132
     5 (A) A   7 (A) B    9 (A) A   16 (A) B      0.0131
     7 (A) A   8 (A) B   20 (A) A   17 (A) B     -0.0104
     7 (A) A   8 (A) A    9 (A) A   28 (A) A     -0.0096
     5 (A) A   8 (A) B    9 (A) A   20 (A) B     -0.0095
     4 (A) A   6 (A) B    9 (A) A   16 (A) B     -0.0090
     5 (A) A   6 (A) A    9 (A) A   23 (A) A     -0.0089
     5 (A) A   6 (A) A    9 (A) A   14 (A) A     -0.0088
     5 (A) A   6 (A) B    9 (A) A   19 (A) B      0.0086
     8 (A) A   7 (A) B    9 (A) A   28 (A) B      0.0084
     4 (A) A   5 (A) A    9 (A) A   10 (A) A     -0.0083
     6 (A) A   7 (A) B    9 (A) A   18 (A) B     -0.0081
     3 (A) A   7 (A) B    9 (A) A   18 (A) B      0.0079
     5 (A) A   7 (A) A    9 (A) A   16 (A) A      0.0078
     5 (A) A   6 (A) B    9 (A) A   23 (A) B     -0.0078
     4 (A) A   8 (A) B    9 (A) A   25 (A) B     -0.0076
     8 (A) A             24 (A) A                -0.0074
     7 (A) A   8 (A) B   17 (A) A   20 (A) B     -0.0073
     4 (A) A   7 (A) B   19 (A) A    9 (A) B     -0.0072
     7 (A) A   8 (A) B   19 (A) A   18 (A) B     -0.0071
     5 (A) A   5 (A) B    9 (A) A   13 (A) B     -0.0070
     5 (A) A   8 (A) A    9 (A) A   20 (A) A     -0.0068
     4 (A) A   5 (A) B    9 (A) A   18 (A) B      0.0066
     7 (A) A   8 (A) B   17 (A) A    9 (A) B     -0.0064
     7 (A) A   7 (A) B   20 (A) A   22 (A) B     -0.0063
     5 (A) A   6 (A) B    9 (A) A   14 (A) B     -0.0063
     4 (A) A   5 (A) B   10 (A) A    9 (A) B      0.0061
     4 (A) A   7 (A) A    9 (A) A   19 (A) A     -0.0061
     4 (A) A   7 (A) B    9 (A) A   14 (A) B     -0.0059
     5 (A) A   7 (A) B   11 (A) A   20 (A) B     -0.0058
     6 (A) A   7 (A) A   19 (A) A   28 (A) A     -0.0057
    -----------------------------------------------------

  Density matrix analysis:
  ------------------------
  NOs
    Occupation of frontier NOs:
       0.9334   1.0778
    Number of electrons: 16.000000
    Number of unpaired electrons: n_u =  2.35307, n_u,nl =  2.08019
    NO participation ratio (PR_NO):  3.165108
  
  
  Mulliken Population Analysis
  Atom      Charge (e)              h+              e-           Del q
  --------------------------------------------------------------------
   1 H        0.133266        0.104398       -0.010387        0.094012
   2 C       -0.266190        0.263350       -0.449077       -0.185727
   3 H        0.126647        0.128807       -0.051697        0.077110
   4 C       -0.291091        0.281087       -0.464454       -0.183367
   5 H        0.168362        0.129823       -0.011039        0.118784
   6 H        0.129008        0.126034       -0.046845        0.079189
  --------------------------------------------------------------------
  Sum:        0.000000        1.033498       -1.033498       -0.000000
  
  Multipole moment analysis of the density matrix
    Molecular charge:                      0.000000
    Number of electrons:                   16.000000
      Center of electronic charge [Ang]: [ -1.563765,  -0.069629,   0.001635]
    Total nuclear charge:                  16.000000
      Center of nuclear charge [Ang]:    [ -1.563076,  -0.065602,   0.001978]
    Dipole moment [D]:                     0.315039
      Cartesian components [D]:          [  0.052908,   0.309444,   0.026356]
    RMS size of the density [Ang]:         1.199043
      Cartesian components [Ang]:        [  0.785446,   0.769323,   0.478456]
  
  Exciton analysis of the difference density matrix
    <r_h> [Ang]:                  [ -1.608064,  -0.055848,   0.000472]
    <r_e> [Ang]:                  [ -1.616370,  -0.117506,  -0.004184]
    |<r_e - r_h>| [Ang]:            0.062389
    Hole size [Ang]:                1.480024
      Cartesian components [Ang]: [  0.973761,   1.010899,   0.469408]
    Electron size [Ang]:            1.499842
      Cartesian components [Ang]: [  0.894074,   0.883851,   0.817903]

  Transition density matrix analysis:
  -----------------------------------
  
  CT numbers (Mulliken)
    omega =     0.9221
    <Phe> =    -0.0122
  
  Exciton analysis of the transition density matrix
    Trans. dipole moment [D]:             0.078065
      Cartesian components [D]:         [ -0.009189,  -0.000485,   0.077520]
    <r_h> [Ang]:                        [ -1.610948,  -0.051457,   0.000727]
    <r_e> [Ang]:                        [ -1.614783,  -0.124918,  -0.004679]
    |<r_e - r_h>| [Ang]:                  0.073759
    Hole size [Ang]:                      1.499886
      Cartesian components [Ang]:       [  0.989430,   1.030505,   0.456886]
    Electron size [Ang]:                  1.499366
      Cartesian components [Ang]:       [  0.889065,   0.875832,   0.831012]
    RMS electron-hole separation [Ang]:   2.103591
      Cartesian components [Ang]:       [  1.316912,   1.339002,   0.947581]
    Covariance(r_h, r_e) [Ang^2]:         0.039052
    Correlation coefficient:              0.017365
    Center-of-mass size [Ang]:            1.069563
      Cartesian components [Ang]:       [  0.671672,   0.683834,   0.474545]

  Decomposition into state-averaged NTOs
    H- 1 -> L+ 0: -0.6529 ( 85.3%)
    H- 0 -> L+ 2: -0.1513 (  4.6%)
    H- 0 -> L+ 1:  0.1009 (  2.0%)
                   omega =  92.2%
  ----------------------------------------------------------------------------


  Excited state 3 (singlet, A)                                     [converged]
  ----------------------------------------------------------------------------
  Term symbol:  4 (1) A                                     R^2 =  2.34539e-13

  Total energy:                                            -77.9797916833 a.u.
  Excitation energy:                                               9.197083 eV

  Osc. strength:                                                      0.025492
  Trans. dip. moment [a.u.]:           [   0.015291,    0.020571,   -0.335379]
  <i|r^2|0> [a.u.]:                    [   0.078942,   -0.008437,    0.026355]
  Two-photon absorption cross-section (SoS) [a.u.]:                   0.030295
  Two-photon absorption matrix (SoS) [a.u.]:
                                       |   -0.012934   -0.001264   -0.022399 |
                                       |   -0.001264    0.010817    0.054874 |
                                       |   -0.022399    0.054874    0.013844 |
  Two-photon absorption cross-section [a.u.]:                         0.031939
  Two-photon absorption matrix [a.u.]:
                                       |   -0.003344    0.003267   -0.045722 |
                                       |    0.003267    0.020434   -0.040296 |
                                       |   -0.045722   -0.040296   -0.003286 |

  Dip. moment [a.u.]:                  [   0.157288,   -0.016830,    0.005311]
  Total dipole [Debye]:                                               0.402296
  <r^2> [a.u.]:                        [ 181.585736,   40.440413,   11.074953]
  Total <r^2> [a.u.]:                                               233.101102

  V1^2 = 0.9590, V2^2 = 0.0410

  Important amplitudes:
      occ i     occ j     vir a      vir b          v   
    -----------------------------------------------------
     8 (A) A             10 (A) A                 0.6798
     7 (A) A              9 (A) A                 0.1134
     8 (A) A             24 (A) A                 0.0495
     8 (A) A             18 (A) A                -0.0296
     4 (A) A              9 (A) A                 0.0231
     8 (A) A   8 (A) B    9 (A) A   12 (A) B     -0.0210
     8 (A) A             15 (A) A                -0.0172
     8 (A) A   8 (A) B   10 (A) A   17 (A) B      0.0171
     5 (A) A   8 (A) B   11 (A) A   10 (A) B      0.0159
     7 (A) A   8 (A) B   13 (A) A   10 (A) B     -0.0138
     7 (A) A             20 (A) A                 0.0126
     6 (A) A   8 (A) A   10 (A) A   15 (A) A      0.0108
     4 (A) A   8 (A) B   12 (A) A   10 (A) B     -0.0107
     6 (A) A   8 (A) B   15 (A) A   10 (A) B     -0.0106
     7 (A) A   8 (A) B   22 (A) A   10 (A) B      0.0105
     4 (A) A   8 (A) A   10 (A) A   12 (A) A      0.0102
     7 (A) A   8 (A) A   10 (A) A   22 (A) A     -0.0096
     7 (A) A   8 (A) A   10 (A) A   13 (A) A      0.0096
     5 (A) A   8 (A) B   21 (A) A   10 (A) B      0.0093
     5 (A) A   8 (A) A   10 (A) A   11 (A) A     -0.0091
     6 (A) A   8 (A) A   10 (A) A   18 (A) A     -0.0087
     6 (A) A   8 (A) B   10 (A) A   10 (A) B     -0.0084
     5 (A) A   8 (A) A   10 (A) A   21 (A) A     -0.0079
     3 (A) A   4 (A) B   10 (A) A    9 (A) B     -0.0078
     7 (A) A   8 (A) A   12 (A) A   16 (A) A     -0.0077
     8 (A) A   8 (A) B    9 (A) A   23 (A) B      0.0074
     4 (A) A   8 (A) B   19 (A) A   10 (A) B      0.0073
     8 (A) A   8 (A) B   10 (A) A   28 (A) B      0.0072
     3 (A) A   8 (A) B   10 (A) A   10 (A) B      0.0071
     3 (A) A   8 (A) A   10 (A) A   24 (A) A     -0.0069
     3 (A) A   8 (A) B   10 (A) A   18 (A) B     -0.0068
     5 (A) A   8 (A) B   10 (A) A   11 (A) B      0.0068
     7 (A) A   8 (A) B   16 (A) A   12 (A) B      0.0067
     6 (A) A   8 (A) B   18 (A) A   10 (A) B      0.0066
     8 (A) A   8 (A) B    9 (A) A   19 (A) B      0.0065
     3 (A) A   6 (A) B   10 (A) A   28 (A) B      0.0061
     3 (A) A   8 (A) A   10 (A) A   18 (A) A     -0.0055
     3 (A) A   5 (A) B   10 (A) A   25 (A) B     -0.0055
     6 (A) A             28 (A) A                -0.0054
     5 (A) A   8 (A) B    9 (A) A    9 (A) B     -0.0054
    -----------------------------------------------------

  Density matrix analysis:
  ------------------------
  NOs
    Occupation of frontier NOs:
       0.9586   1.0080
    Number of electrons: 16.000000
    Number of unpaired electrons: n_u =  2.32168, n_u,nl =  2.03813
    NO participation ratio (PR_NO):  2.816350
  
  
  Mulliken Population Analysis
  Atom      Charge (e)              h+              e-           Del q
  --------------------------------------------------------------------
   1 H       -0.148145        0.055600       -0.242999       -0.187399
   2 C        0.330390        0.508604       -0.097751        0.410853
   3 H       -0.154928        0.055019       -0.259484       -0.204465
   4 C        0.315596        0.523068       -0.099748        0.423320
   5 H       -0.162123        0.058156       -0.269856       -0.211700
   6 H       -0.180790        0.053671       -0.284279       -0.230609
  --------------------------------------------------------------------
  Sum:        0.000000        1.254117       -1.254117       -0.000000
  
  Multipole moment analysis of the density matrix
    Molecular charge:                      0.000000
    Number of electrons:                   16.000000
      Center of electronic charge [Ang]: [ -1.568278,  -0.065046,   0.001803]
    Total nuclear charge:                  16.000000
      Center of nuclear charge [Ang]:    [ -1.563076,  -0.065602,   0.001978]
    Dipole moment [D]:                     0.402296
      Cartesian components [D]:          [  0.399787,  -0.042776,   0.013499]
    RMS size of the density [Ang]:         1.271202
      Cartesian components [Ang]:        [  0.847689,   0.838778,   0.440259]
  
  Exciton analysis of the difference density matrix
    <r_h> [Ang]:                  [ -1.567912,  -0.057165,   0.001953]
    <r_e> [Ang]:                  [ -1.632342,  -0.049505,   0.000250]
    |<r_e - r_h>| [Ang]:            0.064906
    Hole size [Ang]:                1.418776
      Cartesian components [Ang]: [  0.837324,   0.830899,   0.788304]
    Electron size [Ang]:            2.081760
      Cartesian components [Ang]: [  1.368052,   1.385174,   0.737191]

  Transition density matrix analysis:
  -----------------------------------
  
  CT numbers (Mulliken)
    omega =     0.9264
    <Phe> =    -0.0112
  
  Exciton analysis of the transition density matrix
    Trans. dipole moment [D]:             0.427467
      Cartesian components [D]:         [  0.019433,   0.026143,  -0.426224]
    <r_h> [Ang]:                        [ -1.557249,  -0.058676,   0.002121]
    <r_e> [Ang]:                        [ -1.651475,  -0.044642,  -0.000168]
    |<r_e - r_h>| [Ang]:                  0.095292
    Hole size [Ang]:                      1.222513
      Cartesian components [Ang]:       [  0.648597,   0.640330,   0.814763]
    Electron size [Ang]:                  2.274633
      Cartesian components [Ang]:       [  1.492011,   1.514947,   0.807959]
    RMS electron-hole separation [Ang]:   2.574026
      Cartesian components [Ang]:       [  1.621894,   1.637739,   1.145809]
    Covariance(r_h, r_e) [Ang^2]:         0.025985
    Correlation coefficient:              0.009344
    Center-of-mass size [Ang]:            1.296193
      Cartesian components [Ang]:       [  0.817295,   0.825860,   0.574543]

  Decomposition into state-averaged NTOs
    H- 0 -> L+ 1: -0.6694 ( 89.6%)
    H- 1 -> L+ 0: -0.1122 (  2.5%)
                   omega =  92.6%
  ----------------------------------------------------------------------------


  Excited state 4 (singlet, A)                                     [converged]
  ----------------------------------------------------------------------------
  Term symbol:  5 (1) A                                     R^2 =  2.68982e-13

  Total energy:                                            -77.9542605211 a.u.
  Excitation energy:                                               9.891821 eV

  Osc. strength:                                                      0.000258
  Trans. dip. moment [a.u.]:           [  -0.003011,   -0.000557,    0.032513]
  <i|r^2|0> [a.u.]:                    [  -0.005975,    0.028344,   -0.040568]
  Two-photon absorption cross-section (SoS) [a.u.]:                 156.497126
  Two-photon absorption matrix (SoS) [a.u.]:
                                       |    0.257556    0.326419   -2.681394 |
                                       |    0.326419    0.416072   -3.452405 |
                                       |   -2.681394   -3.452405   -0.673632 |
  Two-photon absorption cross-section [a.u.]:                        99.799266
  Two-photon absorption matrix [a.u.]:
                                       |    0.198447    0.259412   -2.081106 |
                                       |    0.259412    0.338953   -2.802680 |
                                       |   -2.081106   -2.802680   -0.537513 |

  Dip. moment [a.u.]:                  [  -0.108976,   -0.223281,   -0.019895]
  Total dipole [Debye]:                                               0.633532
  <r^2> [a.u.]:                        [ 179.084929,   42.177166,   10.753142]
  Total <r^2> [a.u.]:                                               232.015237

  V1^2 = 0.9636, V2^2 = 0.0364

  Important amplitudes:
      occ i     occ j     vir a      vir b          v   
    -----------------------------------------------------
     8 (A) A             11 (A) A                -0.6687
     7 (A) A              9 (A) A                 0.1466
     8 (A) A             21 (A) A                -0.0773
     8 (A) A             16 (A) A                 0.0623
     8 (A) A             12 (A) A                -0.0438
     8 (A) A             10 (A) A                -0.0211
     6 (A) A              9 (A) A                 0.0208
     8 (A) A   8 (A) B    9 (A) A   13 (A) B      0.0166
     5 (A) A   8 (A) B   11 (A) A   11 (A) B     -0.0155
     8 (A) A   8 (A) B   11 (A) A   17 (A) B     -0.0141
     7 (A) A             20 (A) A                 0.0134
     7 (A) A   8 (A) B   13 (A) A   11 (A) B      0.0128
     5 (A) A   8 (A) A   11 (A) A   21 (A) A      0.0109
     4 (A) A   8 (A) B   12 (A) A   11 (A) B      0.0106
     8 (A) A   8 (A) B    9 (A) A   22 (A) B     -0.0105
     7 (A) A   8 (A) A   11 (A) A   22 (A) A      0.0096
     8 (A) A             19 (A) A                -0.0093
     6 (A) A   8 (A) B   15 (A) A   11 (A) B      0.0091
     7 (A) A   8 (A) B   22 (A) A   11 (A) B     -0.0089
     6 (A) A   8 (A) B   10 (A) A   11 (A) B      0.0088
     3 (A) A   4 (A) B   11 (A) A    9 (A) B      0.0082
     6 (A) A   8 (A) A   11 (A) A   15 (A) A     -0.0082
     3 (A) A   8 (A) B   11 (A) A   18 (A) B      0.0080
     7 (A) A   8 (A) A   11 (A) A   13 (A) A     -0.0077
     7 (A) A   8 (A) A   13 (A) A   16 (A) A      0.0077
     5 (A) A   8 (A) B   21 (A) A   11 (A) B     -0.0071
     4 (A) A   8 (A) B   19 (A) A   11 (A) B     -0.0069
     5 (A) A   8 (A) B    9 (A) A    9 (A) B     -0.0066
     6 (A) A   8 (A) A   11 (A) A   18 (A) A      0.0063
     4 (A) A   8 (A) A   11 (A) A   12 (A) A     -0.0063
     8 (A) A             13 (A) A                 0.0061
     3 (A) A   6 (A) B   11 (A) A   28 (A) B     -0.0061
     6 (A) A   8 (A) B   18 (A) A   11 (A) B     -0.0059
     7 (A) A   8 (A) B   16 (A) A   13 (A) B     -0.0057
     3 (A) A   8 (A) A   11 (A) A   18 (A) A      0.0056
     5 (A) A   8 (A) B   10 (A) A   10 (A) B     -0.0055
     3 (A) A   5 (A) B   11 (A) A   25 (A) B      0.0054
     3 (A) A   8 (A) B   11 (A) A   30 (A) B      0.0054
     3 (A) A   8 (A) B   10 (A) A   11 (A) B     -0.0052
     6 (A) A   8 (A) B   11 (A) A   10 (A) B      0.0052
    -----------------------------------------------------

  Density matrix analysis:
  ------------------------
  NOs
    Occupation of frontier NOs:
       0.9424   1.0264
    Number of electrons: 16.000000
    Number of unpaired electrons: n_u =  2.31692, n_u,nl =  2.04772
    NO participation ratio (PR_NO):  2.900690
  
  
  Mulliken Population Analysis
  Atom      Charge (e)              h+              e-           Del q
  --------------------------------------------------------------------
   1 H       -0.126474        0.047746       -0.213474       -0.165728
   2 C        0.301226        0.494110       -0.112421        0.381690
   3 H       -0.155865        0.045109       -0.250512       -0.205402
   4 C        0.278342        0.503175       -0.117110        0.386065
   5 H       -0.234916        0.045851       -0.330345       -0.284494
   6 H       -0.062312        0.047857       -0.159987       -0.112131
  --------------------------------------------------------------------
  Sum:        0.000000        1.183848       -1.183848        0.000000
  
  Multipole moment analysis of the density matrix
    Molecular charge:                      0.000000
    Number of electrons:                   16.000000
      Center of electronic charge [Ang]: [ -1.559472,  -0.058218,   0.002636]
    Total nuclear charge:                  16.000000
      Center of nuclear charge [Ang]:    [ -1.563076,  -0.065602,   0.001978]
    Dipole moment [D]:                     0.633532
      Cartesian components [D]:          [ -0.276990,  -0.567523,  -0.050567]
    RMS size of the density [Ang]:         1.274885
      Cartesian components [Ang]:        [  0.838065,   0.857197,   0.433811]
  
  Exciton analysis of the difference density matrix
    <r_h> [Ang]:                  [ -1.562327,  -0.056521,   0.002208]
    <r_e> [Ang]:                  [ -1.511562,   0.043877,   0.011671]
    |<r_e - r_h>| [Ang]:            0.112901
    Hole size [Ang]:                1.395044
      Cartesian components [Ang]: [  0.815741,   0.809475,   0.790863]
    Electron size [Ang]:            2.126639
      Cartesian components [Ang]: [  1.299345,   1.538730,   0.683087]

  Transition density matrix analysis:
  -----------------------------------
  
  CT numbers (Mulliken)
    omega =     0.9300
    <Phe> =    -0.0129
  
  Exciton analysis of the transition density matrix
    Trans. dipole moment [D]:             0.041502
      Cartesian components [D]:         [ -0.003827,  -0.000708,   0.041319]
    <r_h> [Ang]:                        [ -1.562631,  -0.064583,   0.001531]
    <r_e> [Ang]:                        [ -1.502563,   0.065602,   0.013542]
    |<r_e - r_h>| [Ang]:                  0.143877
    Hole size [Ang]:                      1.227219
      Cartesian components [Ang]:       [  0.663401,   0.642461,   0.808214]
    Electron size [Ang]:                  2.267170
      Cartesian components [Ang]:       [  1.377973,   1.647153,   0.726730]
    RMS electron-hole separation [Ang]:   2.571531
      Cartesian components [Ang]:       [  1.522825,   1.764468,   1.086475]
    Covariance(r_h, r_e) [Ang^2]:         0.027027
    Correlation coefficient:              0.009714
    Center-of-mass size [Ang]:            1.294235
      Cartesian components [Ang]:       [  0.768510,   0.888164,   0.543693]

  Decomposition into state-averaged NTOs
    H- 0 -> L+ 2:  0.6571 ( 86.4%)
    H- 1 -> L+ 0: -0.1445 (  4.2%)
    H- 0 -> L+ 3:  0.0844 (  1.4%)
                   omega =  93.0%
  ----------------------------------------------------------------------------


  Excited state 5 (singlet, A)                                     [converged]
  ----------------------------------------------------------------------------
  Term symbol:  6 (1) A                                     R^2 =  4.63990e-13

  Total energy:                                            -77.9413217784 a.u.
  Excitation energy:                                              10.243902 eV

  Osc. strength:                                                      0.000058
  Trans. dip. moment [a.u.]:           [  -0.000675,   -0.001333,    0.015191]
[...]
    16   -1.580441982813e-03
    17   -1.750423341225e-03
    18   -6.889559026061e-04
    19   -3.086510956953e-03
    20    9.326516891096e-03
    21    9.375403980020e-01
    22   -6.943216358402e-05
    23    1.407833786820e-02
    24    8.305152301198e-04
    25    7.280757837314e-02
    26   -5.547044448975e-02
    27   -1.431835800518e+00
    28    1.016761346247e-01
    29   -8.991739779183e-02
    30   -6.224239706700e-04
    31    4.035589223730e-01
    32   -3.600033791114e-01
    33   -2.582900043633e-03
    34    1.609389830798e-02
    35   -1.492402872599e-03
    36   -1.904213127492e-03
    37    8.877935537196e-04
    38   -3.619249733237e-03
    39    7.399945862443e-03
    40    9.310564617123e-01
    41    1.796871318326e-04
    42   -1.406200187395e-02
    43   -8.352885307921e-04
    44    1.339711166621e-02
    45    9.940810804239e-01
    46    1.460179330366e-02
    47    8.274658429864e-04
    48    7.340022238259e-04
Sym=X
Ene= 0.234167
Spin=Alpha
Occup=0
     1    1.770591590078e-02
     2    1.054481527221e+00
     3   -1.229509327768e-02
     4   -2.311966560855e-03
     5   -7.335757500544e-04
     6   -1.373348333352e-02
     7    1.389516149763e-02
     8    2.046891184461e-01
     9   -1.372192219385e-01
    10   -1.638869909828e-01
    11   -1.640671534421e-02
    12   -5.105651164909e-01
    13   -5.935618484341e-01
    14   -6.017318275206e-02
    15   -2.503190201263e-03
    16    2.432605122652e-04
    17    3.184980908519e-04
    18   -3.564415782679e-04
    19    1.212858801546e-03
    20   -2.940076263862e-02
    21   -1.347377862474e+00
    22   -3.716828457756e-03
    23   -1.618632818557e-02
    24   -1.142445226394e-03
    25    1.705349072836e-02
    26   -1.556592502813e-02
    27   -3.147174653502e-01
    28   -1.394998285184e-01
    29   -1.709913584730e-01
    30   -1.682202558831e-02
    31   -4.871643686470e-01
    32   -6.101789163155e-01
    33   -5.945214701715e-02
    34    4.583129411694e-03
    35   -4.340138921139e-04
    36   -7.185197914372e-04
    37    2.005026180494e-03
    38   -2.382293752120e-03
    39    2.583867225325e-02
    40    1.394843230258e+00
    41   -4.139222958285e-03
    42   -1.758487174422e-02
    43   -1.244246015256e-03
    44   -1.976060810324e-02
    45   -9.679614490732e-01
    46   -1.073096889619e-02
    47   -1.769614232489e-03
    48   -6.172006668221e-04
Sym=X
Ene= 0.241242
Spin=Alpha
Occup=0
     1    1.504481231016e-02
     2    1.356617869969e+00
     3   -2.154544961856e-02
     4   -9.902925425577e-03
     5   -1.659607959418e-03
     6    8.662411022313e-02
     7   -7.840689218032e-02
     8   -1.668580885943e+00
     9   -7.992022607825e-02
    10    3.167005049863e-02
    11   -2.369224999343e-03
    12   -3.242449001914e-01
    13    1.232484191807e-01
    14   -1.004226429385e-02
    15    2.438585563982e-02
    16   -2.896942422128e-03
    17   -3.150767502846e-03
    18   -9.348296078645e-05
    19   -1.341168851219e-02
    20    9.001857524502e-03
    21    8.951879972534e-01
    22    8.441737477257e-03
    23    1.556486039399e-02
    24    1.307788015016e-03
    25   -8.254024456416e-02
    26    7.458306486881e-02
    27    1.539521652020e+00
    28   -8.459949833614e-02
    29    2.317884962554e-02
    30   -2.314091717428e-03
    31   -3.160069134376e-01
    32    9.228422889853e-02
    33   -8.050861887679e-03
    34   -2.187528487079e-02
    35    2.577604629667e-03
    36    2.827642362254e-03
    37    1.147005060489e-03
    38    1.236079004060e-02
    39   -1.429848193065e-02
    40   -8.234489500850e-01
    41    8.052244179242e-03
    42    1.396140444026e-02
    43    1.239245633106e-03
    44   -1.681427874704e-02
    45   -1.268610730629e+00
    46   -1.933329853119e-02
    47   -9.738167642312e-03
    48   -1.480764775046e-03
Sym=X
Ene= 0.303409
Spin=Alpha
Occup=0
     1   -2.524728652436e-02
     2    1.788980765574e+00
     3   -2.287059424628e-02
     4    2.051417522812e-04
     5   -1.108235045344e-03
     6    8.138372041626e-04
     7    3.072750675811e-04
     8   -9.209124442163e-02
     9   -1.318766365724e-01
    10   -1.400695744302e-01
    11   -1.475361669835e-02
    12   -1.156969826033e+00
    13   -1.218621522780e+00
    14   -1.284453592202e-01
    15    1.831996051906e-03
    16   -1.984056276402e-03
    17    1.536541664803e-03
    18   -3.269172786320e-02
    19   -3.073671465113e-03
    20    1.824655234187e-02
    21   -1.702716399980e+00
    22    2.097935357169e-03
    23   -2.235068731733e-02
    24   -1.218255001689e-03
    25   -2.851317076362e-04
    26   -1.020492931610e-03
    27    1.965292336932e-02
    28    1.320522967551e-01
    29    1.393199304261e-01
    30    1.454049107156e-02
    31    1.142985080087e+00
    32    1.187687221359e+00
    33    1.252972280151e-01
    34   -5.399624430546e-05
    35   -1.491635501827e-03
    36    1.834636005219e-03
    37   -3.081779877621e-02
    38   -1.491786749021e-03
    39    1.665529256855e-02
    40   -1.694353535860e+00
    41   -1.420934967229e-03
    42    2.269804806208e-02
    43    1.300014657503e-03
    44   -1.760625201069e-02
    45    1.682441440112e+00
    46    2.226160419084e-02
    47   -4.622036560768e-04
    48    1.011243217796e-03
Sym=X
Ene= 0.462276
Spin=Alpha
Occup=0
     1   -1.123926867477e-01
     2   -7.866770103078e-01
     3   -1.605673468668e-02
     4   -9.671586679245e-03
     5   -1.346693253511e-03
     6    5.956875856506e-02
     7    1.750651042337e-02
     8   -3.537622621016e+00
     9    1.017050100715e-01
    10   -9.642784358683e-02
    11   -5.731553132561e-04
    12    2.463206801931e+00
    13   -2.282579684912e+00
    14   -1.721876391986e-02
    15    5.321699119458e-02
    16   -3.427085311025e-03
    17   -4.857705121056e-03
    18    1.010628476110e-03
    19    1.620679230466e-02
    20   -1.229526840142e-01
    21   -6.798888432759e-01
    22    8.800260621703e-03
    23    1.707447286326e-02
    24    1.460166528889e-03
    25   -6.082879877074e-02
    26   -1.442322327963e-02
    27    3.584837087811e+00
    28    1.080596993846e-01
    29   -1.026456295157e-01
    30   -1.122425913390e-03
    31    2.406627230611e+00
    32   -2.301982123544e+00
    33   -2.334482840380e-02
    34   -5.246244865516e-02
    35    3.285471461328e-03
    36    4.403148567521e-03
    37    1.180505614895e-03
    38   -1.917352798058e-02
    39    1.142319291772e-01
    40    7.233579773383e-01
    41    8.311452302469e-03
    42    1.603761507539e-02
    43    1.336677750069e-03
    44    1.090210820339e-01
    45    7.132489842476e-01
    46   -1.568876401624e-02
    47   -9.719115859176e-03
    48   -1.329368723519e-03
Sym=X
Ene= 0.576699
Spin=Alpha
Occup=0
     1   -2.695907466938e-01
     2   -6.021505941677e-02
     3    1.207327951217e-02
     4   -2.088070858802e-02
     5   -6.460486731484e-04
     6    2.834321319736e-03
     7    1.501118718885e-01
     8    5.404630903525e-01
     9   -3.029202072387e-01
    10    2.826627205535e-01
    11    2.390789739094e-03
    12    7.347849177549e-01
    13   -6.355111615837e-01
    14   -2.309393102738e-03
    15    6.061055723575e-03
    16   -4.028487769511e-03
    17   -3.673221968228e-03
    18    2.114147740738e-03
    19   -6.035440740326e-02
    20   -2.412732962765e-01
    21   -1.324864473085e-02
    22    2.721482691702e-02
    23   -1.685116089662e-02
    24    3.280543444183e-04
    25    6.191621155766e-03
    26    1.548151463967e-01
    27    3.689831116775e-01
    28    2.933111144678e-01
    29   -2.822626213350e-01
    30   -2.777722864848e-03
    31   -7.903257959002e-01
    32    7.544600187151e-01
    33    7.302809649726e-03
    34    7.460830737557e-03
    35   -3.848051507321e-03
    36   -4.133794571882e-03
    37    7.690036037684e-03
    38   -5.995616044488e-02
    39   -2.680780635923e-01
    40   -4.547822148360e-02
    41   -2.619281516151e-02
    42    1.455805289067e-02
    43   -3.669057859047e-04
    44   -2.373286869595e-01
    45   -7.293595208745e-02
    46   -1.964460739091e-02
    47    2.756224127453e-02
    48    7.223205772637e-04
Sym=X
Ene= 0.617894
Spin=Alpha
Occup=0
     1   -4.750056221982e-01
     2    8.721206992533e-02
     3   -5.896676442414e-02
     4    3.961510449391e-02
     5   -5.179899180385e-04
     6    1.021222436691e-03
     7   -1.052044059380e-02
     8    1.890483827510e-03
     9   -4.432389572214e-02
    10   -5.004669801068e-02
    11   -5.098918170162e-03
    12    3.471839578153e-01
    13    3.261603532536e-01
    14    3.654132353589e-02
    15   -7.167695195783e-03
    16   -6.609887481389e-03
    17    9.012983456153e-03
    18   -1.437418193383e-01
    19   -2.230079528670e-03
    20    5.386806519831e-01
    21   -1.905266207356e-01
    22    3.961581386385e-02
    23   -6.002378541023e-02
    24   -1.606012004021e-03
    25    2.164515766246e-04
    26    3.207877900808e-03
    27    6.450558545139e-03
    28   -4.158855129272e-02
    29   -3.586285696258e-02
    30   -4.185572049792e-03
    31    3.280068603028e-01
    32    2.495227372460e-01
    33    3.020215237479e-02
    34   -3.238995941001e-03
    35    7.935223926221e-03
    36   -8.340153004715e-03
    37    1.509148428177e-01
    38    1.048750813853e-02
    39   -5.043764006012e-01
    40    2.270328907279e-01
    41    4.312362976110e-02
    42   -5.963644528139e-02
    43   -1.560802542959e-03
    44    5.392479369030e-01
    45   -2.002679221327e-01
    46   -6.243540439129e-02
    47    3.639997525344e-02
    48   -7.715784774696e-04
Sym=X
Ene= 0.689488
Spin=Alpha
Occup=0
     1    3.410041938664e-04
     2   -6.406191076572e-04
     3    1.556462378442e-03
     4    1.729449915427e-03
     5   -2.791874646850e-02
     6    1.809398792385e-05
     7    7.905688929242e-04
     8   -4.848806632869e-04
     9    3.216029307859e-02
    10    4.018045281583e-02
    11   -6.691748309143e-01
    12   -2.939339188820e-02
    13   -3.731709585364e-02
    14    6.154828350643e-01
    15   -1.337164644279e-03
    16    8.383073565232e-02
    17   -7.808986864155e-02
    18   -8.613380525949e-03
    19   -1.200631206651e-03
    20    2.572481351417e-04
    21   -4.044304613551e-04
    22    9.810547596971e-04
    23    1.054239281739e-03
    24   -2.052085384796e-02
    25    3.458638296886e-05
    26    6.615573961329e-04
    27   -2.517690023266e-04
    28    3.207646666249e-02
    29    3.972866622797e-02
    30   -6.704328809697e-01
    31   -2.903737234665e-02
    32   -3.645718442875e-02
    33    6.124061381417e-01
    34    9.909714259130e-04
    35   -8.267151854118e-02
    36    7.792831496424e-02
    37    8.649282149528e-03
    38    1.303954145926e-03
    39    5.406398412661e-04
    40   -1.681690753492e-04
    41    1.027692793692e-03
    42    1.423313691832e-03
    43   -2.108213469063e-02
    44    5.199160434625e-04
    45   -4.469630913424e-04
    46    8.299991689610e-04
    47    1.177982728689e-03
    48   -2.119835817751e-02
Sym=X
Ene= 0.712548
Spin=Alpha
Occup=0
     1   -4.431992630605e-01
     2    3.070851919147e-02
     3   -7.647245124013e-02
     4   -4.322631196376e-02
     5   -6.303489687641e-03
     6   -4.487698793242e-02
     7   -3.472188064690e-01
     8    5.304631933883e-01
     9    1.940865106837e-01
    10   -2.123311117974e-01
    11   -4.142751177151e-03
    12   -1.350859517034e-02
    13    1.224971576673e-01
    14    7.857794844851e-03
    15    1.857545352516e-01
    16   -2.004704230553e-02
    17   -2.319171842570e-02
    18    2.744255604730e-03
    19   -7.643650122000e-02
    20   -4.370833838037e-01
    21    1.582126158237e-01
    22    4.205832652407e-02
    23    7.813520542577e-02
    24    6.677759893173e-03
    25   -5.126112583453e-02
    26   -3.160950306987e-01
    27    4.933016163663e-01
    28   -2.011012993757e-01
    29    1.902964864078e-01
    30    9.898786960054e-04
    31    9.534563076021e-02
    32   -7.576549741783e-02
    33    7.771706703814e-04
    34    2.048573412740e-01
    35   -2.113260438253e-02
    36   -2.544497412982e-02
    37    8.539867066497e-03
    38   -7.570485208184e-02
    39   -5.182378216887e-01
    40    1.790753750200e-01
    41   -3.898244797485e-02
    42   -8.979948040257e-02
    43   -7.247983375200e-03
    44   -4.748155289028e-01
    45    1.617696763316e-01
    46    8.278194953034e-02
    47    4.728905600631e-02
    48    6.725220844521e-03
Sym=X
Ene= 0.790171
Spin=Alpha
Occup=0
     1   -5.335600541565e-01
     2    3.142261975084e-01
     3   -1.087943099180e-01
     4   -2.465445800145e-02
     5   -6.807688035456e-03
     6   -9.542770435299e-02
     7    1.663774624908e-01
     8    7.423024142116e-01
     9   -1.481046321380e-01
    10    6.188074014895e-02
    11   -5.623445135713e-03
    12   -1.913887228858e-01
    13    3.921560636732e-01
    14    1.846926232930e-02
    15    2.209142806472e-01
    16   -1.895158093042e-02
    17   -2.404314008242e-02
    18    1.212595283582e-02
    19   -1.120535279577e-02
    20   -5.558637105993e-01
    21    5.504733978098e-01
    22    2.434454798920e-02
    23    1.266348576020e-01
    24    8.686430372201e-03
    25    8.913802268058e-02
    26   -2.422206686596e-01
    27   -6.177126606816e-01
    28   -1.298529527982e-01
    29    1.162248261093e-01
    30    3.008818836321e-03
    31   -2.891123861169e-01
    32    2.826957150115e-01
    33   -1.113632789076e-03
    34   -1.969152042740e-01
    35    1.618665917138e-02
    36    2.085560177257e-02
    37   -1.667304838187e-03
    38    3.523857303183e-03
    39    4.990071653776e-01
    40   -4.596171526745e-01
    41    2.224255235664e-02
    42    1.079970655661e-01
    43    7.540526896206e-03
    44    5.282379239275e-01
    45   -4.501532570780e-01
    46   -1.078089400029e-01
    47   -2.032476228739e-02
    48   -6.269408057253e-03
Sym=X
Ene= 0.808150
Spin=Alpha
Occup=0
     1    1.424480945415e-03
     2   -7.364743749989e-04
     3    2.427193881744e-03
     4    2.411108274441e-03
     5   -4.157271870487e-02
     6    2.749030158284e-04
     7   -3.488587131263e-04
     8   -1.144801492553e-03
     9    3.758015026401e-02
    10    4.515792503277e-02
    11   -7.612030892133e-01
    12   -5.435915785041e-02
    13   -6.859001704987e-02
    14    1.128907212400e+00
    15    1.969191955360e-04
    16   -6.478813818044e-02
    17    6.167572983613e-02
    18    6.633039847102e-03
    19    8.159344629970e-04
    20    1.530504720169e-03
    21   -2.284507470621e-03
    22    1.627718163722e-03
    23    1.447319146233e-03
    24   -3.374413476624e-02
    25   -2.624320463608e-04
    26    7.522097589662e-04
    27    6.557176697392e-04
    28   -3.548801696904e-02
    29   -4.595279587459e-02
    30    7.629781185098e-01
    31    5.393156223666e-02
    32    6.632346266497e-02
    33   -1.127707510592e+00
    34    1.626821915004e-03
    35   -6.525778338577e-02
    36    6.100125284839e-02
    37    6.868451813890e-03
    38    1.119071691632e-03
    39   -1.320546777488e-03
    40    1.992072256268e-03
    41   -1.623973214735e-03
    42   -2.498766189295e-03
    43    3.412171922749e-02
    44   -1.430442617997e-03
    45    1.081250113737e-03
    46   -1.227733204233e-03
    47   -2.080310014533e-03
    48    3.368360839019e-02
Sym=X
Ene= 0.865092
Spin=Alpha
Occup=0
     1    2.117930435639e-02
     2   -1.080355363274e+00
     3    1.474477336487e-01
     4    5.541339637646e-02
     5    1.048062426003e-02
     6    6.588871790434e-03
     7    2.660702300900e-02
     8   -1.663009378453e-02
     9   -3.578767559562e-01
    10   -4.170705274720e-01
    11   -4.245547380688e-02
    12    8.792089294571e-01
    13    9.774738966485e-01
    14    1.013822856923e-01
    15   -2.024967901690e-02
    16    1.347065671519e-02
    17   -1.147607572246e-02
    18    2.347499994321e-01
    19    8.018295183384e-03
    20    2.214434801186e-02
    21    1.068427152744e+00
    22    5.072645846879e-02
    23    1.394024590178e-01
    24    1.069044657767e-02
    25   -3.872681806346e-03
    26    3.070446511528e-02
    27   -3.919199339675e-02
    28   -4.150734598237e-01
    29   -4.629458261722e-01
    30   -4.703706098519e-02
    31    9.905914572286e-01
    32    1.056945767284e+00
    33    1.095185647518e-01
    34    8.511186139437e-03
    35   -1.269325398537e-02
    36    1.353216809784e-02
    37   -2.449945809825e-01
    38   -4.961752956730e-03
    39    1.062320333059e-02
    40   -1.132673787221e+00
    41    4.820983383808e-02
    42    1.557312443051e-01
    43    1.162189266205e-02
    44   -4.154286287253e-02
    45    1.163782715754e+00
    46    1.629179876767e-01
    47    5.399605976165e-02
    48    1.093725552047e-02
Sym=X
Ene= 0.941090
Spin=Alpha
Occup=0
     1   -1.103240032788e-01
     2    1.264446726064e+00
     3   -1.795395360754e-01
     4    1.458434993186e-02
     5   -7.834167681322e-03
     6   -8.084412443498e-03
     7   -9.363722738494e-02
     8    5.550210448379e-02
     9    4.217766996069e-01
    10    5.666326583333e-01
    11    5.409624912934e-02
    12   -1.384458180758e+00
    13   -1.780237848544e+00
    14   -1.727805082546e-01
    15    2.460909982099e-02
    16   -7.244649315462e-03
    17    6.411058442721e-03
    18   -1.332527739041e-01
    19    2.426398547668e-02
    20    8.921817605638e-02
    21   -1.468300543105e+00
    22    9.889796308385e-04
    23   -1.966625802830e-01
    24   -1.161814692759e-02
    25    4.426729848487e-03
    26   -5.838330053081e-02
    27    1.834680194683e-01
    28   -4.991872334284e-01
    29   -4.366244051836e-01
    30   -4.978392057707e-02
    31    1.569377991462e+00
    32    1.422764569938e+00
    33    1.595263175751e-01
    34   -9.889776873017e-03
    35   -5.307015311133e-03
    36    5.838366343731e-03
    37   -9.972774528251e-02
    38   -2.732398001077e-02
    39    1.038949587554e-01
    40   -1.219918419757e+00
    41   -2.002496803477e-02
    42    1.747863257412e-01
    43    9.534512693012e-03
    44   -8.878813598383e-02
    45    1.270335681249e+00
    46    1.691150222101e-01
    47   -8.921899374740e-04
    48    7.895444584405e-03
Sym=X
Ene= 0.974239
Spin=Alpha
Occup=0
     1   -6.805353981371e-02
     2    1.067448705060e+00
     3   -1.066100997640e-01
     4   -9.822135681721e-02
     5   -1.111340374542e-02
     6    2.189725375581e-02
     7    1.673175882281e-01
     8    6.598332458558e-01
     9    5.117633465305e-01
    10   -3.833258725049e-01
    11    2.290643829956e-03
    12   -1.653474131256e+00
    13    1.184688703301e+00
    14   -1.026934015053e-02
    15   -4.406695949739e-02
    16   -1.445819267419e-02
    17   -9.143562909027e-03
    18   -7.549119687513e-03
    19   -2.950055370509e-01
    20   -6.225127521308e-02
    21    6.939670145193e-01
    22    9.169793549706e-02
    23    6.448226750806e-02
    24    8.119647565420e-03
    25   -2.413186091045e-02
    26   -3.149071977948e-01
    27   -4.093408446793e-01
    28    4.485307540466e-01
    29   -4.984101692105e-01
    30   -8.827788075707e-03
    31   -1.384535847320e+00
    32    1.590658040593e+00
    33    3.020008787386e-02
    34    5.019904542948e-02
    35    1.330279733940e-02
    36    1.058955261750e-02
    37   -1.749665173004e-02
    38    3.055581335800e-01
    39    7.290412886315e-02
    40   -1.073171950008e+00
    41    9.652682004222e-02
    42    1.162312747809e-01
    43    1.165193211001e-02
    44    7.311794653534e-02
    45   -8.672587846370e-01
    46   -8.657281914545e-02
    47   -1.027526136023e-01
    48   -1.016697842943e-02
[5D]

======= END OF MOLDEN-FORMATTED INPUT FILE =======


        *************************************************************
        *                                                           *
        *  Thank you very much for using Q-Chem.  Have a nice day.  *
        *                                                           *
        *************************************************************


