                  Welcome to Q-Chem
     A Quantum Leap Into The Future Of Chemistry


 Q-Chem 5.4 (devel), Q-Chem, Inc., Pleasanton, CA (2021)

 E. Epifanovsky,  A. T. B. Gilbert,  Xintian Feng,  Joonho Lee,  Yuezhi Mao,  
 N. Mardirossian,  P. Pokhilko,  A. White,  M. Wormit,  M. P. Coons,  
 A. L. Dempwolff,  Zhengting Gan,  D. Hait,  P. R. Horn,  L. D. Jacobson,  
 I. Kaliman,  J. Kussmann,  A. W. Lange,  Ka Un Lao,  D. S. Levine,  Jie Liu,  
 S. C. McKenzie,  A. F. Morrison,  K. Nanda,  F. Plasser,  D. R. Rehn,  
 M. L. Vidal,  Zhi-Qiang You,  Ying Zhu,  B. Alam,  B. Albrecht,  
 A. Aldossary,  E. Alguire,  J. H. Andersen,  D. Barton,  K. Begam,  A. Behn,  
 Y. A. Bernard,  E. J. Berquist,  H. Burton,  A. Carreras,  K. Carter-Fenk,  
 R. Chakraborty,  A. D. Chien,  K. D. Closser,  V. Cofer-Shabica,  
 S. Dasgupta,  Jia Deng,  M. de Wergifosse,  M. Diedenhofen,  Hainam Do,  
 S. Ehlert,  Po-Tung Fang,  S. Fatehi,  Qingguo Feng,  T. Friedhoff,  
 J. Gayvert,  Qinghui Ge,  G. Gidofalvi,  M. Goldey,  J. Gomes,  
 C. Gonzalez-Espinoza,  S. Gulania,  A. Gunina,  M. W. D. Hanson-Heine,  
 P. H. P. Harbach,  A. W. Hauser,  M. F. Herbst,  M. Hernandez Vera,  
 M. Hodecker,  Z. C. Holden,  S. Houck,  Xunkun Huang,  Kerwin Hui,  
 B. C. Huynh,  M. Ivanov,  Hyunjun Ji,  Hanjie Jiang,  B. Kaduk,  S. Kaehler,  
 K. Khistyaev,  Jaehoon Kim,  P. Klunzinger,  Z. Koczor-Benda,  
 Joong Hoon Koh,  D. Kosenkov,  L. Koulias,  T. Kowalczyk,  C. M. Krauter,  
 K. Kue,  A. Kunitsa,  T. Kus,  A. Landau,  K. V. Lawler,  D. Lefrancois,  
 S. Lehtola,  Rain Li,  Yi-Pei Li,  Jiashu Liang,  M. Liebenthal,  
 Hung-Hsuan Lin,  You-Sheng Lin,  Fenglai Liu,  Kuan-Yu Liu,  
 M. Loipersberger,  A. Luenser,  A. Manjanath,  P. Manohar,  E. Mansoor,  
 S. F. Manzer,  Shan-Ping Mao,  A. V. Marenich,  T. Markovich,  S. Mason,  
 S. A. Maurer,  P. F. McLaughlin,  M. F. S. J. Menger,  J.-M. Mewes,  
 S. A. Mewes,  P. Morgante,  J. W. Mullinax,  K. J. Oosterbaan,  G. Paran,  
 Alexander C. Paul,  Suranjan K. Paul,  F. Pavosevic,  Zheng Pei,  S. Prager,  
 E. I. Proynov,  E. Ramos,  B. Rana,  A. E. Rask,  A. Rettig,  R. M. Richard,  
 F. Rob,  E. Rossomme,  T. Scheele,  M. Scheurer,  M. Schneider,  
 N. Sergueev,  S. M. Sharada,  W. Skomorowski,  D. W. Small,  C. J. Stein,  
 Yu-Chuan Su,  E. J. Sundstrom,  Zhen Tao,  J. Thirman,  T. Tsuchimochi,  
 N. M. Tubman,  S. P. Veccham,  O. Vydrov,  J. Wenzel,  J. Witte,  A. Yamada,  
 Kun Yao,  S. Yeganeh,  S. R. Yost,  A. Zech,  Igor Ying Zhang,  Xing Zhang,  
 Yu Zhang,  D. Zuev,  A. Aspuru-Guzik,  A. T. Bell,  N. A. Besley,  
 K. B. Bravaya,  B. R. Brooks,  D. Casanova,  Jeng-Da Chai,  S. Coriani,  
 C. J. Cramer,  A. E. DePrince, III,  R. A. DiStasio Jr.,  A. Dreuw,  
 B. D. Dunietz,  T. R. Furlani,  W. A. Goddard III,  S. Grimme,  
 S. Hammes-Schiffer,  T. Head-Gordon,  W. J. Hehre,  Chao-Ping Hsu,  
 T.-C. Jagau,  Yousung Jung,  A. Klamt,  Jing Kong,  D. S. Lambrecht,  
 WanZhen Liang,  N. J. Mayhall,  C. W. McCurdy,  J. B. Neaton,  
 C. Ochsenfeld,  J. A. Parkhill,  R. Peverati,  V. A. Rassolov,  Yihan Shao,  
 L. V. Slipchenko,  T. Stauch,  R. P. Steele,  J. E. Subotnik,  
 A. J. W. Thom,  A. Tkatchenko,  D. G. Truhlar,  T. Van Voorhis,  
 T. A. Wesolowski,  K. B. Whaley,  H. L. Woodcock III,  P. M. Zimmerman,  
 S. Faraji,  P. M. W. Gill,  M. Head-Gordon,  J. M. Herbert,  A. I. Krylov

 Additional authors for Version 5.4.1: 
 S. Kotaru,  Shaozhi Li,  Xiangyuan Li,  F. Matz,  A. Molle,  Haisheng Ren,  
 Yingli Su,  Hung-Yi Tsai,  C. Utku,  Fang Wang

 Contributors to earlier versions of Q-Chem not listed above: 
 R. D. Adamson,  B. Austin,  R. Baer,  J. Baker,  G. J. O. Beran,  
 K. Brandhorst,  S. T. Brown,  E. F. C. Byrd,  A. K. Chakraborty,  
 G. K. L. Chan,  Chun-Min Chang,  Yunqing Chen,  C.-L. Cheng,  
 Siu Hung Chien,  D. M. Chipman,  D. L. Crittenden,  H. Dachsel,  
 R. J. Doerksen,  A. D. Dutoi,  R. G. Edgar,  J. Fosso-Tande,  
 L. Fusti-Molnar,  D. Ghosh,  A. Ghysels,  A. Golubeva-Zadorozhnaya,  
 J. Gonthier,  M. S. Gordon,  S. R. Gwaltney,  G. Hawkins,  J. E. Herr,  
 A. Heyden,  S. Hirata,  E. G. Hohenstein,  G. Kedziora,  F. J. Keil,  
 C. Kelley,  Jihan Kim,  R. A. King,  R. Z. Khaliullin,  P. P. Korambath,  
 W. Kurlancheek,  A. Laurent,  A. M. Lee,  M. S. Lee,  S. V. Levchenko,  
 Ching Yeh Lin,  D. Liotard,  E. Livshits,  R. C. Lochan,  I. Lotan,  
 L. A. Martinez-Martinez,  P. E. Maslen,  N. Nair,  D. P. O'Neill,  
 D. Neuhauser,  E. Neuscamman,  C. M. Oana,  R. Olivares-Amaya,  R. Olson,  
 T. M. Perrine,  B. Peters,  P. A. Pieniazek,  A. Prociuk,  Y. M. Rhee,  
 J. Ritchie,  M. A. Rohrdanz,  E. Rosta,  N. J. Russ,  H. F. Schaefer III,  
 M. W. Schmidt,  N. E. Schultz,  S. Sharma,  N. Shenvi,  C. D. Sherrill,  
 A. C. Simmonett,  A. Sodt,  T. Stein,  D. Stuck,  K. S. Thanthiriwatte,  
 V. Vanovschi,  L. Vogt,  Tao Wang,  A. Warshel,  M. A. Watson,  
 C. F. Williams,  Q. Wu,  X. Xu,  Jun Yang,  W. Zhang,  Yan Zhao

 Please cite Q-Chem as follows:
 Y. Shao et al., Mol. Phys. 113, 184-215 (2015)
 DOI: 10.1080/00268976.2014.952696

 Q-Chem 5.4.1 for Intel X86 EM64T Linux

 Parts of Q-Chem use Armadillo 9.800.1 (Horizon Scraper).
 http://arma.sourceforge.net/

 Q-Chem begins on Thu Nov 17 00:22:07 2022  

 Host: cpu316.baobab
0

     Scratch files written to /scratch/fum/qchem15131//
 Processing $rem in /home/share/wesolowski/qc5.aug2021.FDE/config/preferences:
 Processing $rem in /home/fum/.qchemrc:

 Checking the input file for inconsistencies... 	...done.

--------------------------------------------------------------
User input:
--------------------------------------------------------------
$comment
generated from CCJob.Templates
$end

$rem
sym_ignore = true
method = adc(2)
ee_states = 10
basis = cc-pVDZ
mem_static = 1024
mem_total = 30000
adc_davidson_maxiter = 900
adc_davidson_conv = 6
adc_print = 3
adc_prop_es = true
adc_prop_es2es = true
adc_prop_tpa = true
molden_format = True
state_analysis = true
print_orbitals = 15
gen_scfman = false
fde_export_density = true
fde_details = 3
$end

$molecule
0 1
H -0.0348278765 -0.2442097827 0.0636489606
C -1.0765972949 -0.5192748755 -0.0023551776
H -1.313264467 -1.5767591607 -0.0757276926
C -2.043634118 0.3926884087 0.0061254933
H -1.8137616575 1.4459188338 0.0804456828
H -3.085977293 0.114931858 -0.0593381042                     
$end
--------------------------------------------------------------
 ----------------------------------------------------------------
             Standard Nuclear Orientation (Angstroms)
    I     Atom           X                Y                Z
 ----------------------------------------------------------------
    1      H      -0.0348278765    -0.2442097827     0.0636489606
    2      C      -1.0765972949    -0.5192748755    -0.0023551776
    3      H      -1.3132644670    -1.5767591607    -0.0757276926
    4      C      -2.0436341180     0.3926884087     0.0061254933
    5      H      -1.8137616575     1.4459188338     0.0804456828
    6      H      -3.0859772930     0.1149318580    -0.0593381042
 ----------------------------------------------------------------
 Nuclear Repulsion Energy =          33.45536861 hartrees
 There are        8 alpha and        8 beta electrons
 Requested basis set is cc-pVDZ
 There are 24 shells and 48 basis functions
 Total memory of 30000 MB is distributed as follows: 
   MEM_STATIC is set to 1024 MB
   QALLOC/CCMAN JOB total memory use is  28976 MB
 Warning: actual memory use might exceed 30000 MB

 Total QAlloc Memory Limit  30000 MB
 Mega-Array Size      1001 MB
 MEM_STATIC part      1024 MB

                       Distance Matrix (Angstroms)
             H (  1)   C (  2)   H (  3)   C (  4)   H (  5)
   C (  2)  1.079491
   H (  3)  1.851895  1.086125
   C (  4)  2.108139  1.329251  2.102109
   H (  5)  2.453859  2.100537  3.067812  1.080583
   H (  6)  3.074674  2.107860  2.450428  1.080700  1.846510

 A cutoff of  1.0D-11 yielded    300 shell pairs
 There are      1220 function pairs (      1329 Cartesian)
 Smallest overlap matrix eigenvalue = 4.74E-03

 Scale SEOQF with 1.000000e-01/1.000000e-01/1.000000e+00

 Standard Electronic Orientation quadrupole field applied
 Nucleus-field energy     =     0.0000000022 hartrees
 Guess from superposition of atomic densities
 Warning:  Energy on first SCF cycle will be non-variational
 SAD guess density has 16.000000 electrons
 A restricted Hartree-Fock SCF calculation will be
 performed using Pulay DIIS extrapolation
 SCF converges when DIIS error is below 1.0E-08
 using 8 threads for integral computing
 -------------------------------------------------------
 OpenMP Integral computing Module                
 Release: version 1.0, May 2013, Q-Chem Inc. Pittsburgh 
 -------------------------------------------------------
 ---------------------------------------
  Cycle       Energy         DIIS Error
 ---------------------------------------
    1     -78.4432083615      1.01E-01
    2     -78.0177333838      7.23E-03
    3     -78.0383909576      1.85E-03
    4     -78.0398780053      5.79E-04
    5     -78.0400019595      5.81E-05
    6     -78.0400038379      9.63E-06
    7     -78.0400038996      2.85E-06
    8     -78.0400039032      1.10E-06
    9     -78.0400039037      1.08E-07
   10     -78.0400039037      2.53E-08
   11     -78.0400039037      7.03E-09 Convergence criterion met
 ---------------------------------------
 SCF time:  CPU 2.67 s  wall 2.22 s
 SCF   energy in the final basis set = -78.04000390
 Total energy in the final basis set = -78.04000390
Exporting Density Matrix to file 'Densmat_SCF.txt'.
Export successful
================================================================================
|                                                                              |
|                                 A D C  M A N                                 |
|                                                                              |
 ------------------------------------------------------------------------------ 
|                                                                              |
| Components:                                                                  |
|                                                                              |
| - libvmm - 1.3-trunk                                                         |
|   Authors:                                                                   |
|   Evgeny Epifanovsky, Ilya Kaliman                                           |
|                                                                              |
| - libtensor - 2.5-trunk                                                      |
|   Authors:                                                                   |
|   Evgeny Epifanovsky, Michael Wormit, Dmitry Zuev, Sam Manzer,               |
|   Ilya Kaliman                                                               |
|                                                                              |
| - libwfa - 1.1-trunk                                                         |
|   Authors:                                                                   |
|   Felix Plasser, Stefanie Mewes (Baeppler), Benjamin Thomitzni,              |
|   Michael Wormit, Feng Chen, Anna I. Krylov, Pavel Pokhilko                  |
|                                                                              |
| - libadc - 1.1-trunk                                                         |
|   Authors:                                                                   |
|   Michael Wormit, Adrian L. Dempwolff, Philipp H. P. Harbach,                |
|   Caroline Krauter, Dirk Rehn, Matthias Schneider, Jan Wenzel                |
|                                                                              |
| - adcman - 2.6-trunk                                                         |
|   Authors:                                                                   |
|   Michael Wormit, Adrian L. Dempwolff, Philipp H. P. Harbach,                |
|   Caroline Krauter, Daniel Lefrancois, Jan-Michael Mewes, Dirk Rehn,         |
|   Matthias Schneider, Jan Wenzel, Andreas Dreuw                              |
|                                                                              |
| Authors of earlier versions of ADCMAN:                                       |
| Andreas Dreuw, Jan Hendrik Starcke, Dirk Rehn, Michael Wormit                |
|                                                                              |
================================================================================

 Created directory /scratch/fum/qchem15131/plots
  Import QC data ...  CPU 0.00 s  wall 0.00 s

 Alpha MOs, Restricted
 -- Occupied --                  
-11.235 -11.233  -1.033  -0.789  -0.641  -0.583  -0.504  -0.375
  1 A     2 A     3 A     4 A     5 A     6 A     7 A     8 A                  
 -- Virtual --                   
  0.169   0.204   0.233   0.239   0.303   0.463   0.577   0.615
  9 A    10 A    11 A    12 A    13 A    14 A    15 A    16 A                  
  0.688   0.709   0.785   0.808   0.861   0.936   0.974   1.009
 17 A    18 A    19 A    20 A    21 A    22 A    23 A    24 A                  
  1.130   1.236   1.254   1.267   1.294   1.600   1.728   1.751
 25 A    26 A    27 A    28 A    29 A    30 A    31 A    32 A                  
  1.819   1.861   1.867   1.922   1.975   1.979   2.224   2.260
 33 A    34 A    35 A    36 A    37 A    38 A    39 A    40 A                  
  2.376   2.453   2.507   2.636   2.718   2.822   3.138   3.402
 41 A    42 A    43 A    44 A    45 A    46 A    47 A    48 A                  

 Beta MOs, Restricted
 -- Occupied --                  
-11.235 -11.233  -1.033  -0.789  -0.641  -0.583  -0.504  -0.375
  1 A     2 A     3 A     4 A     5 A     6 A     7 A     8 A                  
 -- Virtual --                   
  0.169   0.204   0.233   0.239   0.303   0.463   0.577   0.615
  9 A    10 A    11 A    12 A    13 A    14 A    15 A    16 A                  
  0.688   0.709   0.785   0.808   0.861   0.936   0.974   1.009
 17 A    18 A    19 A    20 A    21 A    22 A    23 A    24 A                  
  1.130   1.236   1.254   1.267   1.294   1.600   1.728   1.751
 25 A    26 A    27 A    28 A    29 A    30 A    31 A    32 A                  
  1.819   1.861   1.867   1.922   1.975   1.979   2.224   2.260
 33 A    34 A    35 A    36 A    37 A    38 A    39 A    40 A                  
  2.376   2.453   2.507   2.636   2.718   2.822   3.138   3.402
 41 A    42 A    43 A    44 A    45 A    46 A    47 A    48 A                  
  Import AO data ...  CPU 0.00 s  wall 0.00 s
  Using point group: C1
  Irreducible representations in point group: A
  Molecular orbitals: 
  Occupied MOs:
  Block   0:   1 (  A) A   2 (  A) A   3 (  A) A   4 (  A) A   5 (  A) A
                  -11.23      -11.23      -1.033     -0.7892      -0.641
               6 (  A) A   7 (  A) A   8 (  A) A
                 -0.5827     -0.5035     -0.3749
  Block   1:   1 (  A) B   2 (  A) B   3 (  A) B   4 (  A) B   5 (  A) B
                  -11.23      -11.23      -1.033     -0.7892      -0.641
               6 (  A) B   7 (  A) B   8 (  A) B
                 -0.5827     -0.5035     -0.3749
  Virtual MOs:
  Block   0:   9 (  A) A  10 (  A) A  11 (  A) A  12 (  A) A  13 (  A) A
                  0.1692      0.2037      0.2327      0.2393      0.3035
              14 (  A) A  15 (  A) A  16 (  A) A  17 (  A) A  18 (  A) A
                  0.4628       0.577       0.615      0.6884      0.7086
              19 (  A) A  20 (  A) A  21 (  A) A  22 (  A) A
                  0.7853      0.8083      0.8615       0.936
  Block   1:  23 (  A) A  24 (  A) A  25 (  A) A  26 (  A) A  27 (  A) A
                  0.9742       1.009        1.13       1.236       1.254
              28 (  A) A  29 (  A) A  30 (  A) A  31 (  A) A  32 (  A) A
                   1.267       1.294         1.6       1.728       1.751
              33 (  A) A  34 (  A) A  35 (  A) A  36 (  A) A
                   1.819       1.861       1.867       1.922
  Block   2:  37 (  A) A  38 (  A) A  39 (  A) A  40 (  A) A  41 (  A) A
                   1.975       1.979       2.224        2.26       2.376
              42 (  A) A  43 (  A) A  44 (  A) A  45 (  A) A  46 (  A) A
                   2.453       2.507       2.636       2.718       2.822
              47 (  A) A  48 (  A) A
                   3.138       3.402
  Block   3:   9 (  A) B  10 (  A) B  11 (  A) B  12 (  A) B  13 (  A) B
                  0.1692      0.2037      0.2327      0.2393      0.3035
              14 (  A) B  15 (  A) B  16 (  A) B  17 (  A) B  18 (  A) B
                  0.4628       0.577       0.615      0.6884      0.7086
              19 (  A) B  20 (  A) B  21 (  A) B  22 (  A) B
                  0.7853      0.8083      0.8615       0.936
  Block   4:  23 (  A) B  24 (  A) B  25 (  A) B  26 (  A) B  27 (  A) B
                  0.9742       1.009        1.13       1.236       1.254
              28 (  A) B  29 (  A) B  30 (  A) B  31 (  A) B  32 (  A) B
                   1.267       1.294         1.6       1.728       1.751
              33 (  A) B  34 (  A) B  35 (  A) B  36 (  A) B
                   1.819       1.861       1.867       1.922
  Block   5:  37 (  A) B  38 (  A) B  39 (  A) B  40 (  A) B  41 (  A) B
                   1.975       1.979       2.224        2.26       2.376
              42 (  A) B  43 (  A) B  44 (  A) B  45 (  A) B  46 (  A) B
                   2.453       2.507       2.636       2.718       2.822
              47 (  A) B  48 (  A) B
                   3.138       3.402
  Import MO data ...  CPU 0.24 s  wall 0.06 s
  Import HF data ...  CPU 0.61 s  wall 0.15 s
  Import 2e integrals ...  CPU 0.63 s  wall 0.10 s

--------------------------------------------------------------------------------
                                   HF Summary                                   
--------------------------------------------------------------------------------
  Energy:                                                  -78.0400039037 a.u.
  Dip. moment [a.u.]:                  [  -0.000068,    0.001237,    0.000688]
  Total dipole [Debye]:                                               0.003603
  <r^2> [a.u.]:                        [ 175.314019,   34.821422,   11.619107]
  Total <r^2> [a.u.]:                                               221.754548
--------------------------------------------------------------------------------
  HF properties ...  CPU 0.01 s  wall 0.01 s
  MP(1) calculation ...  CPU 0.08 s  wall 0.01 s
  N^6 prerequesite intermediates ...  CPU 0.36 s  wall 0.06 s
  Difference density matrix of state mp2_gs printed to ASCII file 'State_mp2_gs_Difference.txt'
Exporting MP density matrix to file 'Densmat_MP.txt'.
Export successful
  Total density matrix of state mp2_gs printed to ASCII file 'State_mp2_gs_Total.txt'
Exporting MP density matrix to file 'Densmat_MP.txt'.
Export successful

--------------------------------------------------------------------------------
                                 MP(2) Summary                                  
--------------------------------------------------------------------------------
  MP energy contribution:                                   -0.2795559222 a.u.
  Total energy:                                            -78.3195598259 a.u.
  Dip. moment [a.u.]:                  [  -0.000210,    0.001014,    0.000660]
  Total dipole [Debye]:                                               0.003121
  <r^2> [a.u.]:                        [ 175.361267,   34.861048,   11.453030]
  Total <r^2> [a.u.]:                                               221.675346

  Density matrix analysis:
  ------------------------
  NOs
    Occupation of frontier NOs:
       0.0450   1.9385
    Number of electrons: 16.000000
    Number of unpaired electrons: n_u =  0.40278, n_u,nl =  0.04484
    NO participation ratio (PR_NO): 13.889226
  
  
  Mulliken Population Analysis
  Atom      Charge (e)              h+              e-           Del q
  --------------------------------------------------------------------
   1 H        0.050550        0.014043       -0.011206        0.002837
   2 C       -0.102080        0.093052       -0.098664       -0.005613
   3 H        0.051088        0.014051       -0.011195        0.002856
   4 C       -0.099834        0.092639       -0.098557       -0.005918
   5 H        0.049770        0.014137       -0.011176        0.002961
   6 H        0.050505        0.014068       -0.011191        0.002877
  --------------------------------------------------------------------
  Sum:        0.000000        0.241990       -0.241990        0.000000
  
  Multipole moment analysis of the density matrix
    Molecular charge:                      -0.000000
    Number of electrons:                   16.000000
      Center of electronic charge [Ang]: [ -1.560569,  -0.063761,   0.001956]
    Total nuclear charge:                  16.000000
      Center of nuclear charge [Ang]:    [ -1.560576,  -0.063727,   0.001978]
    Dipole moment [D]:                     0.003121
      Cartesian components [D]:          [ -0.000534,   0.002577,   0.001678]
    RMS size of the density [Ang]:         1.200112
      Cartesian components [Ang]:        [  0.796089,   0.778502,   0.447710]
  
  Exciton analysis of the difference density matrix
    <r_h> [Ang]:                  [ -1.560494,  -0.064679,   0.001807]
    <r_e> [Ang]:                  [ -1.560183,  -0.064190,   0.001868]
    |<r_e - r_h>| [Ang]:            0.000583
    Hole size [Ang]:                1.392669
      Cartesian components [Ang]: [  0.846210,   0.834170,   0.726371]
    Electron size [Ang]:            1.359745
      Cartesian components [Ang]: [  0.878475,   0.861254,   0.579165]
--------------------------------------------------------------------------------
  MP(2) calculation ...  CPU 0.16 s  wall 0.13 s
  Start ADC(2)-s ...  CPU 0.01 s  wall 0.00 s
  ADC(2) intermediates ...  CPU 0.14 s  wall 0.03 s
  Starting Davidson for singlet states of irrep A ... 
--------------------------------------------------------------------------------
   It NVec Conv  Avg. Norm  Max. Norm  Conv. states           Remark
--------------------------------------------------------------------------------
        10    0  1.330e-01  4.692e-01  0.4126 n n n n n n n n Guess.
    1   20    0  2.314e-02  1.105e-01  0.3273 n n n n n n n n 
    2   30    0  5.985e-03  2.887e-02  0.3226 n n n n n n n n 
    3   40    0  2.168e-03  1.609e-02  0.3222 n n n n n n n n 
    4   50    0  6.440e-04  4.983e-03  0.3222 n n n n n n n n 
    5   20    0  2.836e-04  2.165e-03  0.3222 n n n n n n n n Subspace collapsed.
    6   30    0  2.364e-04  2.231e-03  0.3222 n n n n n n n n 
    7   40    0  1.308e-04  1.263e-03  0.3222 n n n n n n n n 
    8   50    0  2.261e-04  2.239e-03  0.3222 n n n n n n n n 
    9   20    2  1.297e-04  1.260e-03  0.3222 n y n y n n n n Subspace collapsed.
   10   30    4  1.292e-04  1.282e-03  0.3222 n y y y n y n n 
   11   40    5  1.177e-04  1.175e-03  0.3222 n y y y y y n n 
   12   50    6  1.476e-04  1.476e-03  0.3222 y y y y y y n n 
   13   20    7  7.219e-05  7.218e-04  0.3222 y y y y y y n y Subspace collapsed.
   14   30    7  7.226e-05  7.225e-04  0.3222 y y y y y y n y 
   15   40    8  5.223e-05  5.222e-04  0.3222 y y y y y y n y 
   16   50    7  8.773e-05  8.773e-04  0.3222 y y y y y y n y 
   17   20    8  3.687e-05  3.687e-04  0.3222 y y y y y y n y Subspace collapsed.
   18   30    8  4.309e-05  4.309e-04  0.3222 y y y y y y n y 
   19   40    9  3.426e-05  3.426e-04  0.3222 y y y y y y y y 
   20   50    9  5.249e-05  5.249e-04  0.3222 y y y y y y y y 
   21   20    9  1.968e-05  1.968e-04  0.3222 y y y y y y y y Subspace collapsed.
   22   30    9  2.101e-05  2.101e-04  0.3222 y y y y y y y y 
   23   40    9  1.200e-05  1.200e-04  0.3222 y y y y y y y y 
   24   48    9  1.852e-05  1.852e-04  0.3222 y y y y y y y y 
   25   50    9  1.907e-05  1.907e-04  0.3222 y y y y y y y y 
   26   15    9  7.529e-06  7.529e-05  0.3222 y y y y y y y y Subspace collapsed.
   27   20    9  1.262e-05  1.262e-04  0.3222 y y y y y y y y 
   28   25    9  9.288e-06  9.288e-05  0.3222 y y y y y y y y 
   29   29    9  1.318e-05  1.318e-04  0.3222 y y y y y y y y 
   30   33    9  1.047e-05  1.047e-04  0.3222 y y y y y y y y 
   31   37    9  5.652e-06  5.652e-05  0.3222 y y y y y y y y 
   32   37    9  5.652e-06  5.652e-05  0.3222 y y y y y y y y 
   33   47    9  2.962e-06  2.962e-05  0.3222 y y y y y y y y 
   34   50    9  1.545e-06  1.545e-05  0.3222 y y y y y y y y 
   35   14    9  8.730e-07  8.730e-06  0.3222 y y y y y y y y Subspace collapsed.
   36   18    9  6.283e-07  6.283e-06  0.3222 y y y y y y y y 
   37   22    9  3.180e-07  3.180e-06  0.3222 y y y y y y y y 
   38   26    9  2.007e-07  2.007e-06  0.3222 y y y y y y y y 
   39   30    9  1.235e-07  1.235e-06  0.3222 y y y y y y y y 
   40   34   10  9.362e-08  9.362e-07  0.3222 y y y y y y y y Converged.
--------------------------------------------------------------------------------
  Davidson Summary: 
 ------------------------------------------------------------
  State  0: excitation energy =   0.3222 a.u.   (converged)
  State  1: excitation energy =   0.3326 a.u.   (converged)
  State  2: excitation energy =   0.3375 a.u.   (converged)
  State  3: excitation energy =   0.3614 a.u.   (converged)
  State  4: excitation energy =   0.3761 a.u.   (converged)
  State  5: excitation energy =   0.3882 a.u.   (converged)
  State  6: excitation energy =   0.4239 a.u.   (converged)
  State  7: excitation energy =   0.4477 a.u.   (converged)
  State  8: excitation energy =   0.4570 a.u.   (converged)
  State  9: excitation energy =   0.4636 a.u.   (converged)
 ------------------------------------------------------------

  Singlet states of irrep A ...  CPU 126.53 s  wall 40.61 s
  TDMs ...  CPU 1.45 s  wall 0.53 s
  SDMs ...  CPU 3.11 s  wall 0.84 s
  Starting TPA DIIS iterations ... 
------------------------------------ 
   It     Res. Norm  Remark
------------------------------------
                       Guess.
    1     4.377e+00  
    2     5.787e+00  
    3     1.071e+00  
    4     2.534e-01  
    5     6.466e-02  
    6     2.638e-02  
    7     8.159e-03  
    8     1.433e-03  
    9     5.341e-04  
   10     8.964e-05  
   11     2.816e-05  
   12     4.365e-06  
   13     1.437e-06  
   14     4.397e-07  Converged.
   ... Converged in 14 steps (norm: 4.39712e-07)
------------------------------------
  Starting TPA DIIS iterations ... 
------------------------------------ 
   It     Res. Norm  Remark
------------------------------------
                       Guess.
    1     4.129e+00  
    2     5.456e+00  
    3     1.024e+00  
    4     2.544e-01  
    5     6.432e-02  
    6     2.662e-02  
    7     8.064e-03  
    8     1.474e-03  
    9     5.445e-04  
   10     9.068e-05  
   11     2.891e-05  
   12     4.389e-06  
   13     1.461e-06  
   14     4.332e-07  Converged.
   ... Converged in 14 steps (norm: 4.33163e-07)
------------------------------------
  Starting TPA DIIS iterations ... 
------------------------------------ 
   It     Res. Norm  Remark
------------------------------------
                       Guess.
    1     6.878e-01  
    2     4.827e-01  
    3     1.703e-01  
    4     6.035e-02  
    5     1.831e-02  
    6     6.630e-03  
    7     1.044e-03  
    8     4.506e-04  
    9     1.271e-04  
   10     2.777e-05  
   11     6.775e-06  
   12     2.033e-06  
   13     1.411e-06  
   14     5.792e-07  Converged.
   ... Converged in 14 steps (norm: 5.79244e-07)
------------------------------------
  Starting TPA DIIS iterations ... 
------------------------------------ 
   It     Res. Norm  Remark
------------------------------------
                       Guess.
    1     4.630e+00  
    2     6.240e+00  
    3     1.143e+00  
    4     2.783e-01  
    5     7.193e-02  
    6     2.957e-02  
    7     9.132e-03  
    8     1.602e-03  
    9     6.011e-04  
   10     1.014e-04  
   11     3.213e-05  
   12     5.021e-06  
   13     1.666e-06  
   14     5.101e-07  Converged.
   ... Converged in 14 steps (norm: 5.10105e-07)
------------------------------------
  Starting TPA DIIS iterations ... 
------------------------------------ 
   It     Res. Norm  Remark
------------------------------------
                       Guess.
    1     4.366e+00  
    2     5.882e+00  
    3     1.092e+00  
    4     2.793e-01  
    5     7.156e-02  
    6     2.987e-02  
    7     9.031e-03  
    8     1.649e-03  
    9     6.129e-04  
   10     1.026e-04  
   11     3.297e-05  
   12     5.045e-06  
   13     1.690e-06  
   14     5.021e-07  Converged.
   ... Converged in 14 steps (norm: 5.02051e-07)
------------------------------------
  Starting TPA DIIS iterations ... 
------------------------------------ 
   It     Res. Norm  Remark
------------------------------------
                       Guess.
    1     6.985e-01  
    2     4.982e-01  
    3     1.791e-01  
    4     6.737e-02  
    5     1.956e-02  
    6     7.180e-03  
    7     1.163e-03  
    8     5.216e-04  
    9     1.501e-04  
   10     3.095e-05  
   11     7.697e-06  
   12     2.369e-06  
   13     1.730e-06  
   14     7.147e-07  Converged.
   ... Converged in 14 steps (norm: 7.14709e-07)
------------------------------------
  Starting TPA DIIS iterations ... 
------------------------------------ 
   It     Res. Norm  Remark
------------------------------------
                       Guess.
    1     4.757e+00  
    2     6.471e+00  
    3     1.179e+00  
    4     2.913e-01  
    5     7.570e-02  
    6     3.123e-02  
    7     9.637e-03  
    8     1.690e-03  
    9     6.360e-04  
   10     1.075e-04  
   11     3.423e-05  
   12     5.367e-06  
   13     1.788e-06  
   14     5.476e-07  Converged.
   ... Converged in 14 steps (norm: 5.47561e-07)
------------------------------------
  Starting TPA DIIS iterations ... 
------------------------------------ 
   It     Res. Norm  Remark
------------------------------------
                       Guess.
    1     4.486e+00  
    2     6.100e+00  
    3     1.126e+00  
    4     2.922e-01  
    5     7.531e-02  
    6     3.156e-02  
    7     9.533e-03  
    8     1.740e-03  
    9     6.485e-04  
   10     1.088e-04  
   11     3.511e-05  
   12     5.392e-06  
   13     1.813e-06  
   14     5.387e-07  Converged.
   ... Converged in 14 steps (norm: 5.38746e-07)
------------------------------------
  Starting TPA DIIS iterations ... 
------------------------------------ 
   It     Res. Norm  Remark
------------------------------------
                       Guess.
    1     7.037e-01  
    2     5.058e-01  
    3     1.834e-01  
    4     7.107e-02  
    5     2.019e-02  
    6     7.465e-03  
    7     1.226e-03  
    8     5.595e-04  
    9     1.623e-04  
   10     3.228e-05  
   11     8.182e-06  
   12     2.550e-06  
   13     1.908e-06  
   14     7.913e-07  Converged.
   ... Converged in 14 steps (norm: 7.91267e-07)
------------------------------------
  Starting TPA DIIS iterations ... 
------------------------------------ 
   It     Res. Norm  Remark
------------------------------------
                       Guess.
    1     5.468e+00  
    2     7.791e+00  
    3     1.379e+00  
    4     3.676e-01  
    5     9.790e-02  
    6     4.113e-02  
    7     1.262e-02  
    8     2.204e-03  
    9     8.437e-04  
   10     1.441e-04  
   11     4.697e-05  
   12     7.476e-06  
   13     2.550e-06  
   14     7.809e-07  Converged.
   ... Converged in 14 steps (norm: 7.80908e-07)
------------------------------------
  Starting TPA DIIS iterations ... 
------------------------------------ 
   It     Res. Norm  Remark
------------------------------------
                       Guess.
    1     5.154e+00  
    2     7.343e+00  
    3     1.316e+00  
    4     3.680e-01  
    5     9.745e-02  
    6     4.167e-02  
    7     1.250e-02  
    8     2.274e-03  
    9     8.604e-04  
   10     1.459e-04  
   11     4.809e-05  
   12     7.502e-06  
   13     2.569e-06  
   14     7.683e-07  Converged.
   ... Converged in 14 steps (norm: 7.68346e-07)
------------------------------------
  Starting TPA DIIS iterations ... 
------------------------------------ 
   It     Res. Norm  Remark
------------------------------------
                       Guess.
    1     7.300e-01  
    2     5.462e-01  
    3     2.072e-01  
    4     9.353e-02  
    5     2.364e-02  
    6     9.151e-03  
    7     1.614e-03  
    8     7.887e-04  
    9     2.351e-04  
   10     3.672e-05  
   11     1.116e-05  
   12     3.697e-06  
   13     3.100e-06  
   14     1.323e-06  
   15     5.057e-07  Converged.
   ... Converged in 15 steps (norm: 5.05677e-07)
------------------------------------
  Starting TPA DIIS iterations ... 
------------------------------------ 
   It     Res. Norm  Remark
------------------------------------
                       Guess.
    1     5.997e+00  
    2     8.809e+00  
    3     1.527e+00  
    4     4.287e-01  
    5     1.157e-01  
    6     4.917e-02  
    7     1.501e-02  
    8     2.615e-03  
    9     1.012e-03  
   10     1.738e-04  
   11     5.754e-05  
   12     9.229e-06  
   13     3.205e-06  
   14     9.834e-07  Converged.
   ... Converged in 14 steps (norm: 9.83402e-07)
------------------------------------
  Starting TPA DIIS iterations ... 
------------------------------------ 
   It     Res. Norm  Remark
------------------------------------
                       Guess.
    1     5.652e+00  
    2     8.301e+00  
    3     1.456e+00  
    4     4.288e-01  
    5     1.152e-01  
    6     4.988e-02  
    7     1.488e-02  
    8     2.701e-03  
    9     1.032e-03  
   10     1.760e-04  
   11     5.881e-05  
   12     9.256e-06  
   13     3.212e-06  
   14     9.694e-07  Converged.
   ... Converged in 14 steps (norm: 9.69394e-07)
------------------------------------
  Starting TPA DIIS iterations ... 
------------------------------------ 
   It     Res. Norm  Remark
------------------------------------
                       Guess.
    1     7.473e-01  
    2     5.742e-01  
    3     2.243e-01  
    4     1.122e-01  
    5     2.625e-02  
    6     1.051e-02  
    7     1.941e-03  
    8     9.675e-04  
    9     2.911e-04  
   10     3.806e-05  
   11     1.372e-05  
   12     4.711e-06  
   13     4.214e-06  
   14     1.840e-06  
   15     6.813e-07  Converged.
   ... Converged in 15 steps (norm: 6.81346e-07)
------------------------------------
  Starting TPA DIIS iterations ... 
------------------------------------ 
   It     Res. Norm  Remark
------------------------------------
                       Guess.
    1     6.496e+00  
    2     9.793e+00  
    3     1.665e+00  
    4     4.895e-01  
    5     1.333e-01  
    6     5.722e-02  
    7     1.739e-02  
    8     3.022e-03  
    9     1.181e-03  
   10     2.035e-04  
   11     6.825e-05  
   12     1.101e-05  
   13     3.884e-06  
   14     1.199e-06  
   15     4.781e-07  Converged.
   ... Converged in 15 steps (norm: 4.78058e-07)
------------------------------------
  Starting TPA DIIS iterations ... 
------------------------------------ 
   It     Res. Norm  Remark
------------------------------------
                       Guess.
    1     6.121e+00  
    2     9.228e+00  
    3     1.588e+00  
    4     4.891e-01  
    5     1.328e-01  
    6     5.812e-02  
    7     1.724e-02  
    8     3.125e-03  
    9     1.204e-03  
   10     2.061e-04  
   11     6.964e-05  
   12     1.104e-05  
   13     3.871e-06  
   14     1.185e-06  
   15     3.585e-07  Converged.
   ... Converged in 15 steps (norm: 3.58473e-07)
------------------------------------
  Starting TPA DIIS iterations ... 
------------------------------------ 
   It     Res. Norm  Remark
------------------------------------
                       Guess.
    1     7.620e-01  
    2     5.992e-01  
    3     2.400e-01  
    4     1.311e-01  
    5     2.878e-02  
    6     1.187e-02  
    7     2.280e-03  
    8     1.131e-03  
    9     3.431e-04  
   10     3.928e-05  
   11     1.642e-05  
   12     5.793e-06  
   13     5.435e-06  
   14     2.424e-06  
   15     8.917e-07  Converged.
   ... Converged in 15 steps (norm: 8.91674e-07)
------------------------------------
  Starting TPA DIIS iterations ... 
------------------------------------ 
   It     Res. Norm  Remark
------------------------------------
                       Guess.
    1     8.444e+00  
    2     1.385e+01  
    3     2.198e+00  
    4     7.513e-01  
    5     2.095e-01  
    6     9.262e-02  
    7     2.764e-02  
    8     4.767e-03  
    9     1.920e-03  
   10     3.336e-04  
   11     1.152e-04  
   12     1.887e-05  
   13     6.999e-06  
   14     2.296e-06  
   15     1.013e-06  
   16     3.765e-07  Converged.
   ... Converged in 16 steps (norm: 3.76528e-07)
------------------------------------
  Starting TPA DIIS iterations ... 
------------------------------------ 
   It     Res. Norm  Remark
------------------------------------
                       Guess.
    1     7.954e+00  
    2     1.305e+01  
    3     2.094e+00  
    4     7.482e-01  
    5     2.089e-01  
    6     9.443e-02  
    7     2.744e-02  
    8     4.942e-03  
    9     1.955e-03  
   10     3.377e-04  
   11     1.168e-04  
   12     1.899e-05  
   13     6.788e-06  
   14     2.310e-06  
   15     6.603e-07  Converged.
   ... Converged in 15 steps (norm: 6.60346e-07)
------------------------------------
  Starting TPA DIIS iterations ... 
------------------------------------ 
   It     Res. Norm  Remark
------------------------------------
                       Guess.
    1     8.096e-01  
    2     6.875e-01  
    3     2.978e-01  
    4     2.136e-01  
    5     3.938e-02  
    6     1.771e-02  
    7     3.839e-03  
    8     1.623e-03  
    9     5.317e-04  
   10     5.431e-05  
   11     2.969e-05  
   12     1.124e-05  
   13     1.155e-05  
   14     5.578e-06  
   15     2.350e-06  
   16     1.088e-06  
   17     3.119e-07  Converged.
   ... Converged in 17 steps (norm: 3.1194e-07)
------------------------------------
  Starting TPA DIIS iterations ... 
------------------------------------ 
   It     Res. Norm  Remark
------------------------------------
                       Guess.
    1     1.032e+01  
    2     1.804e+01  
    3     2.698e+00  
    4     1.032e+00  
    5     2.919e-01  
    6     1.319e-01  
    7     3.874e-02  
    8     6.645e-03  
    9     2.737e-03  
   10     4.760e-04  
   11     1.649e-04  
   12     2.761e-05  
   13     1.053e-05  
   14     3.800e-06  
   15     1.798e-06  
   16     7.084e-07  Converged.
   ... Converged in 16 steps (norm: 7.08418e-07)
------------------------------------
  Starting TPA DIIS iterations ... 
------------------------------------ 
   It     Res. Norm  Remark
------------------------------------
                       Guess.
    1     9.721e+00  
    2     1.700e+01  
    3     2.568e+00  
    4     1.026e+00  
    5     2.913e-01  
    6     1.348e-01  
    7     3.850e-02  
    8     6.899e-03  
    9     2.783e-03  
   10     4.817e-04  
   11     1.664e-04  
   12     2.809e-05  
   13     9.916e-06  
   14     3.872e-06  
   15     1.106e-06  
   16     7.883e-07  Converged.
   ... Converged in 16 steps (norm: 7.88338e-07)
------------------------------------
  Starting TPA DIIS iterations ... 
------------------------------------ 
   It     Res. Norm  Remark
------------------------------------
                       Guess.
    1     8.451e-01  
    2     7.622e-01  
    3     3.494e-01  
    4     2.985e-01  
    5     5.052e-02  
    6     2.369e-02  
    7     5.598e-03  
    8     1.858e-03  
    9     6.958e-04  
   10     8.083e-05  
   11     4.633e-05  
   12     1.852e-05  
   13     1.878e-05  
   14     9.818e-06  
   15     4.743e-06  
   16     2.110e-06  
   17     7.524e-07  Converged.
   ... Converged in 17 steps (norm: 7.52385e-07)
------------------------------------
  Starting TPA DIIS iterations ... 
------------------------------------ 
   It     Res. Norm  Remark
------------------------------------
                       Guess.
    1     1.124e+01  
    2     2.017e+01  
    3     2.937e+00  
    4     1.177e+00  
    5     3.348e-01  
    6     1.526e-01  
    7     4.451e-02  
    8     7.619e-03  
    9     3.166e-03  
   10     5.503e-04  
   11     1.900e-04  
   12     3.228e-05  
   13     1.246e-05  
   14     4.708e-06  
   15     2.310e-06  
   16     9.243e-07  Converged.
   ... Converged in 16 steps (norm: 9.24299e-07)
------------------------------------
  Starting TPA DIIS iterations ... 
------------------------------------ 
   It     Res. Norm  Remark
------------------------------------
                       Guess.
    1     1.058e+01  
    2     1.900e+01  
    3     2.795e+00  
    4     1.168e+00  
    5     3.342e-01  
    6     1.561e-01  
    7     4.425e-02  
    8     7.913e-03  
    9     3.218e-03  
   10     5.568e-04  
   11     1.914e-04  
   12     3.308e-05  
   13     1.157e-05  
   14     4.802e-06  
   15     1.433e-06  
   16     1.063e-06  
   17     6.114e-07  Converged.
   ... Converged in 17 steps (norm: 6.11359e-07)
------------------------------------
  Starting TPA DIIS iterations ... 
------------------------------------ 
   It     Res. Norm  Remark
------------------------------------
                       Guess.
    1     8.600e-01  
    2     7.959e-01  
    3     3.733e-01  
    4     3.390e-01  
    5     5.619e-02  
    6     2.658e-02  
    7     6.510e-03  
    8     1.919e-03  
    9     7.719e-04  
   10     9.536e-05  
   11     5.569e-05  
   12     2.294e-05  
   13     2.263e-05  
   14     1.225e-05  
   15     6.217e-06  
   16     2.748e-06  
   17     1.071e-06  
   18     4.005e-07  Converged.
   ... Converged in 18 steps (norm: 4.0049e-07)
------------------------------------
  Starting TPA DIIS iterations ... 
------------------------------------ 
   It     Res. Norm  Remark
------------------------------------
                       Guess.
    1     1.197e+01  
    2     2.192e+01  
    3     3.127e+00  
    4     1.296e+00  
    5     3.703e-01  
    6     1.698e-01  
    7     4.929e-02  
    8     8.424e-03  
    9     3.524e-03  
   10     6.118e-04  
   11     2.105e-04  
   12     3.622e-05  
   13     1.413e-05  
   14     5.523e-06  
   15     2.796e-06  
   16     1.128e-06  
   17     7.451e-07  Converged.
   ... Converged in 17 steps (norm: 7.45058e-07)
------------------------------------
  Starting TPA DIIS iterations ... 
------------------------------------ 
   It     Res. Norm  Remark
------------------------------------
                       Guess.
    1     1.127e+01  
    2     2.065e+01  
    3     2.975e+00  
    4     1.285e+00  
    5     3.697e-01  
    6     1.738e-01  
    7     4.901e-02  
    8     8.752e-03  
    9     3.580e-03  
   10     6.190e-04  
   11     2.118e-04  
   12     3.736e-05  
   13     1.299e-05  
   14     5.626e-06  
   15     1.762e-06  
   16     1.323e-06  
   17     7.594e-07  Converged.
   ... Converged in 17 steps (norm: 7.59364e-07)
------------------------------------
  Starting TPA DIIS iterations ... 
------------------------------------ 
   It     Res. Norm  Remark
------------------------------------
                       Guess.
    1     8.710e-01  
    2     8.219e-01  
    3     3.920e-01  
    4     3.701e-01  
    5     6.081e-02  
    6     2.883e-02  
    7     7.257e-03  
    8     1.956e-03  
    9     8.316e-04  
   10     1.073e-04  
   11     6.375e-05  
   12     2.695e-05  
   13     2.590e-05  
   14     1.434e-05  
   15     7.535e-06  
   16     3.323e-06  
   17     1.369e-06  
   18     4.831e-07  Converged.
   ... Converged in 18 steps (norm: 4.83109e-07)
------------------------------------
  Two-photon absorbption ...  CPU 110.59 s  wall 28.70 s
  Transition density matrix of state singlet_A_1 printed to ASCII file 'State_singlet_A_1_Transition.txt'
  Transition density matrix of state singlet_A_2 printed to ASCII file 'State_singlet_A_2_Transition.txt'
  Transition density matrix of state singlet_A_3 printed to ASCII file 'State_singlet_A_3_Transition.txt'
  Transition density matrix of state singlet_A_4 printed to ASCII file 'State_singlet_A_4_Transition.txt'
  Transition density matrix of state singlet_A_5 printed to ASCII file 'State_singlet_A_5_Transition.txt'
  Transition density matrix of state singlet_A_6 printed to ASCII file 'State_singlet_A_6_Transition.txt'
  Transition density matrix of state singlet_A_7 printed to ASCII file 'State_singlet_A_7_Transition.txt'
  Transition density matrix of state singlet_A_8 printed to ASCII file 'State_singlet_A_8_Transition.txt'
  Transition density matrix of state singlet_A_9 printed to ASCII file 'State_singlet_A_9_Transition.txt'
  Transition density matrix of state singlet_A_10 printed to ASCII file 'State_singlet_A_10_Transition.txt'
  Transition properties ...  CPU 0.15 s  wall 0.28 s
  Difference density matrix of state singlet_A_1 printed to ASCII file 'State_singlet_A_1_Difference.txt'
  Total density matrix of state singlet_A_1 printed to ASCII file 'State_singlet_A_1_Total.txt'
  Difference density matrix of state singlet_A_2 printed to ASCII file 'State_singlet_A_2_Difference.txt'
  Total density matrix of state singlet_A_2 printed to ASCII file 'State_singlet_A_2_Total.txt'
  Difference density matrix of state singlet_A_3 printed to ASCII file 'State_singlet_A_3_Difference.txt'
  Total density matrix of state singlet_A_3 printed to ASCII file 'State_singlet_A_3_Total.txt'
  Difference density matrix of state singlet_A_4 printed to ASCII file 'State_singlet_A_4_Difference.txt'
  Total density matrix of state singlet_A_4 printed to ASCII file 'State_singlet_A_4_Total.txt'
  Difference density matrix of state singlet_A_5 printed to ASCII file 'State_singlet_A_5_Difference.txt'
  Total density matrix of state singlet_A_5 printed to ASCII file 'State_singlet_A_5_Total.txt'
  Difference density matrix of state singlet_A_6 printed to ASCII file 'State_singlet_A_6_Difference.txt'
  Total density matrix of state singlet_A_6 printed to ASCII file 'State_singlet_A_6_Total.txt'
  Difference density matrix of state singlet_A_7 printed to ASCII file 'State_singlet_A_7_Difference.txt'
  Total density matrix of state singlet_A_7 printed to ASCII file 'State_singlet_A_7_Total.txt'
  Difference density matrix of state singlet_A_8 printed to ASCII file 'State_singlet_A_8_Difference.txt'
  Total density matrix of state singlet_A_8 printed to ASCII file 'State_singlet_A_8_Total.txt'
  Difference density matrix of state singlet_A_9 printed to ASCII file 'State_singlet_A_9_Difference.txt'
  Total density matrix of state singlet_A_9 printed to ASCII file 'State_singlet_A_9_Total.txt'
  Difference density matrix of state singlet_A_10 printed to ASCII file 'State_singlet_A_10_Difference.txt'
  Total density matrix of state singlet_A_10 printed to ASCII file 'State_singlet_A_10_Total.txt'
  Properties ...  CPU 0.26 s  wall 0.52 s
  ISR TDMS ...  CPU 19.99 s  wall 5.92 s
  ISR transition properties ...  CPU 0.33 s  wall 0.12 s
  Sum-over-states TPA ...  CPU 0.00 s  wall 0.00 s

--------------------------------------------------------------------------------
                   State-averaged natural transition orbitals
--------------------------------------------------------------------------------
--------------------------------------------------------------------------------
  SA-NTO decomposition ...  CPU 0.01 s  wall 0.04 s

--------------------------------------------------------------------------------
                             Excited State Summary
--------------------------------------------------------------------------------
--------------------------------------------------------------------------------

  Excited state 1 (singlet, A)                                     [converged]
  ----------------------------------------------------------------------------
  Term symbol:  2 (1) A                                     R^2 =  2.72523e-13

  Total energy:                                            -77.9973749442 a.u.
  Excitation energy:                                               8.767097 eV

  Osc. strength:                                                      0.447160
  Trans. dip. moment [a.u.]:           [  -1.046461,    0.993316,    0.009558]
  <i|r^2|0> [a.u.]:                    [  -6.173999,    0.243730,    0.000505]
  Two-photon absorption cross-section (SoS) [a.u.]:                   0.000845
  Two-photon absorption matrix (SoS) [a.u.]:
                                       |   -0.005527    0.005818    0.001036 |
                                       |    0.005818    0.007761    0.000912 |
                                       |    0.001036    0.000912   -0.006354 |
  Two-photon absorption cross-section [a.u.]:                         0.000980
  Two-photon absorption matrix [a.u.]:
                                       |   -0.007080    0.004178   -0.000304 |
                                       |    0.004178    0.010124   -0.001511 |
                                       |   -0.000304   -0.001511   -0.006771 |

  Dip. moment [a.u.]:                  [  -0.000299,    0.000767,    0.000779]
  Total dipole [Debye]:                                               0.002881
  <r^2> [a.u.]:                        [ 176.120281,   35.548098,   11.867947]
  Total <r^2> [a.u.]:                                               223.536326

  V1^2 = 0.9715, V2^2 = 0.0285

  Important amplitudes:
      occ i     occ j     vir a      vir b          v   
    -----------------------------------------------------
     8 (A) A              9 (A) A                 0.6811
     6 (A) A             14 (A) A                 0.0616
     4 (A) A             10 (A) A                 0.0609
     7 (A) A             16 (A) A                -0.0572
     5 (A) A             13 (A) A                 0.0516
     6 (A) A             23 (A) A                 0.0485
     8 (A) A             20 (A) A                -0.0348
     6 (A) A             19 (A) A                 0.0302
     3 (A) A             12 (A) A                -0.0281
     5 (A) A             22 (A) A                -0.0216
     7 (A) A             11 (A) A                -0.0206
     4 (A) A             24 (A) A                 0.0188
     3 (A) A             26 (A) A                 0.0186
     8 (A) A   8 (A) B   17 (A) A   20 (A) B      0.0183
     8 (A) A   8 (A) B    9 (A) A   28 (A) B     -0.0168
     6 (A) A             26 (A) A                 0.0164
     7 (A) A             21 (A) A                -0.0149
     3 (A) A             14 (A) A                 0.0139
     6 (A) A             12 (A) A                 0.0138
     3 (A) A   4 (A) B    9 (A) A    9 (A) B     -0.0129
     3 (A) A             19 (A) A                 0.0118
     8 (A) A   8 (A) B   18 (A) A   19 (A) B     -0.0112
     7 (A) A             32 (A) A                -0.0096
     7 (A) A             36 (A) A                 0.0086
     3 (A) A             23 (A) A                 0.0080
     8 (A) A   8 (A) B   25 (A) A   29 (A) B     -0.0076
     6 (A) A             35 (A) A                 0.0073
     6 (A) A             40 (A) A                -0.0068
     3 (A) A   6 (A) B    9 (A) A   28 (A) B     -0.0065
     6 (A) A   8 (A) A   19 (A) A   28 (A) A      0.0060
     5 (A) A   7 (A) B    9 (A) A    9 (A) B      0.0060
     5 (A) A   8 (A) B   11 (A) A   20 (A) B      0.0059
     5 (A) A   8 (A) B   11 (A) A    9 (A) B      0.0059
     7 (A) A   8 (A) B   13 (A) A   20 (A) B     -0.0059
     5 (A) A   8 (A) B   16 (A) A    9 (A) B     -0.0059
     3 (A) A   5 (A) B    9 (A) A   25 (A) B     -0.0058
     3 (A) A             40 (A) A                -0.0057
     7 (A) A   8 (A) B   22 (A) A   20 (A) B      0.0057
     6 (A) A   8 (A) A    9 (A) A   18 (A) A     -0.0056
     8 (A) A   8 (A) B   19 (A) A   30 (A) B     -0.0056
    -----------------------------------------------------

  Density matrix analysis:
  ------------------------
  NOs
    Occupation of frontier NOs:
       0.9495   1.0217
    Number of electrons: 16.000000
    Number of unpaired electrons: n_u =  2.31328, n_u,nl =  2.03254
    NO participation ratio (PR_NO):  2.863601
  
  
  Mulliken Population Analysis
  Atom      Charge (e)              h+              e-           Del q
  --------------------------------------------------------------------
   1 H        0.058481        0.020445       -0.012514        0.007931
   2 C       -0.117719        0.491083       -0.506722       -0.015639
   3 H        0.058810        0.020325       -0.012604        0.007722
   4 C       -0.115539        0.490992       -0.506698       -0.015706
   5 H        0.057478        0.020304       -0.012595        0.007708
   6 H        0.058489        0.020494       -0.012511        0.007984
  --------------------------------------------------------------------
  Sum:        0.000000        1.063644       -1.063644       -0.000000
  
  Multipole moment analysis of the density matrix
    Molecular charge:                      0.000000
    Number of electrons:                   16.000000
      Center of electronic charge [Ang]: [ -1.560566,  -0.063753,   0.001952]
    Total nuclear charge:                  16.000000
      Center of nuclear charge [Ang]:    [ -1.560576,  -0.063727,   0.001978]
    Dipole moment [D]:                     0.002881
      Cartesian components [D]:          [ -0.000759,   0.001951,   0.001980]
    RMS size of the density [Ang]:         1.213610
      Cartesian components [Ang]:        [  0.804395,   0.786187,   0.455748]
  
  Exciton analysis of the difference density matrix
    <r_h> [Ang]:                  [ -1.560261,  -0.063503,   0.001674]
    <r_e> [Ang]:                  [ -1.560217,  -0.063380,   0.001614]
    |<r_e - r_h>| [Ang]:            0.000143
    Hole size [Ang]:                1.285000
      Cartesian components [Ang]: [  0.728835,   0.711850,   0.783130]
    Electron size [Ang]:            1.463326
      Cartesian components [Ang]: [  0.855083,   0.829233,   0.850017]

  Transition density matrix analysis:
  -----------------------------------
  
  CT numbers (Mulliken)
    omega =     0.9535
    <Phe> =    -0.1598
  
  Exciton analysis of the transition density matrix
    Trans. dipole moment [D]:             1.833694
      Cartesian components [D]:         [ -1.329920,   1.262379,   0.012147]
    <r_h> [Ang]:                        [ -1.560187,  -0.063413,   0.001743]
    <r_e> [Ang]:                        [ -1.560237,  -0.063414,   0.001564]
    |<r_e - r_h>| [Ang]:                  0.000186
    Hole size [Ang]:                      1.212843
      Cartesian components [Ang]:       [  0.649198,   0.634925,   0.803990]
    Electron size [Ang]:                  1.486618
      Cartesian components [Ang]:       [  0.865791,   0.838292,   0.870463]
    RMS electron-hole separation [Ang]:   1.935742
      Cartesian components [Ang]:       [  1.107416,   1.072534,   1.170640]
    Covariance(r_h, r_e) [Ang^2]:        -0.033038
    Correlation coefficient:             -0.018324
    Center-of-mass size [Ang]:            0.950650
      Cartesian components [Ang]:       [  0.528141,   0.515121,   0.599545]

  Decomposition into state-averaged NTOs
    H- 0 -> L+ 0:  0.6700 ( 89.8%)
    H- 2 -> L+ 5:  0.0829 (  1.4%)
                   omega =  95.4%
  ----------------------------------------------------------------------------


  Excited state 2 (singlet, A)                                     [converged]
  ----------------------------------------------------------------------------
  Term symbol:  3 (1) A                                     R^2 =  7.78735e-14

  Total energy:                                            -77.9869264296 a.u.
  Excitation energy:                                               9.051415 eV

  Osc. strength:                                                      0.000033
  Trans. dip. moment [a.u.]:           [   0.002903,   -0.004509,    0.011017]
  <i|r^2|0> [a.u.]:                    [  -0.045021,   -0.089694,    0.150672]
  Two-photon absorption cross-section (SoS) [a.u.]:                   4.785537
  Two-photon absorption matrix (SoS) [a.u.]:
                                       |   -0.050564   -0.057895    0.527633 |
                                       |   -0.057895   -0.065938    0.553375 |
                                       |    0.527633    0.553375    0.116340 |
  Two-photon absorption cross-section [a.u.]:                         0.089050
  Two-photon absorption matrix [a.u.]:
                                       |    0.003853    0.007212   -0.045807 |
                                       |    0.007212    0.011550   -0.093727 |
                                       |   -0.045807   -0.093727   -0.015625 |

  Dip. moment [a.u.]:                  [   0.012020,    0.010596,    0.002596]
  Total dipole [Debye]:                                               0.041259
  <r^2> [a.u.]:                        [ 174.666983,   33.814716,   13.169062]
  Total <r^2> [a.u.]:                                               221.650761

  V1^2 = 0.9543, V2^2 = 0.0457

  Important amplitudes:
      occ i     occ j     vir a      vir b          v   
    -----------------------------------------------------
     7 (A) A              9 (A) A                -0.6690
     8 (A) A             11 (A) A                 0.1477
     7 (A) A             20 (A) A                 0.0759
     5 (A) A   8 (A) B    9 (A) A    9 (A) B     -0.0315
     8 (A) A             16 (A) A                -0.0273
     8 (A) A             10 (A) A                -0.0212
     8 (A) A             21 (A) A                 0.0175
     5 (A) A             28 (A) A                -0.0150
     4 (A) A   7 (A) B    9 (A) A   19 (A) B      0.0135
     5 (A) A   7 (A) B    9 (A) A   16 (A) B     -0.0134
     7 (A) A   8 (A) B   20 (A) A   17 (A) B     -0.0105
     7 (A) A   8 (A) A    9 (A) A   28 (A) A     -0.0098
     5 (A) A   8 (A) B    9 (A) A   20 (A) B      0.0095
     4 (A) A   6 (A) B    9 (A) A   16 (A) B     -0.0091
     5 (A) A   6 (A) A    9 (A) A   23 (A) A      0.0091
     5 (A) A   6 (A) A    9 (A) A   14 (A) A      0.0088
     5 (A) A   6 (A) B    9 (A) A   19 (A) B      0.0086
     8 (A) A   7 (A) B    9 (A) A   28 (A) B      0.0085
     4 (A) A   5 (A) A    9 (A) A   10 (A) A     -0.0084
     6 (A) A   7 (A) B    9 (A) A   18 (A) B      0.0084
     5 (A) A   6 (A) B    9 (A) A   23 (A) B      0.0080
     3 (A) A   7 (A) B    9 (A) A   18 (A) B     -0.0080
     5 (A) A   7 (A) A    9 (A) A   16 (A) A     -0.0079
     4 (A) A   8 (A) B    9 (A) A   25 (A) B     -0.0077
     4 (A) A   7 (A) B   19 (A) A    9 (A) B      0.0074
     7 (A) A   8 (A) B   17 (A) A   20 (A) B     -0.0074
     5 (A) A   5 (A) B    9 (A) A   13 (A) B      0.0072
     7 (A) A   8 (A) B   19 (A) A   18 (A) B      0.0072
     5 (A) A   8 (A) A    9 (A) A   20 (A) A      0.0069
     4 (A) A   5 (A) B    9 (A) A   18 (A) B      0.0068
     7 (A) A   7 (A) B   20 (A) A   22 (A) B     -0.0065
     7 (A) A   8 (A) B   17 (A) A    9 (A) B      0.0064
     5 (A) A   6 (A) B    9 (A) A   14 (A) B      0.0062
     4 (A) A   7 (A) A    9 (A) A   19 (A) A      0.0061
     4 (A) A   5 (A) B   10 (A) A    9 (A) B      0.0061
     5 (A) A   7 (A) B   11 (A) A   20 (A) B     -0.0060
     4 (A) A   7 (A) B    9 (A) A   14 (A) B     -0.0060
     8 (A) A             12 (A) A                 0.0059
     5 (A) A             38 (A) A                -0.0059
     4 (A) A   8 (A) A    9 (A) A   25 (A) A     -0.0057
    -----------------------------------------------------

  Density matrix analysis:
  ------------------------
  NOs
    Occupation of frontier NOs:
       0.9572   1.0542
    Number of electrons: 16.000000
    Number of unpaired electrons: n_u =  2.35489, n_u,nl =  2.06305
    NO participation ratio (PR_NO):  3.029893
  
  
  Mulliken Population Analysis
  Atom      Charge (e)              h+              e-           Del q
  --------------------------------------------------------------------
   1 H        0.148719        0.118729       -0.020560        0.098169
   2 C       -0.302770        0.272305       -0.472995       -0.200690
   3 H        0.154234        0.131841       -0.028695        0.103146
   4 C       -0.301064        0.271465       -0.472696       -0.201231
   5 H        0.157265        0.128796       -0.021301        0.107495
   6 H        0.143615        0.120697       -0.027586        0.093110
  --------------------------------------------------------------------
  Sum:        0.000000        1.043833       -1.043833       -0.000000
  
  Multipole moment analysis of the density matrix
    Molecular charge:                      0.000000
    Number of electrons:                   16.000000
      Center of electronic charge [Ang]: [ -1.560974,  -0.064078,   0.001892]
    Total nuclear charge:                  16.000000
      Center of nuclear charge [Ang]:    [ -1.560576,  -0.063727,   0.001978]
    Dipole moment [D]:                     0.041259
      Cartesian components [D]:          [  0.030552,   0.026933,   0.006599]
    RMS size of the density [Ang]:         1.199389
      Cartesian components [Ang]:        [  0.787619,   0.766624,   0.480082]
  
  Exciton analysis of the difference density matrix
    <r_h> [Ang]:                  [ -1.563184,  -0.069078,   0.001618]
    <r_e> [Ang]:                  [ -1.569384,  -0.073936,   0.000636]
    |<r_e - r_h>| [Ang]:            0.007937
    Hole size [Ang]:                1.486483
      Cartesian components [Ang]: [  0.990840,   1.010411,   0.454907]
    Electron size [Ang]:            1.477472
      Cartesian components [Ang]: [  0.880957,   0.859963,   0.816885]

  Transition density matrix analysis:
  -----------------------------------
  
  CT numbers (Mulliken)
    omega =     0.9220
    <Phe> =    -0.0121
  
  Exciton analysis of the transition density matrix
    Trans. dipole moment [D]:             0.015572
      Cartesian components [D]:         [  0.003690,  -0.005731,   0.014001]
    <r_h> [Ang]:                        [ -1.563139,  -0.069308,   0.001689]
    <r_e> [Ang]:                        [ -1.569913,  -0.074272,   0.000497]
    |<r_e - r_h>| [Ang]:                  0.008482
    Hole size [Ang]:                      1.515030
      Cartesian components [Ang]:       [  1.012378,   1.035734,   0.444590]
    Electron size [Ang]:                  1.474571
      Cartesian components [Ang]:       [  0.871865,   0.849064,   0.832648]
    RMS electron-hole separation [Ang]:   2.094397
      Cartesian components [Ang]:       [  1.320229,   1.324367,   0.943159]
    Covariance(r_h, r_e) [Ang^2]:         0.041623
    Correlation coefficient:              0.018631
    Center-of-mass size [Ang]:            1.066879
      Cartesian components [Ang]:       [  0.675862,   0.677013,   0.472328]

  Decomposition into state-averaged NTOs
    H- 1 -> L+ 0: -0.6614 ( 87.5%)
    H- 0 -> L+ 2: -0.1479 (  4.4%)
                   omega =  92.2%
  ----------------------------------------------------------------------------


  Excited state 3 (singlet, A)                                     [converged]
  ----------------------------------------------------------------------------
  Term symbol:  4 (1) A                                     R^2 =  9.23345e-14

  Total energy:                                            -77.9820098486 a.u.
  Excitation energy:                                               9.185202 eV

  Osc. strength:                                                      0.025049
  Trans. dip. moment [a.u.]:           [   0.015829,    0.019687,   -0.332678]
  <i|r^2|0> [a.u.]:                    [   0.092831,    0.000218,    0.006824]
  Two-photon absorption cross-section (SoS) [a.u.]:                   0.011028
  Two-photon absorption matrix (SoS) [a.u.]:
                                       |    0.014147    0.003142   -0.022728 |
                                       |    0.003142   -0.007712   -0.026658 |
                                       |   -0.022728   -0.026658    0.000355 |
  Two-photon absorption cross-section [a.u.]:                         0.013307
  Two-photon absorption matrix [a.u.]:
                                       |    0.013508    0.002572   -0.027446 |
                                       |    0.002572   -0.002470   -0.028068 |
                                       |   -0.027446   -0.028068   -0.002460 |

  Dip. moment [a.u.]:                  [   0.020522,    0.048396,    0.003021]
  Total dipole [Debye]:                                               0.133833
  <r^2> [a.u.]:                        [ 180.955862,   40.528082,   11.027030]
  Total <r^2> [a.u.]:                                               232.510973

  V1^2 = 0.9587, V2^2 = 0.0413

  Important amplitudes:
      occ i     occ j     vir a      vir b          v   
    -----------------------------------------------------
     8 (A) A             10 (A) A                 0.6887
     8 (A) A             24 (A) A                 0.0507
     8 (A) A             18 (A) A                -0.0313
     4 (A) A              9 (A) A                 0.0238
     7 (A) A              9 (A) A                -0.0221
     8 (A) A   8 (A) B    9 (A) A   12 (A) B     -0.0219
     8 (A) A   8 (A) B   10 (A) A   17 (A) B      0.0173
     8 (A) A             15 (A) A                 0.0166
     5 (A) A   8 (A) B   11 (A) A   10 (A) B      0.0166
     7 (A) A   8 (A) B   13 (A) A   10 (A) B     -0.0141
     4 (A) A   8 (A) B   12 (A) A   10 (A) B     -0.0111
     6 (A) A   8 (A) A   10 (A) A   15 (A) A     -0.0110
     7 (A) A   8 (A) B   22 (A) A   10 (A) B      0.0108
     6 (A) A   8 (A) B   15 (A) A   10 (A) B      0.0108
     4 (A) A   8 (A) A   10 (A) A   12 (A) A      0.0106
     7 (A) A   8 (A) A   10 (A) A   22 (A) A     -0.0099
     7 (A) A   8 (A) A   10 (A) A   13 (A) A      0.0098
     5 (A) A   8 (A) A   10 (A) A   11 (A) A     -0.0095
     5 (A) A   8 (A) B   21 (A) A   10 (A) B      0.0094
     6 (A) A   8 (A) B   10 (A) A   10 (A) B     -0.0087
     6 (A) A   8 (A) A   10 (A) A   18 (A) A     -0.0087
     7 (A) A   8 (A) A   12 (A) A   16 (A) A      0.0082
     5 (A) A   8 (A) A   10 (A) A   21 (A) A     -0.0080
     3 (A) A   4 (A) B   10 (A) A    9 (A) B     -0.0079
     4 (A) A   8 (A) B   19 (A) A   10 (A) B      0.0075
     8 (A) A   8 (A) B    9 (A) A   23 (A) B     -0.0074
     8 (A) A   8 (A) B   10 (A) A   28 (A) B     -0.0073
     3 (A) A   8 (A) B   10 (A) A   10 (A) B      0.0072
     5 (A) A   8 (A) B   10 (A) A   11 (A) B      0.0071
     3 (A) A   8 (A) A   10 (A) A   24 (A) A     -0.0071
     7 (A) A   8 (A) B   16 (A) A   12 (A) B     -0.0071
     3 (A) A   8 (A) B   10 (A) A   18 (A) B     -0.0069
     8 (A) A   8 (A) B    9 (A) A   19 (A) B      0.0068
     6 (A) A   8 (A) B   18 (A) A   10 (A) B      0.0066
     3 (A) A   6 (A) B   10 (A) A   28 (A) B     -0.0062
     7 (A) A   8 (A) B   12 (A) A   11 (A) B      0.0058
     6 (A) A             28 (A) A                 0.0057
     3 (A) A   5 (A) B   10 (A) A   25 (A) B     -0.0056
     5 (A) A   8 (A) A   10 (A) A   16 (A) A      0.0056
     3 (A) A   8 (A) A   10 (A) A   18 (A) A     -0.0056
    -----------------------------------------------------

  Density matrix analysis:
  ------------------------
  NOs
    Occupation of frontier NOs:
       0.9825   0.9841
    Number of electrons: 16.000000
    Number of unpaired electrons: n_u =  2.28727, n_u,nl =  2.02483
    NO participation ratio (PR_NO):  2.696298
  
  
  Mulliken Population Analysis
  Atom      Charge (e)              h+              e-           Del q
  --------------------------------------------------------------------
   1 H       -0.158701        0.054260       -0.263512       -0.209252
   2 C        0.325656        0.538432       -0.110697        0.427736
   3 H       -0.170640        0.053805       -0.275534       -0.221728
   4 C        0.326612        0.536067       -0.109622        0.426445
   5 H       -0.157298        0.054448       -0.261516       -0.207068
   6 H       -0.165628        0.053785       -0.269918       -0.216133
  --------------------------------------------------------------------
  Sum:       -0.000000        1.290798       -1.290798       -0.000000
  
  Multipole moment analysis of the density matrix
    Molecular charge:                      0.000000
    Number of electrons:                   16.000000
      Center of electronic charge [Ang]: [ -1.561255,  -0.065328,   0.001878]
    Total nuclear charge:                  16.000000
      Center of nuclear charge [Ang]:    [ -1.560576,  -0.063727,   0.001978]
    Dipole moment [D]:                     0.133833
      Cartesian components [D]:          [  0.052161,   0.123010,   0.007678]
    RMS size of the density [Ang]:         1.275762
      Cartesian components [Ang]:        [  0.854127,   0.839670,   0.439305]
  
  Exciton analysis of the difference density matrix
    <r_h> [Ang]:                  [ -1.559751,  -0.064574,   0.001778]
    <r_e> [Ang]:                  [ -1.568250,  -0.083999,   0.000810]
    |<r_e - r_h>| [Ang]:            0.021225
    Hole size [Ang]:                1.409719
      Cartesian components [Ang]: [  0.834127,   0.819334,   0.787547]
    Electron size [Ang]:            2.075703
      Cartesian components [Ang]: [  1.372183,   1.377622,   0.726509]

  Transition density matrix analysis:
  -----------------------------------
  
  CT numbers (Mulliken)
    omega =     0.9260
    <Phe> =    -0.0109
  
  Exciton analysis of the transition density matrix
    Trans. dipole moment [D]:             0.424009
      Cartesian components [D]:         [  0.020116,   0.025020,  -0.422792]
    <r_h> [Ang]:                        [ -1.559009,  -0.062279,   0.001782]
    <r_e> [Ang]:                        [ -1.570775,  -0.090704,   0.000447]
    |<r_e - r_h>| [Ang]:                  0.030794
    Hole size [Ang]:                      1.211842
      Cartesian components [Ang]:       [  0.636607,   0.622325,   0.822195]
    Electron size [Ang]:                  2.295446
      Cartesian components [Ang]:       [  1.515989,   1.525016,   0.803228]
    RMS electron-hole separation [Ang]:   2.586009
      Cartesian components [Ang]:       [  1.636787,   1.640417,   1.147780]
    Covariance(r_h, r_e) [Ang^2]:         0.025572
    Correlation coefficient:              0.009193
    Center-of-mass size [Ang]:            1.302764
      Cartesian components [Ang]:       [  0.825841,   0.827007,   0.575535]

  Decomposition into state-averaged NTOs
    H- 0 -> L+ 1:  0.6794 ( 92.3%)
                   omega =  92.6%
  ----------------------------------------------------------------------------


  Excited state 4 (singlet, A)                                     [converged]
  ----------------------------------------------------------------------------
  Term symbol:  5 (1) A                                     R^2 =  2.22417e-13

  Total energy:                                            -77.9581391459 a.u.
  Excitation energy:                                               9.834757 eV

  Osc. strength:                                                      0.000018
  Trans. dip. moment [a.u.]:           [  -0.000820,    0.001752,   -0.008363]
  <i|r^2|0> [a.u.]:                    [  -0.022476,   -0.017916,    0.036038]
  Two-photon absorption cross-section (SoS) [a.u.]:                 147.425911
  Two-photon absorption matrix (SoS) [a.u.]:
                                       |   -0.283942   -0.322100    2.984144 |
                                       |   -0.322100   -0.361262    3.017546 |
                                       |    2.984144    3.017546    0.645329 |
  Two-photon absorption cross-section [a.u.]:                        89.849073
  Two-photon absorption matrix [a.u.]:
                                       |   -0.220303   -0.251268    2.313335 |
                                       |   -0.251268   -0.283653    2.371689 |
                                       |    2.313335    2.371689    0.504130 |

  Dip. moment [a.u.]:                  [  -0.058331,   -0.048398,   -0.006532]
  Total dipole [Debye]:                                               0.193366
  <r^2> [a.u.]:                        [ 180.861076,   40.490538,   10.758572]
  Total <r^2> [a.u.]:                                               232.110186

  V1^2 = 0.9635, V2^2 = 0.0365

  Important amplitudes:
      occ i     occ j     vir a      vir b          v   
    -----------------------------------------------------
     8 (A) A             11 (A) A                 0.6697
     7 (A) A              9 (A) A                 0.1496
     8 (A) A             21 (A) A                 0.0781
     8 (A) A             16 (A) A                -0.0649
     8 (A) A   8 (A) B    9 (A) A   13 (A) B      0.0166
     5 (A) A   8 (A) B   11 (A) A   11 (A) B      0.0156
     8 (A) A   8 (A) B   11 (A) A   17 (A) B      0.0140
     7 (A) A             20 (A) A                -0.0137
     7 (A) A   8 (A) B   13 (A) A   11 (A) B     -0.0128
     8 (A) A             12 (A) A                 0.0113
     5 (A) A   8 (A) A   11 (A) A   21 (A) A     -0.0110
     4 (A) A   8 (A) B   12 (A) A   11 (A) B     -0.0110
     8 (A) A   8 (A) B    9 (A) A   22 (A) B     -0.0107
     7 (A) A   8 (A) A   11 (A) A   22 (A) A     -0.0096
     6 (A) A              9 (A) A                -0.0094
     6 (A) A   8 (A) B   15 (A) A   11 (A) B      0.0090
     6 (A) A   8 (A) B   10 (A) A   11 (A) B     -0.0090
     7 (A) A   8 (A) B   22 (A) A   11 (A) B      0.0089
     3 (A) A   4 (A) B   11 (A) A    9 (A) B     -0.0083
     3 (A) A   8 (A) B   11 (A) A   18 (A) B     -0.0081
     6 (A) A   8 (A) A   11 (A) A   15 (A) A     -0.0080
     7 (A) A   8 (A) A   13 (A) A   16 (A) A     -0.0078
     7 (A) A   8 (A) A   11 (A) A   13 (A) A      0.0077
     5 (A) A   8 (A) B   21 (A) A   11 (A) B      0.0071
     4 (A) A   8 (A) B   19 (A) A   11 (A) B      0.0070
     5 (A) A   8 (A) B    9 (A) A    9 (A) B      0.0067
     8 (A) A             10 (A) A                 0.0066
     4 (A) A   8 (A) A   11 (A) A   12 (A) A      0.0062
     6 (A) A   8 (A) A   11 (A) A   18 (A) A     -0.0062
     3 (A) A   6 (A) B   11 (A) A   28 (A) B     -0.0060
     6 (A) A   8 (A) B   18 (A) A   11 (A) B      0.0059
     7 (A) A   8 (A) B   16 (A) A   13 (A) B      0.0057
     3 (A) A   8 (A) A   11 (A) A   18 (A) A     -0.0056
     5 (A) A   8 (A) B   10 (A) A   10 (A) B      0.0056
     3 (A) A   8 (A) B   11 (A) A   30 (A) B     -0.0055
     3 (A) A   5 (A) B   11 (A) A   25 (A) B     -0.0055
     6 (A) A   8 (A) B   11 (A) A   10 (A) B     -0.0054
     7 (A) A   8 (A) B   12 (A) A   10 (A) B      0.0054
     8 (A) A   8 (A) B   20 (A) A   22 (A) B      0.0053
     3 (A) A   8 (A) A   11 (A) A   24 (A) A     -0.0053
    -----------------------------------------------------

  Density matrix analysis:
  ------------------------
  NOs
    Occupation of frontier NOs:
       0.9411   1.0275
    Number of electrons: 16.000000
    Number of unpaired electrons: n_u =  2.31888, n_u,nl =  2.04883
    NO participation ratio (PR_NO):  2.912089
  
  
  Mulliken Population Analysis
  Atom      Charge (e)              h+              e-           Del q
  --------------------------------------------------------------------
   1 H       -0.152455        0.045599       -0.248604       -0.203005
   2 C        0.272745        0.497763       -0.122938        0.374825
   3 H       -0.122097        0.047081       -0.220266       -0.173185
   4 C        0.274221        0.496777       -0.122723        0.374055
   5 H       -0.141951        0.047240       -0.238961       -0.191721
   6 H       -0.130464        0.045461       -0.226430       -0.180969
  --------------------------------------------------------------------
  Sum:        0.000000        1.179922       -1.179922       -0.000000
  
  Multipole moment analysis of the density matrix
    Molecular charge:                      0.000000
    Number of electrons:                   16.000000
      Center of electronic charge [Ang]: [ -1.558647,  -0.062127,   0.002194]
    Total nuclear charge:                  16.000000
      Center of nuclear charge [Ang]:    [ -1.560576,  -0.063727,   0.001978]
    Dipole moment [D]:                     0.193366
      Cartesian components [D]:          [ -0.148263,  -0.123016,  -0.016602]
    RMS size of the density [Ang]:         1.276361
      Cartesian components [Ang]:        [  0.857911,   0.839522,   0.433923]
  
  Exciton analysis of the difference density matrix
    <r_h> [Ang]:                  [ -1.558510,  -0.062440,   0.001935]
    <r_e> [Ang]:                  [ -1.532444,  -0.040279,   0.005160]
    |<r_e - r_h>| [Ang]:            0.034365
    Hole size [Ang]:                1.393594
      Cartesian components [Ang]: [  0.816829,   0.806568,   0.790154]
    Electron size [Ang]:            2.121652
      Cartesian components [Ang]: [  1.432843,   1.410271,   0.677869]

  Transition density matrix analysis:
  -----------------------------------
  
  CT numbers (Mulliken)
    omega =     0.9299
    <Phe> =    -0.0136
  
  Exciton analysis of the transition density matrix
    Trans. dipole moment [D]:             0.010908
      Cartesian components [D]:         [ -0.001042,   0.002226,  -0.010628]
    <r_h> [Ang]:                        [ -1.560278,  -0.063632,   0.001665]
    <r_e> [Ang]:                        [ -1.527101,  -0.035895,   0.005769]
    |<r_e - r_h>| [Ang]:                  0.043438
    Hole size [Ang]:                      1.226433
      Cartesian components [Ang]:       [  0.656272,   0.649529,   0.807191]
    Electron size [Ang]:                  2.259714
      Cartesian components [Ang]:       [  1.526248,   1.502775,   0.720097]
    RMS electron-hole separation [Ang]:   2.560774
      Cartesian components [Ang]:       [  1.653195,   1.629548,   1.081242]
    Covariance(r_h, r_e) [Ang^2]:         0.027382
    Correlation coefficient:              0.009880
    Center-of-mass size [Ang]:            1.290853
      Cartesian components [Ang]:       [  0.834910,   0.822463,   0.541093]

  Decomposition into state-averaged NTOs
    H- 0 -> L+ 2: -0.6650 ( 88.5%)
    H- 1 -> L+ 0:  0.1476 (  4.4%)
                   omega =  93.0%
  ----------------------------------------------------------------------------


  Excited state 5 (singlet, A)                                     [converged]
  ----------------------------------------------------------------------------
  Term symbol:  6 (1) A                                     R^2 =  1.02464e-13

  Total energy:                                            -77.9434167895 a.u.
  Excitation energy:                                              10.235373 eV

  Osc. strength:                                                      0.000001
  Trans. dip. moment [a.u.]:           [  -0.000173,   -0.000386,    0.001619]
  <i|r^2|0> [a.u.]:                    [  -0.088170,    0.100969,   -0.013940]
  Two-photon absorption cross-section (SoS) [a.u.]:                 192.634058
  Two-photon absorption matrix (SoS) [a.u.]:
                                       |   -0.332674   -0.047621    3.513522 |
                                       |   -0.047621    0.405221   -3.404709 |
                                       |    3.513522   -3.404709   -0.073100 |
  Two-photon absorption cross-section [a.u.]:                        90.741903
  Two-photon absorption matrix [a.u.]:
                                       |   -0.226963   -0.031036    2.394992 |
                                       |   -0.031036    0.279979   -2.353592 |
[...]
    16   -1.500332296504e-03
    17   -1.722415930342e-03
    18   -4.313271743979e-04
    19   -3.284974144648e-03
    20    1.124578310136e-02
    21    9.414505734653e-01
    22   -1.403617116651e-04
    23    1.392066000226e-02
    24    8.119939495997e-04
    25    6.993587845636e-02
    26   -5.170527116856e-02
    27   -1.396983491268e+00
    28    9.892611127635e-02
    29   -9.175075007346e-02
    30   -8.765911577630e-04
    31    3.880504282831e-01
    32   -3.573509521370e-01
    33   -3.292423782166e-03
    34    1.554446585940e-02
    35   -1.463577189484e-03
    36   -1.775035021021e-03
    37   -5.101851493470e-05
    38   -3.097212164560e-03
    39    9.160411580341e-03
    40    9.203194409612e-01
    41    2.870699099880e-04
    42   -1.377099533030e-02
    43   -8.158206729433e-04
    44    1.061514541704e-02
    45    9.454998811934e-01
    46    1.420356818803e-02
    47    3.755386950988e-04
    48    6.908461434672e-04
Sym=X
Ene= 0.232687
Spin=Alpha
Occup=0
     1    2.605166474281e-02
     2    1.232969855486e+00
     3   -1.428209296154e-02
     4   -3.839839390966e-03
     5   -8.994978688540e-04
     6    2.996764992084e-03
     7   -3.633810464589e-03
     8   -5.022964215367e-02
     9   -1.550989860906e-01
    10   -1.593070078156e-01
    11   -1.671695546989e-02
    12   -5.588161537649e-01
    13   -5.511626143408e-01
    14   -5.882436707168e-02
    15    5.100240701450e-04
    16   -6.870706301279e-05
    17   -7.960233376544e-05
    18   -3.816531381491e-05
    19   -3.701927445754e-04
    20   -2.619853511764e-02
    21   -1.152939357727e+00
    22   -2.376902247212e-03
    23   -1.343995668535e-02
    24   -9.057184153580e-04
    25   -1.709987853831e-03
    26    2.743568151831e-03
    27    1.342337460562e-02
    28   -1.523902229642e-01
    29   -1.604512473836e-01
    30   -1.685856384127e-02
    31   -5.449598235999e-01
    32   -5.577282474611e-01
    33   -5.938685171921e-02
    34   -4.420534529500e-05
    35    5.394460824439e-06
    36   -1.768102436956e-06
    37   -2.746678247557e-05
    38    1.246970560306e-04
    39    2.576903362400e-02
    40    1.173410676369e+00
    41   -2.453809123290e-03
    42   -1.388268806202e-02
    43   -9.492609508267e-04
    44   -2.667039362456e-02
    45   -1.207408782707e+00
    46   -1.385205584900e-02
    47   -3.707949516583e-03
    48   -8.803621858949e-04
Sym=X
Ene= 0.239316
Spin=Alpha
Occup=0
     1   -1.635023925497e-02
     2   -1.060274572155e+00
     3    1.664153836220e-02
     4    9.100100147199e-03
     5    1.343909533970e-03
     6   -8.619080117007e-02
     7    7.949347724602e-02
     8    1.582542582461e+00
     9    5.402229546047e-02
    10   -6.046613224865e-02
    11   -7.892065012197e-04
    12    2.177192845049e-01
    13   -2.339457587210e-01
    14   -2.556931631442e-03
    15   -2.241538314908e-02
    16    2.617675490141e-03
    17    2.922823874946e-03
    18   -2.958876365520e-04
    19    1.278321727991e-02
    20   -1.696063727985e-02
    21   -1.108652578848e+00
    22   -8.593881345337e-03
    23   -1.740942148334e-02
    24   -1.424023593473e-03
    25    8.657941422600e-02
    26   -7.963962654624e-02
    27   -1.596864670899e+00
    28    5.491614531246e-02
    29   -6.042225694388e-02
    30   -1.258866543939e-03
    31    2.176155897009e-01
    32   -2.412766810857e-01
    33   -5.153924332262e-03
    34    2.269179756720e-02
    35   -2.586175850488e-03
    36   -3.030524185705e-03
    37    6.549781049096e-04
    38   -1.282525350315e-02
    39    1.686107114343e-02
    40    1.126826082697e+00
    41   -8.582514058185e-03
    42   -1.787695311391e-02
    43   -1.489439310707e-03
    44    1.547403073914e-02
    45    1.059831871101e+00
    46    1.657219114674e-02
    47    9.292982751578e-03
    48    1.321410726023e-03
Sym=X
Ene= 0.303452
Spin=Alpha
Occup=0
     1   -2.148126159642e-02
     2    1.694805617039e+00
     3   -2.296316848886e-02
     4    2.700253913589e-04
     5   -1.078705933151e-03
     6   -2.759446397176e-04
     7    3.226081606940e-04
     8   -7.740977628081e-03
     9   -1.341152286555e-01
    10   -1.396468440167e-01
    11   -1.459310919724e-02
    12   -1.146595090666e+00
    13   -1.192460891539e+00
    14   -1.249971629521e-01
    15    8.357753631116e-06
    16   -1.689436494503e-03
    17    1.805323868877e-03
    18   -3.258126241119e-02
    19   -1.838785280813e-03
    20    1.903580556697e-02
    21   -1.680638010849e+00
    22    1.604564794362e-03
    23   -2.291240767249e-02
    24   -1.269790376436e-03
    25    1.528545846850e-04
    26    3.296295562979e-04
    27   -1.443058274049e-02
    28    1.348225096517e-01
    29    1.399500473923e-01
    30    1.476608730440e-02
    31    1.141302364369e+00
    32    1.202155065783e+00
    33    1.257319920826e-01
    34    1.167105422110e-04
    35   -1.626146007899e-03
    36    1.897041437993e-03
    37   -3.271502204157e-02
    38   -1.863992883889e-03
    39    1.992263642706e-02
    40   -1.691202760272e+00
    41   -1.733352019237e-03
    42    2.284860230061e-02
    43    1.294465068539e-03
    44   -2.100258429055e-02
    45    1.701978666676e+00
    46    2.313470119154e-02
    47   -3.334042782767e-04
    48    1.066572716566e-03
Sym=X
Ene= 0.462844
Spin=Alpha
Occup=0
     1   -1.112420737181e-01
     2   -7.284792465882e-01
     3   -1.570674915654e-02
     4   -1.056971975520e-02
     5   -1.359196512142e-03
     6    6.088782882256e-02
     7    1.756297198671e-02
     8   -3.640866973901e+00
     9    1.024841857919e-01
    10   -9.904253548877e-02
    11   -9.003731984014e-04
    12    2.448516367702e+00
    13   -2.306259577725e+00
    14   -2.062480087171e-02
    15    5.393382556409e-02
    16   -3.311810279748e-03
    17   -4.657108535319e-03
    18   -5.029632153215e-04
    19    1.880010321138e-02
    20   -1.228288116660e-01
    21   -6.918108803786e-01
    22    8.259651920577e-03
    23    1.667079187632e-02
    24    1.381599757305e-03
    25   -6.083946881693e-02
    26   -1.722734534518e-02
    27    3.635855755631e+00
    28    1.034950494201e-01
    29   -9.874721566537e-02
    30   -1.139636648384e-03
    31    2.444738532357e+00
    32   -2.309753516705e+00
    33   -2.239335595234e-02
    34   -5.346660357729e-02
    35    3.323219083193e-03
    36    4.612542598623e-03
    37    4.631129124811e-04
    38   -1.907289835294e-02
    39    1.187454719131e-01
    40    7.075802532362e-01
    41    8.338299322014e-03
    42    1.669506409680e-02
    43    1.388662670084e-03
    44    1.104524112459e-01
    45    7.217406879228e-01
    46   -1.561993702831e-02
    47   -1.023371899287e-02
    48   -1.361044308381e-03
Sym=X
Ene= 0.577042
Spin=Alpha
Occup=0
     1    2.418172833305e-01
     2    5.501669393834e-02
     3   -1.899051878022e-02
     4    2.561265063644e-02
     5    6.101144066798e-04
     6   -5.244886206479e-03
     7   -1.607205687355e-01
     8   -4.414622880662e-01
     9    2.979469286233e-01
    10   -2.885905293585e-01
    11   -3.086326535521e-03
    12   -7.359708076502e-01
    13    7.100887145442e-01
    14    7.279524776367e-03
    15   -5.521798793377e-03
    16    3.737106784894e-03
    17    3.718118356001e-03
    18   -5.476192521078e-03
    19    5.924799797741e-02
    20    2.534468994815e-01
    21    2.735662162509e-02
    22   -2.696245103552e-02
    23    1.709042243478e-02
    24   -2.716039265349e-04
    25   -5.565218415148e-03
    26   -1.606854622100e-01
    27   -4.262876648597e-01
    28   -2.981234422088e-01
    29    2.870938287002e-01
    30    2.949123168184e-03
    31    7.498162785603e-01
    32   -7.240618315500e-01
    33   -7.769041284206e-03
    34   -5.399052084998e-03
    35    3.745247615826e-03
    36    3.684016349150e-03
    37   -5.043966022764e-03
    38    5.920241807105e-02
    39    2.502934435069e-01
    40    4.199594109287e-02
    41    2.703497042402e-02
    42   -1.695015653957e-02
    43    2.576241704197e-04
    44    2.442433978885e-01
    45    5.586223609317e-02
    46    1.890548918204e-02
    47   -2.549164755025e-02
    48   -6.381096139480e-04
Sym=X
Ene= 0.615014
Spin=Alpha
Occup=0
     1   -5.251945970990e-01
     2    2.001323479033e-01
     3   -6.175284154257e-02
     4    3.709449342784e-02
     5   -7.587958899331e-04
     6   -8.963249029064e-04
     7   -1.632008628758e-03
     8   -2.786892956883e-02
     9   -4.057885397583e-02
    10   -3.603907724193e-02
    11   -4.092211503403e-03
    12    3.186495898193e-01
    13    2.555138291841e-01
    14    3.004132769658e-02
    15    2.190904422659e-03
    16   -7.654523598226e-03
    17    8.253416918233e-03
    18   -1.488714852866e-01
    19   -5.569274132728e-03
    20    5.091077299805e-01
    21   -2.243879214124e-01
    22    4.198543004427e-02
    23   -5.852701807998e-02
    24   -1.463614980136e-03
    25    7.077308384896e-04
    26   -1.326499126142e-03
    27    4.543809223962e-02
    28   -4.031219420233e-02
    29   -3.887214568948e-02
    30   -4.195409324347e-03
    31    3.177633159408e-01
    32    2.719192740529e-01
    33    3.146163258006e-02
    34   -2.727338013497e-03
    35    7.517951945501e-03
    36   -8.407926020074e-03
    37    1.487483128309e-01
    38    6.267475260413e-03
    39   -5.096275049770e-01
    40    2.113231753989e-01
    41    4.130308774662e-02
    42   -5.817866852914e-02
    43   -1.539976591167e-03
    44    5.251731012385e-01
    45   -2.017412185986e-01
    46   -6.192897401782e-02
    47    3.721624745278e-02
    48   -6.708476801971e-04
Sym=X
Ene= 0.688402
Spin=Alpha
Occup=0
     1    3.379956101574e-04
     2   -1.659549220805e-04
     3    1.115466603198e-03
     4    1.276433054121e-03
     5   -2.116537682195e-02
     6    2.476394090099e-05
     7    4.868616005437e-04
     8   -2.866522058907e-04
     9    3.148106823371e-02
    10    3.981572342050e-02
    11   -6.695370660994e-01
    12   -2.882812631046e-02
    13   -3.639118797178e-02
    14    6.132593184648e-01
    15   -1.412587929137e-03
    16    8.299798382249e-02
    17   -7.807514519411e-02
    18   -8.613768842717e-03
    19   -1.174765819817e-03
    20    3.850339697114e-04
    21   -3.857460781312e-04
    22    8.966026209857e-04
    23    1.051812173882e-03
    24   -1.997329136089e-02
    25    2.262263054257e-05
    26    5.039145940349e-04
    27   -3.135276745317e-04
    28    3.186736940817e-02
    29    3.984253749588e-02
    30   -6.692295115377e-01
    31   -2.928206000265e-02
    32   -3.652766552146e-02
    33    6.132630768842e-01
    34    1.103169158068e-03
    35   -8.303629432916e-02
    36    7.828608757953e-02
    37    8.547537038253e-03
    38    1.286540724442e-03
    39    3.549752257150e-04
    40   -4.107009669949e-04
    41    1.034537140260e-03
    42    1.384977850832e-03
    43   -2.092252906762e-02
    44    3.080521797849e-04
    45   -2.059649942834e-04
    46    8.735691768990e-04
    47    1.230282204742e-03
    48   -2.092300231556e-02
Sym=X
Ene= 0.708602
Spin=Alpha
Occup=0
     1   -4.788156706806e-01
     2    1.528528247443e-01
     3   -8.104975331013e-02
     4   -4.397814025390e-02
     5   -6.462336685583e-03
     6   -4.781958582462e-02
     7   -3.173395689144e-01
     8    5.004249803013e-01
     9    1.995531006943e-01
    10   -1.913376821126e-01
    11   -2.519695650001e-03
    12   -8.394251964081e-02
    13    7.516154520672e-02
    14    1.163115647282e-03
    15    1.946340355252e-01
    16   -2.050798835712e-02
    17   -2.398158445128e-02
    18    2.883752246180e-03
    19   -7.746036013901e-02
    20   -4.836856552402e-01
    21    1.578759703599e-01
    22    4.135712323860e-02
    23    8.136114475234e-02
    24    6.757897567171e-03
    25   -4.651605671274e-02
    26   -3.212400208161e-01
    27    4.768428998674e-01
    28   -2.035048930843e-01
    29    1.886432108214e-01
    30    1.017448633473e-03
    31    7.080021795958e-02
    32   -4.764082518451e-02
    33    1.238291001593e-03
    34    1.924321215516e-01
    35   -2.034409730445e-02
    36   -2.378732721008e-02
    37    2.485452616532e-03
    38   -7.642557559297e-02
    39   -4.743238765598e-01
    40    1.314745114060e-01
    41   -4.058555634136e-02
    42   -8.007264307927e-02
    43   -6.722077616220e-03
    44   -4.719496361077e-01
    45    1.478939497322e-01
    46    7.995109340135e-02
    47    4.425352174735e-02
    48    6.408997853468e-03
Sym=X
Ene= 0.785279
Spin=Alpha
Occup=0
     1    5.217671124329e-01
     2   -4.606965371614e-01
     3    1.087538624752e-01
     4    2.609330783141e-02
     5    6.701677625650e-03
     6    9.065815463670e-02
     7   -2.198714136303e-01
     8   -6.554788805441e-01
     9    1.129072956280e-01
    10   -9.727173825880e-02
    11    6.082004081784e-04
    12    3.202503350862e-01
    13   -3.172201816236e-01
    14   -5.755555728130e-03
    15   -2.051321038950e-01
    16    1.741511382366e-02
    17    2.169166138857e-02
    18   -3.166460649126e-03
    19    9.808724039463e-03
    20    5.413074502060e-01
    21   -4.914340787052e-01
    22   -2.082948641823e-02
    23   -1.137292842378e-01
    24   -7.695519801367e-03
    25   -9.157287868686e-02
    26    2.099592685390e-01
    27    6.767552314894e-01
    28    1.076492807276e-01
    29   -9.954851920100e-02
    30   -1.871406518560e-03
    31    3.278261625614e-01
    32   -3.021385808095e-01
    33   -4.119061575175e-04
    34    2.085742475943e-01
    35   -1.758324601563e-02
    36   -2.255678510017e-02
    37    3.433357172002e-03
    38   -1.050838085296e-02
    39   -5.447833273172e-01
    40    4.752173908694e-01
    41   -2.104589140340e-02
    42   -1.145146024549e-01
    43   -7.865833492203e-03
    44   -5.315312672994e-01
    45    4.693951989518e-01
    46    1.102485864668e-01
    47    2.721652496028e-02
    48    6.833393562732e-03
Sym=X
Ene= 0.808327
Spin=Alpha
Occup=0
     1    6.576003662996e-04
     2   -1.071463090426e-03
     3    1.854757594776e-03
     4    2.002269691341e-03
     5   -3.376660743266e-02
     6    1.263715354019e-04
     7   -2.854984930593e-04
     8   -2.672505196078e-04
     9    3.632848984434e-02
    10    4.484074119898e-02
    11   -7.631969444469e-01
    12   -5.288262401447e-02
    13   -6.704062232883e-02
    14    1.128621038794e+00
    15    6.375604652713e-04
    16   -6.632632384715e-02
    17    6.260107890536e-02
    18    6.937453362775e-03
    19    9.091282497376e-04
    20    6.759379863378e-04
    21   -5.440697240054e-04
    22    1.658369681461e-03
    23    1.806490567159e-03
    24   -3.384441699289e-02
    25   -1.261719283589e-04
    26    2.495729810189e-04
    27    3.078890374313e-04
    28   -3.590998069459e-02
    29   -4.597554797697e-02
    30    7.632086169902e-01
    31    5.396209862498e-02
    32    6.728455318199e-02
    33   -1.128811537026e+00
    34    1.390206913355e-03
    35   -6.639085300743e-02
    36    6.251004815206e-02
    37    6.787964090483e-03
    38    1.055391183880e-03
    39   -6.784944033153e-04
    40    5.244388714155e-04
    41   -1.575113662630e-03
    42   -2.268040156328e-03
    43    3.454312964635e-02
    44   -6.657098313061e-04
    45    1.090460760879e-03
    46   -1.329090453237e-03
    47   -2.010430111167e-03
    48    3.367496570630e-02
Sym=X
Ene= 0.861496
Spin=Alpha
Occup=0
     1    1.667741665960e-02
     2   -1.096854564670e+00
     3    1.495488411458e-01
     4    5.535473198700e-02
     5    1.038496160692e-02
     6    1.333362470004e-03
     7    3.018215604305e-03
     8    1.131360006896e-03
     9   -4.053036078252e-01
    10   -4.354805583752e-01
    11   -4.476806969517e-02
    12    9.468068624330e-01
    13    1.008234472120e+00
    14    1.040688648215e-01
    15   -4.289035122189e-03
    16    1.196225458416e-02
    17   -1.316839383775e-02
    18    2.351724205044e-01
    19    7.973081452801e-03
    20   -9.801211636465e-03
    21    1.105499339472e+00
    22    5.022828980332e-02
    23    1.510353164024e-01
    24    1.130056909564e-02
    25   -7.866116483549e-04
    26    7.849125636653e-03
    27   -9.181294331724e-03
    28   -4.006198301002e-01
    29   -4.302358265230e-01
    30   -4.487101317901e-02
    31    9.368001024644e-01
    32    1.002380001424e+00
    33    1.046807790146e-01
    34    1.792521924516e-03
    35   -1.175658282183e-02
    36    1.341490981915e-02
    37   -2.349795819077e-01
    38   -8.829285551314e-03
    39    7.293646876021e-03
    40   -1.097746934203e+00
    41    4.917717029306e-02
    42    1.497582733135e-01
    43    1.130386913456e-02
    44   -1.164325938602e-02
    45    1.090563466830e+00
    46    1.481221577615e-01
    47    5.562851288107e-02
    48    1.029756504175e-02
Sym=X
Ene= 0.936007
Spin=Alpha
Occup=0
     1   -1.144880145561e-01
     2    1.253324209339e+00
     3   -1.783899598239e-01
     4    8.479253829787e-03
     5   -7.973540424498e-03
     6   -1.170330082420e-03
     7   -1.780667500136e-02
     8    7.593631502919e-03
     9    4.614328675163e-01
    10    5.076614968597e-01
    11    5.193031948736e-02
    12   -1.434277589302e+00
    13   -1.555140463587e+00
    14   -1.600818211491e-01
    15    1.945628140973e-03
    16   -5.598187825829e-03
    17    6.875153910881e-03
    18   -1.185752919167e-01
    19    4.304449840358e-03
    20    1.178214137245e-01
    21   -1.292885831438e+00
    22    9.929105225554e-03
    23   -1.839187848914e-01
    24   -1.036555953903e-02
    25    7.203232377303e-04
    26   -1.012164280124e-02
    27    2.717109507644e-02
    28   -4.822766118112e-01
    29   -4.941833689797e-01
    30   -5.232050547536e-02
    31    1.490367454743e+00
    32    1.520196537390e+00
    33    1.612482952216e-01
    34   -2.527450940646e-03
    35   -5.909316104221e-03
    36    7.357220714417e-03
    37   -1.218715504207e-01
    38   -7.501179435317e-03
    39    1.196400303774e-01
    40   -1.280644676975e+00
    41   -1.400862868508e-02
    42    1.836566255715e-01
    43    1.036534581874e-02
    44   -1.146525423061e-01
    45    1.294752931453e+00
    46    1.821214870312e-01
    47   -4.788210312522e-03
    48    8.296251408379e-03
Sym=X
Ene= 0.974230
Spin=Alpha
Occup=0
     1   -6.130418833213e-02
     2    9.589662311576e-01
     3   -9.527808635646e-02
     4   -9.847372702167e-02
     5   -1.043399206678e-02
     6    2.654880434856e-02
     7    2.613338901058e-01
     8    4.908249559457e-01
     9    4.913679296200e-01
    10   -4.450337239682e-01
    11   -2.858763457286e-03
    12   -1.525348130330e+00
    13    1.362422900495e+00
    14    7.849721157786e-03
    15   -5.586873119532e-02
    16   -1.295010420354e-02
    17   -9.134475907000e-03
    18    9.798738779495e-03
    19   -3.011080810365e-01
    20   -5.734280835422e-02
    21    8.746058316468e-01
    22    9.566626015661e-02
    23    8.848461201129e-02
    24    9.711539640275e-03
    25   -2.629300269326e-02
    26   -2.410539493436e-01
    27   -5.248563855761e-01
    28    4.716217085225e-01
    29   -4.601332966927e-01
    30   -5.435030123615e-03
    31   -1.450170175770e+00
    32    1.429440776303e+00
    33    1.746741618931e-02
    34    5.475035644409e-02
    35    1.258483488863e-02
    36    9.491856443264e-03
    37   -1.523406344630e-02
    38    2.987190019658e-01
    39    5.551839561620e-02
    40   -9.215964274211e-01
    41    9.439824441810e-02
    42    9.405445021237e-02
    43    1.014839598186e-02
    44    6.238655899132e-02
    45   -8.890864146751e-01
    46   -8.606634367766e-02
    47   -9.782347988093e-02
    48   -9.819422050843e-03
[5D]

======= END OF MOLDEN-FORMATTED INPUT FILE =======


        *************************************************************
        *                                                           *
        *  Thank you very much for using Q-Chem.  Have a nice day.  *
        *                                                           *
        *************************************************************


