                  Welcome to Q-Chem
     A Quantum Leap Into The Future Of Chemistry


 Q-Chem 5.4 (devel), Q-Chem, Inc., Pleasanton, CA (2021)

 E. Epifanovsky,  A. T. B. Gilbert,  Xintian Feng,  Joonho Lee,  Yuezhi Mao,  
 N. Mardirossian,  P. Pokhilko,  A. White,  M. Wormit,  M. P. Coons,  
 A. L. Dempwolff,  Zhengting Gan,  D. Hait,  P. R. Horn,  L. D. Jacobson,  
 I. Kaliman,  J. Kussmann,  A. W. Lange,  Ka Un Lao,  D. S. Levine,  Jie Liu,  
 S. C. McKenzie,  A. F. Morrison,  K. Nanda,  F. Plasser,  D. R. Rehn,  
 M. L. Vidal,  Zhi-Qiang You,  Ying Zhu,  B. Alam,  B. Albrecht,  
 A. Aldossary,  E. Alguire,  J. H. Andersen,  D. Barton,  K. Begam,  A. Behn,  
 Y. A. Bernard,  E. J. Berquist,  H. Burton,  A. Carreras,  K. Carter-Fenk,  
 R. Chakraborty,  A. D. Chien,  K. D. Closser,  V. Cofer-Shabica,  
 S. Dasgupta,  Jia Deng,  M. de Wergifosse,  M. Diedenhofen,  Hainam Do,  
 S. Ehlert,  Po-Tung Fang,  S. Fatehi,  Qingguo Feng,  T. Friedhoff,  
 J. Gayvert,  Qinghui Ge,  G. Gidofalvi,  M. Goldey,  J. Gomes,  
 C. Gonzalez-Espinoza,  S. Gulania,  A. Gunina,  M. W. D. Hanson-Heine,  
 P. H. P. Harbach,  A. W. Hauser,  M. F. Herbst,  M. Hernandez Vera,  
 M. Hodecker,  Z. C. Holden,  S. Houck,  Xunkun Huang,  Kerwin Hui,  
 B. C. Huynh,  M. Ivanov,  Hyunjun Ji,  Hanjie Jiang,  B. Kaduk,  S. Kaehler,  
 K. Khistyaev,  Jaehoon Kim,  P. Klunzinger,  Z. Koczor-Benda,  
 Joong Hoon Koh,  D. Kosenkov,  L. Koulias,  T. Kowalczyk,  C. M. Krauter,  
 K. Kue,  A. Kunitsa,  T. Kus,  A. Landau,  K. V. Lawler,  D. Lefrancois,  
 S. Lehtola,  Rain Li,  Yi-Pei Li,  Jiashu Liang,  M. Liebenthal,  
 Hung-Hsuan Lin,  You-Sheng Lin,  Fenglai Liu,  Kuan-Yu Liu,  
 M. Loipersberger,  A. Luenser,  A. Manjanath,  P. Manohar,  E. Mansoor,  
 S. F. Manzer,  Shan-Ping Mao,  A. V. Marenich,  T. Markovich,  S. Mason,  
 S. A. Maurer,  P. F. McLaughlin,  M. F. S. J. Menger,  J.-M. Mewes,  
 S. A. Mewes,  P. Morgante,  J. W. Mullinax,  K. J. Oosterbaan,  G. Paran,  
 Alexander C. Paul,  Suranjan K. Paul,  F. Pavosevic,  Zheng Pei,  S. Prager,  
 E. I. Proynov,  E. Ramos,  B. Rana,  A. E. Rask,  A. Rettig,  R. M. Richard,  
 F. Rob,  E. Rossomme,  T. Scheele,  M. Scheurer,  M. Schneider,  
 N. Sergueev,  S. M. Sharada,  W. Skomorowski,  D. W. Small,  C. J. Stein,  
 Yu-Chuan Su,  E. J. Sundstrom,  Zhen Tao,  J. Thirman,  T. Tsuchimochi,  
 N. M. Tubman,  S. P. Veccham,  O. Vydrov,  J. Wenzel,  J. Witte,  A. Yamada,  
 Kun Yao,  S. Yeganeh,  S. R. Yost,  A. Zech,  Igor Ying Zhang,  Xing Zhang,  
 Yu Zhang,  D. Zuev,  A. Aspuru-Guzik,  A. T. Bell,  N. A. Besley,  
 K. B. Bravaya,  B. R. Brooks,  D. Casanova,  Jeng-Da Chai,  S. Coriani,  
 C. J. Cramer,  A. E. DePrince, III,  R. A. DiStasio Jr.,  A. Dreuw,  
 B. D. Dunietz,  T. R. Furlani,  W. A. Goddard III,  S. Grimme,  
 S. Hammes-Schiffer,  T. Head-Gordon,  W. J. Hehre,  Chao-Ping Hsu,  
 T.-C. Jagau,  Yousung Jung,  A. Klamt,  Jing Kong,  D. S. Lambrecht,  
 WanZhen Liang,  N. J. Mayhall,  C. W. McCurdy,  J. B. Neaton,  
 C. Ochsenfeld,  J. A. Parkhill,  R. Peverati,  V. A. Rassolov,  Yihan Shao,  
 L. V. Slipchenko,  T. Stauch,  R. P. Steele,  J. E. Subotnik,  
 A. J. W. Thom,  A. Tkatchenko,  D. G. Truhlar,  T. Van Voorhis,  
 T. A. Wesolowski,  K. B. Whaley,  H. L. Woodcock III,  P. M. Zimmerman,  
 S. Faraji,  P. M. W. Gill,  M. Head-Gordon,  J. M. Herbert,  A. I. Krylov

 Additional authors for Version 5.4.1: 
 S. Kotaru,  Shaozhi Li,  Xiangyuan Li,  F. Matz,  A. Molle,  Haisheng Ren,  
 Yingli Su,  Hung-Yi Tsai,  C. Utku,  Fang Wang

 Contributors to earlier versions of Q-Chem not listed above: 
 R. D. Adamson,  B. Austin,  R. Baer,  J. Baker,  G. J. O. Beran,  
 K. Brandhorst,  S. T. Brown,  E. F. C. Byrd,  A. K. Chakraborty,  
 G. K. L. Chan,  Chun-Min Chang,  Yunqing Chen,  C.-L. Cheng,  
 Siu Hung Chien,  D. M. Chipman,  D. L. Crittenden,  H. Dachsel,  
 R. J. Doerksen,  A. D. Dutoi,  R. G. Edgar,  J. Fosso-Tande,  
 L. Fusti-Molnar,  D. Ghosh,  A. Ghysels,  A. Golubeva-Zadorozhnaya,  
 J. Gonthier,  M. S. Gordon,  S. R. Gwaltney,  G. Hawkins,  J. E. Herr,  
 A. Heyden,  S. Hirata,  E. G. Hohenstein,  G. Kedziora,  F. J. Keil,  
 C. Kelley,  Jihan Kim,  R. A. King,  R. Z. Khaliullin,  P. P. Korambath,  
 W. Kurlancheek,  A. Laurent,  A. M. Lee,  M. S. Lee,  S. V. Levchenko,  
 Ching Yeh Lin,  D. Liotard,  E. Livshits,  R. C. Lochan,  I. Lotan,  
 L. A. Martinez-Martinez,  P. E. Maslen,  N. Nair,  D. P. O'Neill,  
 D. Neuhauser,  E. Neuscamman,  C. M. Oana,  R. Olivares-Amaya,  R. Olson,  
 T. M. Perrine,  B. Peters,  P. A. Pieniazek,  A. Prociuk,  Y. M. Rhee,  
 J. Ritchie,  M. A. Rohrdanz,  E. Rosta,  N. J. Russ,  H. F. Schaefer III,  
 M. W. Schmidt,  N. E. Schultz,  S. Sharma,  N. Shenvi,  C. D. Sherrill,  
 A. C. Simmonett,  A. Sodt,  T. Stein,  D. Stuck,  K. S. Thanthiriwatte,  
 V. Vanovschi,  L. Vogt,  Tao Wang,  A. Warshel,  M. A. Watson,  
 C. F. Williams,  Q. Wu,  X. Xu,  Jun Yang,  W. Zhang,  Yan Zhao

 Please cite Q-Chem as follows:
 Y. Shao et al., Mol. Phys. 113, 184-215 (2015)
 DOI: 10.1080/00268976.2014.952696

 Q-Chem 5.4.1 for Intel X86 EM64T Linux

 Parts of Q-Chem use Armadillo 9.800.1 (Horizon Scraper).
 http://arma.sourceforge.net/

 Q-Chem begins on Mon Mar 20 18:09:02 2023  

 Host: cpu186.baobab
0

     Scratch files written to /scratch/fum/qchem69393//
 Processing $rem in /home/share/wesolowski/qc5.aug2021.FDE/config/preferences:
 Processing $rem in /home/fum/.qchemrc:

 Checking the input file for inconsistencies... 	...done.

--------------------------------------------------------------
User input:
--------------------------------------------------------------
$comment
generated from CCJob.Templates
$end

$rem
sym_ignore = true
method = adc(2)
ee_states = 10
basis = cc-pVDZ
mem_static = 1024
mem_total = 40000
adc_davidson_maxiter = 900
adc_davidson_conv = 6
adc_print = 3
adc_prop_es = true
adc_prop_es2es = true
adc_prop_tpa = true
molden_format = True
state_analysis = true
print_orbitals = 15
gen_scfman = false
fde_export_density = true
fde_details = 3
$end

$molecule
0 1
H -0.021676935558206063 -0.24493138655754085 0.023843638572237848
C -1.0862129841310775 -0.5192442569635789 -0.014154616609096763
H -1.3066291789553024 -1.5927566722916895 -0.05493202581841464
C -2.0500913190859342 0.4016874358780379 0.04161090864747681
H -1.8200326483742904 1.4659652801788163 0.06588596915567468
H -3.1049530738723643 0.11814103484410202 -0.012791923434669152                     
$end
--------------------------------------------------------------
 ----------------------------------------------------------------
             Standard Nuclear Orientation (Angstroms)
    I     Atom           X                Y                Z
 ----------------------------------------------------------------
    1      H      -0.0216769356    -0.2449313866     0.0238436386
    2      C      -1.0862129841    -0.5192442570    -0.0141546166
    3      H      -1.3066291790    -1.5927566723    -0.0549320258
    4      C      -2.0500913191     0.4016874359     0.0416109086
    5      H      -1.8200326484     1.4659652802     0.0658859692
    6      H      -3.1049530739     0.1181410348    -0.0127919234
 ----------------------------------------------------------------
 Nuclear Repulsion Energy =          33.19323338 hartrees
 There are        8 alpha and        8 beta electrons
 Requested basis set is cc-pVDZ
 There are 24 shells and 48 basis functions
 Total memory of 40000 MB is distributed as follows: 
   MEM_STATIC is set to 1024 MB
   QALLOC/CCMAN JOB total memory use is  38976 MB
 Warning: actual memory use might exceed 40000 MB

 Total QAlloc Memory Limit  40000 MB
 Mega-Array Size      1001 MB
 MEM_STATIC part      1024 MB

                       Distance Matrix (Angstroms)
             H (  1)   C (  2)   H (  3)   C (  4)   H (  5)
   C (  2)  1.099967
   H (  3)  1.863851  1.096665
   C (  4)  2.129060  1.334274  2.130696
   H (  5)  2.482543  2.118007  3.103862  1.089130
   H (  6)  3.104796  2.116973  2.482522  1.093660  1.863824

 A cutoff of  1.0D-11 yielded    300 shell pairs
 There are      1220 function pairs (      1329 Cartesian)
 Smallest overlap matrix eigenvalue = 4.83E-03

 Scale SEOQF with 1.000000e-01/1.000000e-01/1.000000e+00

 Standard Electronic Orientation quadrupole field applied
 Nucleus-field energy     =     0.0000000022 hartrees
 Guess from superposition of atomic densities
 Warning:  Energy on first SCF cycle will be non-variational
 SAD guess density has 16.000000 electrons
 A restricted Hartree-Fock SCF calculation will be
 performed using Pulay DIIS extrapolation
 SCF converges when DIIS error is below 1.0E-08
 using 10 threads for integral computing
 -------------------------------------------------------
 OpenMP Integral computing Module                
 Release: version 1.0, May 2013, Q-Chem Inc. Pittsburgh 
 -------------------------------------------------------
 ---------------------------------------
  Cycle       Energy         DIIS Error
 ---------------------------------------
    1     -78.3947404617      9.91E-02
    2     -78.0172946345      7.12E-03
    3     -78.0377383943      1.82E-03
    4     -78.0392131934      5.63E-04
    5     -78.0393303303      5.89E-05
    6     -78.0393322154      1.08E-05
    7     -78.0393322851      4.34E-06
    8     -78.0393322920      1.04E-06
    9     -78.0393322928      2.08E-07
   10     -78.0393322928      6.56E-08
   11     -78.0393322928      7.33E-09 Convergence criterion met
 ---------------------------------------
 SCF time:  CPU 2.16 s  wall 3.67 s
 SCF   energy in the final basis set = -78.03933229
 Total energy in the final basis set = -78.03933229
Exporting Density Matrix to file 'Densmat_SCF.txt'.
Export successful
================================================================================
|                                                                              |
|                                 A D C  M A N                                 |
|                                                                              |
 ------------------------------------------------------------------------------ 
|                                                                              |
| Components:                                                                  |
|                                                                              |
| - libvmm - 1.3-trunk                                                         |
|   Authors:                                                                   |
|   Evgeny Epifanovsky, Ilya Kaliman                                           |
|                                                                              |
| - libtensor - 2.5-trunk                                                      |
|   Authors:                                                                   |
|   Evgeny Epifanovsky, Michael Wormit, Dmitry Zuev, Sam Manzer,               |
|   Ilya Kaliman                                                               |
|                                                                              |
| - libwfa - 1.1-trunk                                                         |
|   Authors:                                                                   |
|   Felix Plasser, Stefanie Mewes (Baeppler), Benjamin Thomitzni,              |
|   Michael Wormit, Feng Chen, Anna I. Krylov, Pavel Pokhilko                  |
|                                                                              |
| - libadc - 1.1-trunk                                                         |
|   Authors:                                                                   |
|   Michael Wormit, Adrian L. Dempwolff, Philipp H. P. Harbach,                |
|   Caroline Krauter, Dirk Rehn, Matthias Schneider, Jan Wenzel                |
|                                                                              |
| - adcman - 2.6-trunk                                                         |
|   Authors:                                                                   |
|   Michael Wormit, Adrian L. Dempwolff, Philipp H. P. Harbach,                |
|   Caroline Krauter, Daniel Lefrancois, Jan-Michael Mewes, Dirk Rehn,         |
|   Matthias Schneider, Jan Wenzel, Andreas Dreuw                              |
|                                                                              |
| Authors of earlier versions of ADCMAN:                                       |
| Andreas Dreuw, Jan Hendrik Starcke, Dirk Rehn, Michael Wormit                |
|                                                                              |
================================================================================

 Created directory /scratch/fum/qchem69393/plots
  Import QC data ...  CPU 0.00 s  wall 0.00 s

 Alpha MOs, Restricted
 -- Occupied --                  
-11.239 -11.237  -1.030  -0.786  -0.635  -0.582  -0.499  -0.374
  1 A     2 A     3 A     4 A     5 A     6 A     7 A     8 A                  
 -- Virtual --                   
  0.167   0.203   0.231   0.236   0.303   0.462   0.580   0.609
  9 A    10 A    11 A    12 A    13 A    14 A    15 A    16 A                  
  0.689   0.705   0.775   0.807   0.858   0.927   0.970   1.005
 17 A    18 A    19 A    20 A    21 A    22 A    23 A    24 A                  
  1.122   1.236   1.247   1.262   1.292   1.592   1.727   1.744
 25 A    26 A    27 A    28 A    29 A    30 A    31 A    32 A                  
  1.811   1.850   1.856   1.901   1.963   1.971   2.221   2.248
 33 A    34 A    35 A    36 A    37 A    38 A    39 A    40 A                  
  2.354   2.422   2.492   2.620   2.678   2.795   3.096   3.363
 41 A    42 A    43 A    44 A    45 A    46 A    47 A    48 A                  

 Beta MOs, Restricted
 -- Occupied --                  
-11.239 -11.237  -1.030  -0.786  -0.635  -0.582  -0.499  -0.374
  1 A     2 A     3 A     4 A     5 A     6 A     7 A     8 A                  
 -- Virtual --                   
  0.167   0.203   0.231   0.236   0.303   0.462   0.580   0.609
  9 A    10 A    11 A    12 A    13 A    14 A    15 A    16 A                  
  0.689   0.705   0.775   0.807   0.858   0.927   0.970   1.005
 17 A    18 A    19 A    20 A    21 A    22 A    23 A    24 A                  
  1.122   1.236   1.247   1.262   1.292   1.592   1.727   1.744
 25 A    26 A    27 A    28 A    29 A    30 A    31 A    32 A                  
  1.811   1.850   1.856   1.901   1.963   1.971   2.221   2.248
 33 A    34 A    35 A    36 A    37 A    38 A    39 A    40 A                  
  2.354   2.422   2.492   2.620   2.678   2.795   3.096   3.363
 41 A    42 A    43 A    44 A    45 A    46 A    47 A    48 A                  
  Import AO data ...  CPU 0.00 s  wall 0.00 s
  Using point group: C1
  Irreducible representations in point group: A
  Molecular orbitals: 
  Occupied MOs:
  Block   0:   1 (  A) A   2 (  A) A   3 (  A) A   4 (  A) A   5 (  A) A
                  -11.24      -11.24       -1.03     -0.7857     -0.6349
               6 (  A) A   7 (  A) A   8 (  A) A
                 -0.5819     -0.4994     -0.3743
  Block   1:   1 (  A) B   2 (  A) B   3 (  A) B   4 (  A) B   5 (  A) B
                  -11.24      -11.24       -1.03     -0.7857     -0.6349
               6 (  A) B   7 (  A) B   8 (  A) B
                 -0.5819     -0.4994     -0.3743
  Virtual MOs:
  Block   0:   9 (  A) A  10 (  A) A  11 (  A) A  12 (  A) A  13 (  A) A
                  0.1675      0.2026       0.231      0.2364      0.3029
              14 (  A) A  15 (  A) A  16 (  A) A  17 (  A) A  18 (  A) A
                  0.4623      0.5799      0.6089      0.6889       0.705
              19 (  A) A  20 (  A) A  21 (  A) A  22 (  A) A
                  0.7755      0.8072      0.8584      0.9273
  Block   1:  23 (  A) A  24 (  A) A  25 (  A) A  26 (  A) A  27 (  A) A
                  0.9699       1.005       1.122       1.236       1.247
              28 (  A) A  29 (  A) A  30 (  A) A  31 (  A) A  32 (  A) A
                   1.262       1.292       1.592       1.727       1.744
              33 (  A) A  34 (  A) A  35 (  A) A  36 (  A) A
                   1.811        1.85       1.856       1.901
  Block   2:  37 (  A) A  38 (  A) A  39 (  A) A  40 (  A) A  41 (  A) A
                   1.963       1.971       2.221       2.248       2.354
              42 (  A) A  43 (  A) A  44 (  A) A  45 (  A) A  46 (  A) A
                   2.422       2.492        2.62       2.678       2.795
              47 (  A) A  48 (  A) A
                   3.096       3.363
  Block   3:   9 (  A) B  10 (  A) B  11 (  A) B  12 (  A) B  13 (  A) B
                  0.1675      0.2026       0.231      0.2364      0.3029
              14 (  A) B  15 (  A) B  16 (  A) B  17 (  A) B  18 (  A) B
                  0.4623      0.5799      0.6089      0.6889       0.705
              19 (  A) B  20 (  A) B  21 (  A) B  22 (  A) B
                  0.7755      0.8072      0.8584      0.9273
  Block   4:  23 (  A) B  24 (  A) B  25 (  A) B  26 (  A) B  27 (  A) B
                  0.9699       1.005       1.122       1.236       1.247
              28 (  A) B  29 (  A) B  30 (  A) B  31 (  A) B  32 (  A) B
                   1.262       1.292       1.592       1.727       1.744
              33 (  A) B  34 (  A) B  35 (  A) B  36 (  A) B
                   1.811        1.85       1.856       1.901
  Block   5:  37 (  A) B  38 (  A) B  39 (  A) B  40 (  A) B  41 (  A) B
                   1.963       1.971       2.221       2.248       2.354
              42 (  A) B  43 (  A) B  44 (  A) B  45 (  A) B  46 (  A) B
                   2.422       2.492        2.62       2.678       2.795
              47 (  A) B  48 (  A) B
                   3.096       3.363
  Import MO data ...  CPU 0.08 s  wall 0.03 s
  Import HF data ...  CPU 0.79 s  wall 0.22 s
  Import 2e integrals ...  CPU 0.99 s  wall 0.18 s

--------------------------------------------------------------------------------
                                   HF Summary                                   
--------------------------------------------------------------------------------
  Energy:                                                  -78.0393322928 a.u.
  Dip. moment [a.u.]:                  [   0.000968,   -0.000259,   -0.008879]
  Total dipole [Debye]:                                               0.022712
  <r^2> [a.u.]:                        [ 176.809888,   35.329338,   11.689874]
  Total <r^2> [a.u.]:                                               223.829099
--------------------------------------------------------------------------------
  HF properties ...  CPU 0.04 s  wall 0.05 s
  MP(1) calculation ...  CPU 0.01 s  wall 0.06 s
  N^6 prerequesite intermediates ...  CPU 0.69 s  wall 0.26 s
  Difference density matrix of state mp2_gs printed to ASCII file 'State_mp2_gs_Difference.txt'
Exporting MP density matrix to file 'Densmat_MP.txt'.
Export successful
  Total density matrix of state mp2_gs printed to ASCII file 'State_mp2_gs_Total.txt'
Exporting MP density matrix to file 'Densmat_MP.txt'.
Export successful

--------------------------------------------------------------------------------
                                 MP(2) Summary                                  
--------------------------------------------------------------------------------
  MP energy contribution:                                   -0.2806079514 a.u.
  Total energy:                                            -78.3199402442 a.u.
  Dip. moment [a.u.]:                  [   0.000739,   -0.000093,   -0.008750]
  Total dipole [Debye]:                                               0.022320
  <r^2> [a.u.]:                        [ 176.847310,   35.366407,   11.516422]
  Total <r^2> [a.u.]:                                               223.730139

  Density matrix analysis:
  ------------------------
  NOs
    Occupation of frontier NOs:
       0.0456   1.9379
    Number of electrons: 16.000000
    Number of unpaired electrons: n_u =  0.40777, n_u,nl =  0.04595
    NO participation ratio (PR_NO): 13.885807
  
  
  Mulliken Population Analysis
  Atom      Charge (e)              h+              e-           Del q
  --------------------------------------------------------------------
   1 H        0.055820        0.013899       -0.011336        0.002563
   2 C       -0.115765        0.095033       -0.100279       -0.005246
   3 H        0.055633        0.013890       -0.011342        0.002548
   4 C       -0.105193        0.094505       -0.099591       -0.005085
   5 H        0.054497        0.013922       -0.011309        0.002613
   6 H        0.055008        0.013913       -0.011305        0.002607
  --------------------------------------------------------------------
  Sum:       -0.000000        0.245162       -0.245162       -0.000000
  
  Multipole moment analysis of the density matrix
    Molecular charge:                      -0.000000
    Number of electrons:                   16.000000
      Center of electronic charge [Ang]: [ -1.566969,  -0.059930,   0.011961]
    Total nuclear charge:                  16.000000
      Center of nuclear charge [Ang]:    [ -1.566945,  -0.059933,   0.011671]
    Dipole moment [D]:                     0.022320
      Cartesian components [D]:          [  0.001877,  -0.000235,  -0.022240]
    RMS size of the density [Ang]:         1.206876
      Cartesian components [Ang]:        [  0.799844,   0.784464,   0.448793]
  
  Exciton analysis of the difference density matrix
    <r_h> [Ang]:                  [ -1.566085,  -0.060991,   0.013312]
    <r_e> [Ang]:                  [ -1.565590,  -0.061349,   0.013033]
    |<r_e - r_h>| [Ang]:            0.000673
    Hole size [Ang]:                1.402158
      Cartesian components [Ang]: [  0.853369,   0.840052,   0.729466]
    Electron size [Ang]:            1.361811
      Cartesian components [Ang]: [  0.878939,   0.864862,   0.577935]
--------------------------------------------------------------------------------
  MP(2) calculation ...  CPU 0.43 s  wall 0.38 s
  Start ADC(2)-s ...  CPU 0.02 s  wall 0.02 s
  ADC(2) intermediates ...  CPU 0.18 s  wall 0.04 s
  Starting Davidson for singlet states of irrep A ... 
--------------------------------------------------------------------------------
   It NVec Conv  Avg. Norm  Max. Norm  Conv. states           Remark
--------------------------------------------------------------------------------
        10    0  1.329e-01  4.686e-01  0.4115 n n n n n n n n Guess.
    1   20    0  2.836e-02  1.655e-01  0.3257 n n n n n n n n 
    2   30    0  6.678e-03  2.901e-02  0.3209 n n n n n n n n 
    3   40    0  2.641e-03  1.518e-02  0.3205 n n n n n n n n 
    4   50    0  1.094e-03  8.295e-03  0.3205 n n n n n n n n 
    5   20    0  7.701e-04  6.291e-03  0.3205 n n n n n n n n Subspace collapsed.
    6   30    0  9.889e-04  7.868e-03  0.3205 n n n n n n n n 
    7   40    0  6.850e-04  4.836e-03  0.3205 n n n n n n n n 
    8   50    0  4.036e-04  2.859e-03  0.3205 n n n n n n n n 
    9   20    0  3.170e-04  2.275e-03  0.3205 n n n n n n n n Subspace collapsed.
   10   30    1  9.660e-05  6.742e-04  0.3205 n n n y n n n n 
   11   40    4  4.953e-05  3.521e-04  0.3205 y y y y n n n n 
   12   50    4  3.174e-05  2.210e-04  0.3205 y y y y n n n n 
   13   20    5  2.174e-05  1.600e-04  0.3205 y y y y y n n n Subspace collapsed.
   14   30    6  3.178e-05  2.577e-04  0.3205 y y y y y y n n 
   15   40    6  2.688e-05  2.270e-04  0.3205 y y y y y y n n 
   16   50    6  1.282e-05  1.081e-04  0.3205 y y y y y y n n 
   17   20    6  6.300e-06  5.271e-05  0.3205 y y y y y y n n Subspace collapsed.
   18   30    6  5.611e-06  4.728e-05  0.3205 y y y y y y n n 
   19   40    7  2.185e-06  1.758e-05  0.3205 y y y y y y y n 
   20   50    7  1.418e-06  1.174e-05  0.3205 y y y y y y y n 
   21   20    7  8.649e-07  7.157e-06  0.3205 y y y y y y y n Subspace collapsed.
   22   30    7  1.511e-06  1.260e-05  0.3205 y y y y y y y n 
   23   40    7  1.368e-06  1.079e-05  0.3205 y y y y y y y n 
   24   50    7  8.918e-07  6.480e-06  0.3205 y y y y y y y n 
   25   18    8  4.586e-07  3.307e-06  0.3205 y y y y y y y y Subspace collapsed.
   26   25    8  2.914e-07  2.137e-06  0.3205 y y y y y y y y 
   27   25    8  2.914e-07  2.137e-06  0.3205 y y y y y y y y 
   28   35    8  1.527e-07  1.092e-06  0.3205 y y y y y y y y 
   29   41   10  1.268e-07  9.309e-07  0.3205 y y y y y y y y Converged.
--------------------------------------------------------------------------------
  Davidson Summary: 
 ------------------------------------------------------------
  State  0: excitation energy =   0.3205 a.u.   (converged)
  State  1: excitation energy =   0.3286 a.u.   (converged)
  State  2: excitation energy =   0.3358 a.u.   (converged)
  State  3: excitation energy =   0.3578 a.u.   (converged)
  State  4: excitation energy =   0.3730 a.u.   (converged)
  State  5: excitation energy =   0.3861 a.u.   (converged)
  State  6: excitation energy =   0.4200 a.u.   (converged)
  State  7: excitation energy =   0.4431 a.u.   (converged)
  State  8: excitation energy =   0.4534 a.u.   (converged)
  State  9: excitation energy =   0.4584 a.u.   (converged)
 ------------------------------------------------------------

  Singlet states of irrep A ...  CPU 205.43 s  wall 64.91 s
  TDMs ...  CPU 2.15 s  wall 0.82 s
  SDMs ...  CPU 5.90 s  wall 1.64 s
  Starting TPA DIIS iterations ... 
------------------------------------ 
   It     Res. Norm  Remark
------------------------------------
                       Guess.
    1     4.387e+00  
    2     5.827e+00  
    3     1.088e+00  
    4     2.661e-01  
    5     6.618e-02  
    6     2.812e-02  
    7     8.517e-03  
    8     1.582e-03  
    9     5.940e-04  
   10     9.951e-05  
   11     3.305e-05  
   12     5.205e-06  
   13     1.994e-06  
   14     5.437e-07  Converged.
   ... Converged in 14 steps (norm: 5.4372e-07)
------------------------------------
  Starting TPA DIIS iterations ... 
------------------------------------ 
   It     Res. Norm  Remark
------------------------------------
                       Guess.
    1     4.200e+00  
    2     5.566e+00  
    3     1.037e+00  
    4     2.614e-01  
    5     6.581e-02  
    6     2.777e-02  
    7     8.350e-03  
    8     1.570e-03  
    9     5.941e-04  
   10     9.743e-05  
   11     3.261e-05  
   12     5.051e-06  
   13     2.043e-06  
   14     5.380e-07  Converged.
   ... Converged in 14 steps (norm: 5.37956e-07)
------------------------------------
  Starting TPA DIIS iterations ... 
------------------------------------ 
   It     Res. Norm  Remark
------------------------------------
                       Guess.
    1     7.970e-01  
    2     7.084e-01  
    3     2.082e-01  
    4     1.351e-01  
    5     1.707e-02  
    6     6.341e-03  
    7     1.054e-03  
    8     4.643e-04  
    9     1.274e-04  
   10     3.067e-05  
   11     6.555e-06  
   12     1.274e-06  
   13     5.902e-07  Converged.
   ... Converged in 13 steps (norm: 5.90234e-07)
------------------------------------
  Starting TPA DIIS iterations ... 
------------------------------------ 
   It     Res. Norm  Remark
------------------------------------
                       Guess.
    1     4.582e+00  
    2     6.177e+00  
    3     1.143e+00  
    4     2.863e-01  
    5     7.188e-02  
    6     3.075e-02  
    7     9.301e-03  
    8     1.727e-03  
    9     6.519e-04  
   10     1.096e-04  
   11     3.672e-05  
   12     5.823e-06  
   13     2.270e-06  
   14     6.139e-07  Converged.
   ... Converged in 14 steps (norm: 6.1392e-07)
------------------------------------
  Starting TPA DIIS iterations ... 
------------------------------------ 
   It     Res. Norm  Remark
------------------------------------
                       Guess.
    1     4.386e+00  
    2     5.900e+00  
    3     1.090e+00  
    4     2.810e-01  
    5     7.149e-02  
    6     3.037e-02  
    7     9.118e-03  
    8     1.715e-03  
    9     6.521e-04  
   10     1.073e-04  
   11     3.623e-05  
   12     5.648e-06  
   13     2.333e-06  
   14     6.108e-07  Converged.
   ... Converged in 14 steps (norm: 6.10823e-07)
------------------------------------
  Starting TPA DIIS iterations ... 
------------------------------------ 
   It     Res. Norm  Remark
------------------------------------
                       Guess.
    1     8.136e-01  
    2     7.395e-01  
    3     2.172e-01  
    4     1.412e-01  
    5     1.808e-02  
    6     6.797e-03  
    7     1.143e-03  
    8     5.203e-04  
    9     1.452e-04  
   10     3.393e-05  
   11     7.402e-06  
   12     1.436e-06  
   13     7.017e-07  Converged.
   ... Converged in 13 steps (norm: 7.0172e-07)
------------------------------------
  Starting TPA DIIS iterations ... 
------------------------------------ 
   It     Res. Norm  Remark
------------------------------------
                       Guess.
    1     4.770e+00  
    2     6.518e+00  
    3     1.197e+00  
    4     3.062e-01  
    5     7.752e-02  
    6     3.336e-02  
    7     1.008e-02  
    8     1.871e-03  
    9     7.095e-04  
   10     1.196e-04  
   11     4.044e-05  
   12     6.449e-06  
   13     2.559e-06  
   14     6.869e-07  Converged.
   ... Converged in 14 steps (norm: 6.86865e-07)
------------------------------------
  Starting TPA DIIS iterations ... 
------------------------------------ 
   It     Res. Norm  Remark
------------------------------------
                       Guess.
    1     4.565e+00  
    2     6.225e+00  
    3     1.141e+00  
    4     3.004e-01  
    5     7.710e-02  
    6     3.296e-02  
    7     9.879e-03  
    8     1.858e-03  
    9     7.098e-04  
   10     1.171e-04  
   11     3.989e-05  
   12     6.252e-06  
   13     2.635e-06  
   14     6.877e-07  Converged.
   ... Converged in 14 steps (norm: 6.87717e-07)
------------------------------------
  Starting TPA DIIS iterations ... 
------------------------------------ 
   It     Res. Norm  Remark
------------------------------------
                       Guess.
    1     8.293e-01  
    2     7.696e-01  
    3     2.257e-01  
    4     1.470e-01  
    5     1.906e-02  
    6     7.248e-03  
    7     1.233e-03  
    8     5.776e-04  
    9     1.635e-04  
   10     3.653e-05  
   11     8.266e-06  
   12     1.607e-06  
   13     8.120e-07  Converged.
   ... Converged in 13 steps (norm: 8.1205e-07)
------------------------------------
  Starting TPA DIIS iterations ... 
------------------------------------ 
   It     Res. Norm  Remark
------------------------------------
                       Guess.
    1     5.421e+00  
    2     7.732e+00  
    3     1.382e+00  
    4     3.796e-01  
    5     9.828e-02  
    6     4.311e-02  
    7     1.294e-02  
    8     2.401e-03  
    9     9.241e-04  
   10     1.570e-04  
   11     5.469e-05  
   12     8.855e-06  
   13     3.734e-06  
   14     9.901e-07  Converged.
   ... Converged in 14 steps (norm: 9.90054e-07)
------------------------------------
  Starting TPA DIIS iterations ... 
------------------------------------ 
   It     Res. Norm  Remark
------------------------------------
                       Guess.
    1     5.187e+00  
    2     7.384e+00  
    3     1.317e+00  
    4     3.717e-01  
    5     9.778e-02  
    6     4.261e-02  
    7     1.269e-02  
    8     2.388e-03  
    9     9.250e-04  
   10     1.537e-04  
   11     5.392e-05  
   12     8.570e-06  
   13     3.873e-06  
   14     1.019e-06  
   15     6.210e-07  Converged.
   ... Converged in 15 steps (norm: 6.21029e-07)
------------------------------------
  Starting TPA DIIS iterations ... 
------------------------------------ 
   It     Res. Norm  Remark
------------------------------------
                       Guess.
    1     8.828e-01  
    2     8.760e-01  
    3     2.543e-01  
    4     1.666e-01  
    5     2.254e-02  
    6     8.905e-03  
    7     1.575e-03  
    8     7.963e-04  
    9     2.325e-04  
   10     4.162e-05  
   11     1.171e-05  
   12     2.335e-06  
   13     1.192e-06  
   14     3.994e-07  Converged.
   ... Converged in 14 steps (norm: 3.99404e-07)
------------------------------------
  Starting TPA DIIS iterations ... 
------------------------------------ 
   It     Res. Norm  Remark
------------------------------------
                       Guess.
    1     5.965e+00  
    2     8.779e+00  
    3     1.535e+00  
    4     4.455e-01  
    5     1.169e-01  
    6     5.197e-02  
    7     1.551e-02  
    8     2.876e-03  
    9     1.120e-03  
   10     1.909e-04  
   11     6.808e-05  
   12     1.112e-05  
   13     4.929e-06  
   14     1.317e-06  
   15     7.825e-07  Converged.
   ... Converged in 15 steps (norm: 7.82543e-07)
------------------------------------
  Starting TPA DIIS iterations ... 
------------------------------------ 
   It     Res. Norm  Remark
------------------------------------
                       Guess.
    1     5.706e+00  
    2     8.383e+00  
    3     1.463e+00  
    4     4.355e-01  
    5     1.163e-01  
    6     5.138e-02  
    7     1.521e-02  
    8     2.863e-03  
    9     1.121e-03  
   10     1.869e-04  
   11     6.711e-05  
   12     1.074e-05  
   13     5.138e-06  
   14     1.390e-06  
   15     8.694e-07  Converged.
   ... Converged in 15 steps (norm: 8.69405e-07)
------------------------------------
  Starting TPA DIIS iterations ... 
------------------------------------ 
   It     Res. Norm  Remark
------------------------------------
                       Guess.
    1     9.265e-01  
    2     9.673e-01  
    3     2.772e-01  
    4     1.824e-01  
    5     2.552e-02  
    6     1.039e-02  
    7     1.897e-03  
    8     9.898e-04  
    9     2.926e-04  
   10     4.289e-05  
   11     1.522e-05  
   12     3.180e-06  
   13     1.482e-06  
   14     5.559e-07  Converged.
   ... Converged in 14 steps (norm: 5.55925e-07)
------------------------------------
  Starting TPA DIIS iterations ... 
------------------------------------ 
   It     Res. Norm  Remark
------------------------------------
                       Guess.
    1     6.507e+00  
    2     9.853e+00  
    3     1.687e+00  
    4     5.150e-01  
    5     1.365e-01  
    6     6.141e-02  
    7     1.823e-02  
    8     3.378e-03  
    9     1.328e-03  
   10     2.271e-04  
   11     8.268e-05  
   12     1.357e-05  
   13     6.318e-06  
   14     1.729e-06  
   15     1.048e-06  
   16     3.876e-07  Converged.
   ... Converged in 16 steps (norm: 3.87611e-07)
------------------------------------
  Starting TPA DIIS iterations ... 
------------------------------------ 
   It     Res. Norm  Remark
------------------------------------
                       Guess.
    1     6.223e+00  
    2     9.408e+00  
    3     1.607e+00  
    4     5.027e-01  
    5     1.358e-01  
    6     6.073e-02  
    7     1.787e-02  
    8     3.365e-03  
    9     1.330e-03  
   10     2.224e-04  
   11     8.150e-05  
   12     1.311e-05  
   13     6.616e-06  
   14     1.866e-06  
   15     1.169e-06  
   16     4.532e-07  Converged.
   ... Converged in 16 steps (norm: 4.5323e-07)
------------------------------------
  Starting TPA DIIS iterations ... 
------------------------------------ 
   It     Res. Norm  Remark
------------------------------------
                       Guess.
    1     9.696e-01  
    2     1.060e+00  
    3     2.992e-01  
    4     1.979e-01  
    5     2.856e-02  
    6     1.196e-02  
    7     2.251e-03  
    8     1.179e-03  
    9     3.520e-04  
   10     4.401e-05  
   11     1.937e-05  
   12     4.349e-06  
   13     1.794e-06  
   14     8.501e-07  Converged.
   ... Converged in 14 steps (norm: 8.50125e-07)
------------------------------------
  Starting TPA DIIS iterations ... 
------------------------------------ 
   It     Res. Norm  Remark
------------------------------------
                       Guess.
    1     8.345e+00  
    2     1.369e+01  
    3     2.193e+00  
    4     7.747e-01  
    5     2.099e-01  
    6     9.746e-02  
    7     2.841e-02  
    8     5.262e-03  
    9     2.129e-03  
   10     3.645e-04  
   11     1.397e-04  
   12     2.315e-05  
   13     1.245e-05  
   14     3.908e-06  
   15     2.316e-06  
   16     9.532e-07  Converged.
   ... Converged in 16 steps (norm: 9.53215e-07)
------------------------------------
  Starting TPA DIIS iterations ... 
------------------------------------ 
   It     Res. Norm  Remark
------------------------------------
                       Guess.
    1     7.977e+00  
    2     1.307e+01  
    3     2.088e+00  
    4     7.527e-01  
    5     2.089e-01  
    6     9.645e-02  
    7     2.783e-02  
    8     5.253e-03  
    9     2.130e-03  
   10     3.568e-04  
   11     1.380e-04  
   12     2.227e-05  
   13     1.319e-05  
   14     4.413e-06  
   15     2.603e-06  
   16     1.100e-06  
   17     5.186e-07  Converged.
   ... Converged in 17 steps (norm: 5.18583e-07)
------------------------------------
  Starting TPA DIIS iterations ... 
------------------------------------ 
   It     Res. Norm  Remark
------------------------------------
                       Guess.
    1     1.114e+00  
    2     1.392e+00  
    3     3.686e-01  
    4     2.482e-01  
    5     3.929e-02  
    6     1.780e-02  
    7     3.666e-03  
    8     1.688e-03  
    9     5.400e-04  
   10     6.248e-05  
   11     3.840e-05  
   12     1.142e-05  
   13     3.953e-06  
   14     2.821e-06  
   15     6.133e-07  Converged.
   ... Converged in 15 steps (norm: 6.13256e-07)
------------------------------------
  Starting TPA DIIS iterations ... 
------------------------------------ 
   It     Res. Norm  Remark
------------------------------------
                       Guess.
    1     1.013e+01  
    2     1.767e+01  
    3     2.673e+00  
    4     1.055e+00  
    5     2.897e-01  
    6     1.376e-01  
    7     3.948e-02  
    8     7.326e-03  
    9     3.027e-03  
   10     5.160e-04  
   11     2.037e-04  
   12     3.415e-05  
   13     2.026e-05  
   14     7.277e-06  
   15     4.221e-06  
   16     1.792e-06  
   17     7.812e-07  Converged.
   ... Converged in 17 steps (norm: 7.81162e-07)
------------------------------------
  Starting TPA DIIS iterations ... 
------------------------------------ 
   It     Res. Norm  Remark
------------------------------------
                       Guess.
    1     9.681e+00  
    2     1.687e+01  
    3     2.544e+00  
    4     1.021e+00  
    5     2.883e-01  
    6     1.363e-01  
    7     3.867e-02  
    8     7.324e-03  
    9     3.024e-03  
   10     5.049e-04  
   11     2.021e-04  
   12     3.275e-05  
   13     2.166e-05  
   14     8.322e-06  
   15     4.730e-06  
   16     2.053e-06  
   17     8.450e-07  Converged.
   ... Converged in 17 steps (norm: 8.44955e-07)
------------------------------------
  Starting TPA DIIS iterations ... 
------------------------------------ 
   It     Res. Norm  Remark
------------------------------------
                       Guess.
    1     1.253e+00  
    2     1.735e+00  
    3     4.301e-01  
    4     2.952e-01  
    5     5.027e-02  
    6     2.389e-02  
    7     5.278e-03  
    8     1.956e-03  
    9     7.056e-04  
   10     9.745e-05  
   11     6.312e-05  
   12     2.232e-05  
   13     6.508e-06  
   14     5.529e-06  
   15     9.956e-07  Converged.
   ... Converged in 15 steps (norm: 9.95605e-07)
------------------------------------
  Starting TPA DIIS iterations ... 
------------------------------------ 
   It     Res. Norm  Remark
------------------------------------
                       Guess.
    1     1.113e+01  
    2     2.001e+01  
    3     2.937e+00  
    4     1.221e+00  
    5     3.376e-01  
    6     1.621e-01  
    7     4.615e-02  
    8     8.575e-03  
    9     3.579e-03  
   10     6.077e-04  
   11     2.428e-04  
   12     4.121e-05  
   13     2.536e-05  
   14     9.687e-06  
   15     5.664e-06  
   16     2.412e-06  
   17     9.919e-07  Converged.
   ... Converged in 17 steps (norm: 9.91876e-07)
------------------------------------
  Starting TPA DIIS iterations ... 
------------------------------------ 
   It     Res. Norm  Remark
------------------------------------
                       Guess.
    1     1.064e+01  
    2     1.910e+01  
    3     2.795e+00  
    4     1.180e+00  
    5     3.360e-01  
    6     1.606e-01  
    7     4.518e-02  
    8     8.578e-03  
    9     3.572e-03  
   10     5.942e-04  
   11     2.415e-04  
   12     3.942e-05  
   13     2.720e-05  
   14     1.110e-05  
   15     6.314e-06  
   16     2.761e-06  
   17     1.074e-06  
   18     5.153e-07  Converged.
   ... Converged in 18 steps (norm: 5.15312e-07)
------------------------------------
  Starting TPA DIIS iterations ... 
------------------------------------ 
   It     Res. Norm  Remark
------------------------------------
                       Guess.
    1     1.332e+00  
    2     1.936e+00  
    3     4.625e-01  
    4     3.208e-01  
    5     5.665e-02  
    6     2.733e-02  
    7     6.251e-03  
    8     2.044e-03  
    9     7.937e-04  
   10     1.196e-04  
   11     7.877e-05  
   12     2.955e-05  
   13     7.845e-06  
   14     7.348e-06  
   15     1.319e-06  
   16     9.802e-07  Converged.
   ... Converged in 16 steps (norm: 9.80221e-07)
------------------------------------
  Starting TPA DIIS iterations ... 
------------------------------------ 
   It     Res. Norm  Remark
------------------------------------
                       Guess.
    1     1.167e+01  
    2     2.128e+01  
    3     3.077e+00  
    4     1.312e+00  
    5     3.640e-01  
    6     1.758e-01  
    7     4.983e-02  
    8     9.268e-03  
    9     3.887e-03  
   10     6.585e-04  
   11     2.647e-04  
   12     4.530e-05  
   13     2.828e-05  
   14     1.112e-05  
   15     6.556e-06  
   16     2.792e-06  
   17     1.122e-06  
   18     5.611e-07  Converged.
   ... Converged in 18 steps (norm: 5.61108e-07)
------------------------------------
  Starting TPA DIIS iterations ... 
------------------------------------ 
   It     Res. Norm  Remark
------------------------------------
                       Guess.
    1     1.115e+01  
    2     2.032e+01  
    3     2.928e+00  
    4     1.267e+00  
    5     3.624e-01  
    6     1.741e-01  
    7     4.878e-02  
    8     9.274e-03  
    9     3.877e-03  
   10     6.437e-04  
   11     2.636e-04  
   12     4.328e-05  
   13     3.038e-05  
   14     1.274e-05  
   15     7.285e-06  
   16     3.196e-06  
   17     1.215e-06  
   18     5.814e-07  Converged.
   ... Converged in 18 steps (norm: 5.8142e-07)
------------------------------------
  Starting TPA DIIS iterations ... 
------------------------------------ 
   It     Res. Norm  Remark
------------------------------------
                       Guess.
    1     1.374e+00  
    2     2.046e+00  
    3     4.794e-01  
    4     3.344e-01  
    5     6.013e-02  
    6     2.915e-02  
    7     6.784e-03  
    8     2.081e-03  
    9     8.396e-04  
   10     1.317e-04  
   11     8.744e-05  
   12     3.360e-05  
   13     8.570e-06  
   14     8.398e-06  
   15     1.516e-06  
   16     1.142e-06  
   17     4.615e-07  Converged.
   ... Converged in 17 steps (norm: 4.61471e-07)
------------------------------------
  Two-photon absorbption ...  CPU 176.30 s  wall 46.44 s
  Transition density matrix of state singlet_A_1 printed to ASCII file 'State_singlet_A_1_Transition.txt'
  Transition density matrix of state singlet_A_2 printed to ASCII file 'State_singlet_A_2_Transition.txt'
  Transition density matrix of state singlet_A_3 printed to ASCII file 'State_singlet_A_3_Transition.txt'
  Transition density matrix of state singlet_A_4 printed to ASCII file 'State_singlet_A_4_Transition.txt'
  Transition density matrix of state singlet_A_5 printed to ASCII file 'State_singlet_A_5_Transition.txt'
  Transition density matrix of state singlet_A_6 printed to ASCII file 'State_singlet_A_6_Transition.txt'
  Transition density matrix of state singlet_A_7 printed to ASCII file 'State_singlet_A_7_Transition.txt'
  Transition density matrix of state singlet_A_8 printed to ASCII file 'State_singlet_A_8_Transition.txt'
  Transition density matrix of state singlet_A_9 printed to ASCII file 'State_singlet_A_9_Transition.txt'
  Transition density matrix of state singlet_A_10 printed to ASCII file 'State_singlet_A_10_Transition.txt'
  Transition properties ...  CPU 0.37 s  wall 1.00 s
  Difference density matrix of state singlet_A_1 printed to ASCII file 'State_singlet_A_1_Difference.txt'
  Total density matrix of state singlet_A_1 printed to ASCII file 'State_singlet_A_1_Total.txt'
  Difference density matrix of state singlet_A_2 printed to ASCII file 'State_singlet_A_2_Difference.txt'
  Total density matrix of state singlet_A_2 printed to ASCII file 'State_singlet_A_2_Total.txt'
  Difference density matrix of state singlet_A_3 printed to ASCII file 'State_singlet_A_3_Difference.txt'
  Total density matrix of state singlet_A_3 printed to ASCII file 'State_singlet_A_3_Total.txt'
  Difference density matrix of state singlet_A_4 printed to ASCII file 'State_singlet_A_4_Difference.txt'
  Total density matrix of state singlet_A_4 printed to ASCII file 'State_singlet_A_4_Total.txt'
  Difference density matrix of state singlet_A_5 printed to ASCII file 'State_singlet_A_5_Difference.txt'
  Total density matrix of state singlet_A_5 printed to ASCII file 'State_singlet_A_5_Total.txt'
  Difference density matrix of state singlet_A_6 printed to ASCII file 'State_singlet_A_6_Difference.txt'
  Total density matrix of state singlet_A_6 printed to ASCII file 'State_singlet_A_6_Total.txt'
  Difference density matrix of state singlet_A_7 printed to ASCII file 'State_singlet_A_7_Difference.txt'
  Total density matrix of state singlet_A_7 printed to ASCII file 'State_singlet_A_7_Total.txt'
  Difference density matrix of state singlet_A_8 printed to ASCII file 'State_singlet_A_8_Difference.txt'
  Total density matrix of state singlet_A_8 printed to ASCII file 'State_singlet_A_8_Total.txt'
  Difference density matrix of state singlet_A_9 printed to ASCII file 'State_singlet_A_9_Difference.txt'
  Total density matrix of state singlet_A_9 printed to ASCII file 'State_singlet_A_9_Total.txt'
  Difference density matrix of state singlet_A_10 printed to ASCII file 'State_singlet_A_10_Difference.txt'
  Total density matrix of state singlet_A_10 printed to ASCII file 'State_singlet_A_10_Total.txt'
  Properties ...  CPU 0.67 s  wall 1.09 s
  ISR TDMS ...  CPU 30.07 s  wall 9.54 s
  ISR transition properties ...  CPU 0.50 s  wall 0.24 s
  Sum-over-states TPA ...  CPU 0.00 s  wall 0.00 s

--------------------------------------------------------------------------------
                   State-averaged natural transition orbitals
--------------------------------------------------------------------------------
--------------------------------------------------------------------------------
  SA-NTO decomposition ...  CPU 0.01 s  wall 0.04 s

--------------------------------------------------------------------------------
                             Excited State Summary
--------------------------------------------------------------------------------
--------------------------------------------------------------------------------

  Excited state 1 (singlet, A)                                     [converged]
  ----------------------------------------------------------------------------
  Term symbol:  2 (1) A                                     R^2 =  2.13149e-13

  Total energy:                                            -77.9994476229 a.u.
  Excitation energy:                                               8.721048 eV

  Osc. strength:                                                      0.444294
  Trans. dip. moment [a.u.]:           [  -1.043885,    0.992765,    0.064421]
  <i|r^2|0> [a.u.]:                    [  -6.182538,    0.227889,   -0.004812]
  Two-photon absorption cross-section (SoS) [a.u.]:                   0.005783
  Two-photon absorption matrix (SoS) [a.u.]:
                                       |    0.011854    0.016654   -0.005676 |
                                       |    0.016654    0.015911    0.007736 |
                                       |   -0.005676    0.007736   -0.015382 |
  Two-photon absorption cross-section [a.u.]:                         0.010785
  Two-photon absorption matrix [a.u.]:
                                       |   -0.016512    0.006031   -0.013883 |
                                       |    0.006031   -0.014982    0.013401 |
                                       |   -0.013883    0.013401   -0.015974 |

  Dip. moment [a.u.]:                  [   0.002108,   -0.001290,   -0.010814]
  Total dipole [Debye]:                                               0.028196
  <r^2> [a.u.]:                        [ 177.611886,   36.073811,   11.924260]
  Total <r^2> [a.u.]:                                               225.609956

  V1^2 = 0.9712, V2^2 = 0.0288

  Important amplitudes:
      occ i     occ j     vir a      vir b          v   
    -----------------------------------------------------
     8 (A) A              9 (A) A                 0.6806
     6 (A) A             14 (A) A                 0.0618
     4 (A) A             10 (A) A                 0.0611
     7 (A) A             16 (A) A                -0.0572
     5 (A) A             13 (A) A                -0.0527
     6 (A) A             23 (A) A                 0.0485
     8 (A) A             20 (A) A                -0.0347
     6 (A) A             19 (A) A                 0.0302
     3 (A) A             12 (A) A                -0.0284
     5 (A) A             22 (A) A                 0.0217
     4 (A) A             24 (A) A                 0.0188
     7 (A) A             11 (A) A                -0.0186
     3 (A) A             26 (A) A                -0.0186
     8 (A) A   8 (A) B   17 (A) A   20 (A) B      0.0183
     8 (A) A             10 (A) A                 0.0181
     8 (A) A   8 (A) B    9 (A) A   28 (A) B      0.0168
     6 (A) A             26 (A) A                -0.0163
     7 (A) A             21 (A) A                 0.0152
     3 (A) A             14 (A) A                 0.0143
     6 (A) A             12 (A) A                 0.0135
     3 (A) A   4 (A) B    9 (A) A    9 (A) B     -0.0129
     3 (A) A             19 (A) A                 0.0120
     8 (A) A   8 (A) B   18 (A) A   19 (A) B     -0.0110
     7 (A) A             32 (A) A                 0.0096
     7 (A) A             36 (A) A                -0.0085
     3 (A) A             23 (A) A                 0.0082
     8 (A) A   8 (A) B   25 (A) A   29 (A) B      0.0073
     4 (A) A              9 (A) A                 0.0071
     6 (A) A             40 (A) A                -0.0066
     3 (A) A   6 (A) B    9 (A) A   28 (A) B      0.0065
     5 (A) A   8 (A) B   11 (A) A    9 (A) B     -0.0062
     7 (A) A   8 (A) B   13 (A) A   20 (A) B     -0.0060
     5 (A) A   7 (A) B    9 (A) A    9 (A) B     -0.0060
     5 (A) A   8 (A) B   11 (A) A   20 (A) B     -0.0060
     6 (A) A   8 (A) A   19 (A) A   28 (A) A     -0.0059
     6 (A) A             35 (A) A                -0.0059
     5 (A) A   8 (A) B   16 (A) A    9 (A) B      0.0059
     5 (A) A             27 (A) A                -0.0059
     7 (A) A   8 (A) B   22 (A) A   20 (A) B      0.0057
     3 (A) A   5 (A) B    9 (A) A   25 (A) B     -0.0056
    -----------------------------------------------------

  Density matrix analysis:
  ------------------------
  NOs
    Occupation of frontier NOs:
       0.9493   1.0217
    Number of electrons: 16.000000
    Number of unpaired electrons: n_u =  2.31707, n_u,nl =  2.03334
    NO participation ratio (PR_NO):  2.873512
  
  
  Mulliken Population Analysis
  Atom      Charge (e)              h+              e-           Del q
  --------------------------------------------------------------------
   1 H        0.063414        0.020572       -0.012978        0.007594
   2 C       -0.131042        0.490411       -0.505687       -0.015276
   3 H        0.063306        0.020606       -0.012933        0.007673
   4 C       -0.119132        0.490797       -0.504736       -0.013939
   5 H        0.061508        0.020557       -0.013545        0.007011
   6 H        0.061946        0.020532       -0.013594        0.006938
  --------------------------------------------------------------------
  Sum:       -0.000000        1.063474       -1.063474       -0.000000
  
  Multipole moment analysis of the density matrix
    Molecular charge:                      -0.000000
    Number of electrons:                   16.000000
      Center of electronic charge [Ang]: [ -1.567015,  -0.059890,   0.012029]
    Total nuclear charge:                  16.000000
      Center of nuclear charge [Ang]:    [ -1.566945,  -0.059933,   0.011671]
    Dipole moment [D]:                     0.028196
      Cartesian components [D]:          [  0.005357,  -0.003278,  -0.027487]
    RMS size of the density [Ang]:         1.220373
      Cartesian components [Ang]:        [  0.808078,   0.792319,   0.456674]
  
  Exciton analysis of the difference density matrix
    <r_h> [Ang]:                  [ -1.568054,  -0.059079,   0.016367]
    <r_e> [Ang]:                  [ -1.568735,  -0.058483,   0.017395]
    |<r_e - r_h>| [Ang]:            0.001369
    Hole size [Ang]:                1.288106
      Cartesian components [Ang]: [  0.729506,   0.715516,   0.784267]
    Electron size [Ang]:            1.467004
      Cartesian components [Ang]: [  0.855200,   0.835646,   0.849959]

  Transition density matrix analysis:
  -----------------------------------
  
  CT numbers (Mulliken)
    omega =     0.9530
    <Phe> =    -0.1602
  
  Exciton analysis of the transition density matrix
    Trans. dipole moment [D]:             1.832627
      Cartesian components [D]:         [ -1.326645,   1.261678,   0.081870]
    <r_h> [Ang]:                        [ -1.568502,  -0.058579,   0.015657]
    <r_e> [Ang]:                        [ -1.568700,  -0.058566,   0.018070]
    |<r_e - r_h>| [Ang]:                  0.002421
    Hole size [Ang]:                      1.214818
      Cartesian components [Ang]:       [  0.648689,   0.637364,   0.805452]
    Electron size [Ang]:                  1.490177
      Cartesian components [Ang]:       [  0.865706,   0.844626,   0.870510]
    RMS electron-hole separation [Ang]:   1.940129
      Cartesian components [Ang]:       [  1.106338,   1.079762,   1.172276]
    Covariance(r_h, r_e) [Ang^2]:        -0.033841
    Correlation coefficient:             -0.018694
    Center-of-mass size [Ang]:            0.952461
      Cartesian components [Ang]:       [  0.528324,   0.518017,   0.599762]

  Decomposition into state-averaged NTOs
    H- 0 -> L+ 0:  0.6688 ( 89.4%)
    H- 2 -> L+ 5:  0.0830 (  1.4%)
                   omega =  95.3%
  ----------------------------------------------------------------------------


  Excited state 2 (singlet, A)                                     [converged]
  ----------------------------------------------------------------------------
  Term symbol:  3 (1) A                                     R^2 =  9.75404e-13

  Total energy:                                            -77.9913675036 a.u.
  Excitation energy:                                               8.940919 eV

  Osc. strength:                                                      0.000008
  Trans. dip. moment [a.u.]:           [   0.004187,    0.004053,    0.001439]
  <i|r^2|0> [a.u.]:                    [   0.078852,   -0.135288,    0.082546]
  Two-photon absorption cross-section (SoS) [a.u.]:                   4.579114
  Two-photon absorption matrix (SoS) [a.u.]:
                                       |    0.104253   -0.025455    0.527517 |
                                       |   -0.025455   -0.140527    0.525316 |
                                       |    0.527517    0.525316    0.063508 |
  Two-photon absorption cross-section [a.u.]:                         0.997611
  Two-photon absorption matrix [a.u.]:
                                       |    0.323615    0.023158   -0.118644 |
                                       |    0.023158   -0.303911   -0.107028 |
                                       |   -0.118644   -0.107028   -0.012289 |

  Dip. moment [a.u.]:                  [   0.031882,   -0.027118,   -0.020737]
  Total dipole [Debye]:                                               0.118727
  <r^2> [a.u.]:                        [ 176.031025,   34.442878,   13.243474]
  Total <r^2> [a.u.]:                                               223.717377

  V1^2 = 0.9540, V2^2 = 0.0460

  Important amplitudes:
      occ i     occ j     vir a      vir b          v   
    -----------------------------------------------------
     7 (A) A              9 (A) A                 0.6687
     8 (A) A             11 (A) A                -0.1496
     7 (A) A             20 (A) A                -0.0756
     5 (A) A   8 (A) B    9 (A) A    9 (A) B     -0.0315
     8 (A) A             16 (A) A                 0.0278
     8 (A) A             21 (A) A                 0.0175
     7 (A) A             10 (A) A                -0.0151
     5 (A) A             28 (A) A                 0.0150
     4 (A) A   7 (A) B    9 (A) A   19 (A) B     -0.0135
     5 (A) A   7 (A) B    9 (A) A   16 (A) B     -0.0134
     7 (A) A   8 (A) B   20 (A) A   17 (A) B      0.0106
     7 (A) A   8 (A) A    9 (A) A   28 (A) A     -0.0098
     5 (A) A   8 (A) B    9 (A) A   20 (A) B      0.0094
     4 (A) A   6 (A) B    9 (A) A   16 (A) B      0.0091
     5 (A) A   6 (A) A    9 (A) A   23 (A) A      0.0090
     5 (A) A   6 (A) A    9 (A) A   14 (A) A      0.0089
     5 (A) A   6 (A) B    9 (A) A   19 (A) B      0.0086
     8 (A) A   7 (A) B    9 (A) A   28 (A) B      0.0085
     4 (A) A   5 (A) A    9 (A) A   10 (A) A     -0.0085
     6 (A) A   7 (A) B    9 (A) A   18 (A) B     -0.0085
     5 (A) A   6 (A) B    9 (A) A   23 (A) B      0.0080
     3 (A) A   7 (A) B    9 (A) A   18 (A) B      0.0080
     5 (A) A   7 (A) A    9 (A) A   16 (A) A     -0.0078
     4 (A) A   7 (A) B   19 (A) A    9 (A) B     -0.0075
     7 (A) A   8 (A) B   17 (A) A   20 (A) B      0.0074
     4 (A) A   8 (A) B    9 (A) A   25 (A) B     -0.0074
     5 (A) A   5 (A) B    9 (A) A   13 (A) B     -0.0072
     7 (A) A   8 (A) B   19 (A) A   18 (A) B     -0.0070
     4 (A) A   5 (A) B    9 (A) A   18 (A) B      0.0069
     5 (A) A   8 (A) A    9 (A) A   20 (A) A      0.0068
     7 (A) A   7 (A) B   20 (A) A   22 (A) B      0.0066
     7 (A) A   8 (A) B   17 (A) A    9 (A) B     -0.0065
     5 (A) A   6 (A) B    9 (A) A   14 (A) B      0.0063
     5 (A) A   7 (A) B   11 (A) A   20 (A) B     -0.0062
     4 (A) A   5 (A) B   10 (A) A    9 (A) B      0.0061
     4 (A) A   7 (A) A    9 (A) A   19 (A) A     -0.0061
     5 (A) A             38 (A) A                -0.0060
     4 (A) A   6 (A) B   16 (A) A    9 (A) B      0.0058
     6 (A) A   7 (A) A   19 (A) A   28 (A) A     -0.0056
     4 (A) A   8 (A) A    9 (A) A   25 (A) A     -0.0055
    -----------------------------------------------------

  Density matrix analysis:
  ------------------------
  NOs
    Occupation of frontier NOs:
       0.9571   1.0542
    Number of electrons: 16.000000
    Number of unpaired electrons: n_u =  2.35870, n_u,nl =  2.06420
    NO participation ratio (PR_NO):  3.039491
  
  
  Mulliken Population Analysis
  Atom      Charge (e)              h+              e-           Del q
  --------------------------------------------------------------------
   1 H        0.162799        0.131505       -0.024527        0.106978
   2 C       -0.315739        0.278264       -0.478238       -0.199974
   3 H        0.156667        0.125430       -0.024396        0.101034
   4 C       -0.306602        0.267255       -0.468664       -0.201408
   5 H        0.148692        0.118285       -0.024091        0.094195
   6 H        0.154184        0.124813       -0.025638        0.099175
  --------------------------------------------------------------------
  Sum:       -0.000000        1.045553       -1.045553       -0.000000
  
  Multipole moment analysis of the density matrix
    Molecular charge:                      0.000000
    Number of electrons:                   16.000000
      Center of electronic charge [Ang]: [ -1.567999,  -0.059036,   0.012357]
    Total nuclear charge:                  16.000000
      Center of nuclear charge [Ang]:    [ -1.566945,  -0.059933,   0.011671]
    Dipole moment [D]:                     0.118727
      Cartesian components [D]:          [  0.081037,  -0.068928,  -0.052708]
    RMS size of the density [Ang]:         1.205485
      Cartesian components [Ang]:        [  0.788819,   0.774162,   0.481281]
  
  Exciton analysis of the difference density matrix
    <r_h> [Ang]:                  [ -1.549337,  -0.077408,   0.010002]
    <r_e> [Ang]:                  [ -1.565099,  -0.063730,   0.016069]
    |<r_e - r_h>| [Ang]:            0.021734
    Hole size [Ang]:                1.496303
      Cartesian components [Ang]: [  1.023967,   0.992304,   0.453595]
    Electron size [Ang]:            1.479252
      Cartesian components [Ang]: [  0.883625,   0.859797,   0.817400]

  Transition density matrix analysis:
  -----------------------------------
  
  CT numbers (Mulliken)
    omega =     0.9212
    <Phe> =    -0.0115
  
  Exciton analysis of the transition density matrix
    Trans. dipole moment [D]:             0.007628
      Cartesian components [D]:         [  0.005321,   0.005150,   0.001828]
    <r_h> [Ang]:                        [ -1.546315,  -0.080248,   0.008651]
    <r_e> [Ang]:                        [ -1.567413,  -0.061672,   0.017557]
    |<r_e - r_h>| [Ang]:                  0.029487
    Hole size [Ang]:                      1.527497
      Cartesian components [Ang]:       [  1.050103,   1.016181,   0.444868]
    Electron size [Ang]:                  1.474524
      Cartesian components [Ang]:       [  0.872037,   0.847801,   0.833671]
    RMS electron-hole separation [Ang]:   2.103322
      Cartesian components [Ang]:       [  1.349110,   1.308562,   0.944209]
    Covariance(r_h, r_e) [Ang^2]:         0.042188
    Correlation coefficient:              0.018731
    Center-of-mass size [Ang]:            1.071430
      Cartesian components [Ang]:       [  0.690412,   0.669102,   0.472858]

  Decomposition into state-averaged NTOs
    H- 1 -> L+ 0:  0.6611 ( 87.4%)
    H- 0 -> L+ 2: -0.1495 (  4.5%)
                   omega =  92.1%
  ----------------------------------------------------------------------------


  Excited state 3 (singlet, A)                                     [converged]
  ----------------------------------------------------------------------------
  Term symbol:  4 (1) A                                     R^2 =  1.08232e-13

  Total energy:                                            -77.9841175182 a.u.
  Excitation energy:                                               9.138201 eV

  Osc. strength:                                                      0.025322
  Trans. dip. moment [a.u.]:           [  -0.060704,    0.038927,    0.328486]
  <i|r^2|0> [a.u.]:                    [  -0.365932,    0.001996,   -0.011238]
  Two-photon absorption cross-section (SoS) [a.u.]:                   0.048778
  Two-photon absorption matrix (SoS) [a.u.]:
                                       |    0.010570    0.003466   -0.013937 |
                                       |    0.003466    0.003701    0.018294 |
                                       |   -0.013937    0.018294    0.080563 |
  Two-photon absorption cross-section [a.u.]:                         0.050737
  Two-photon absorption matrix [a.u.]:
                                       |    0.036430   -0.008070   -0.013583 |
                                       |   -0.008070    0.029962    0.019079 |
                                       |   -0.013583    0.019079    0.049809 |

  Dip. moment [a.u.]:                  [  -0.033220,    0.043581,    0.012847]
  Total dipole [Debye]:                                               0.143059
  <r^2> [a.u.]:                        [ 182.186914,   41.022449,   11.038844]
  Total <r^2> [a.u.]:                                               234.248207

  V1^2 = 0.9581, V2^2 = 0.0419

  Important amplitudes:
      occ i     occ j     vir a      vir b          v   
    -----------------------------------------------------
     8 (A) A             10 (A) A                -0.6885
     8 (A) A             24 (A) A                -0.0507
     8 (A) A             18 (A) A                 0.0332
     4 (A) A              9 (A) A                -0.0243
     8 (A) A   8 (A) B    9 (A) A   12 (A) B      0.0223
     8 (A) A              9 (A) A                 0.0175
     8 (A) A   8 (A) B   10 (A) A   17 (A) B     -0.0171
     5 (A) A   8 (A) B   11 (A) A   10 (A) B      0.0169
     8 (A) A             15 (A) A                 0.0149
     7 (A) A   8 (A) B   13 (A) A   10 (A) B      0.0143
     4 (A) A   8 (A) B   12 (A) A   10 (A) B      0.0112
     6 (A) A   8 (A) A   10 (A) A   15 (A) A     -0.0112
     6 (A) A   8 (A) B   15 (A) A   10 (A) B      0.0109
     7 (A) A   8 (A) B   22 (A) A   10 (A) B     -0.0109
     4 (A) A   8 (A) A   10 (A) A   12 (A) A     -0.0108
     7 (A) A   8 (A) A   10 (A) A   22 (A) A      0.0099
     7 (A) A   8 (A) A   10 (A) A   13 (A) A     -0.0098
     5 (A) A   8 (A) A   10 (A) A   11 (A) A     -0.0097
     5 (A) A   8 (A) B   21 (A) A   10 (A) B     -0.0093
     6 (A) A   8 (A) B   10 (A) A   10 (A) B      0.0089
     6 (A) A   8 (A) A   10 (A) A   18 (A) A      0.0086
     7 (A) A   8 (A) A   12 (A) A   16 (A) A     -0.0083
     3 (A) A   4 (A) B   10 (A) A    9 (A) B      0.0080
     5 (A) A   8 (A) A   10 (A) A   21 (A) A      0.0079
     4 (A) A   8 (A) B   19 (A) A   10 (A) B     -0.0075
     8 (A) A   8 (A) B    9 (A) A   23 (A) B      0.0075
     8 (A) A   8 (A) B   10 (A) A   28 (A) B     -0.0074
     5 (A) A   8 (A) B   10 (A) A   11 (A) B      0.0072
     7 (A) A   8 (A) B   16 (A) A   12 (A) B      0.0072
     3 (A) A   8 (A) A   10 (A) A   24 (A) A      0.0072
     3 (A) A   8 (A) B   10 (A) A   10 (A) B     -0.0071
     8 (A) A   8 (A) B    9 (A) A   19 (A) B     -0.0069
     3 (A) A   8 (A) B   10 (A) A   18 (A) B      0.0067
     6 (A) A   8 (A) B   18 (A) A   10 (A) B     -0.0065
     3 (A) A   6 (A) B   10 (A) A   28 (A) B     -0.0062
     7 (A) A   8 (A) B   12 (A) A   11 (A) B     -0.0059
     6 (A) A             28 (A) A                 0.0058
     5 (A) A   8 (A) A   10 (A) A   16 (A) A      0.0057
     6 (A) A   8 (A) A   11 (A) A   16 (A) A      0.0055
     4 (A) A   8 (A) A   10 (A) A   23 (A) A     -0.0055
    -----------------------------------------------------

  Density matrix analysis:
  ------------------------
  NOs
    Occupation of frontier NOs:
       0.9812   0.9847
    Number of electrons: 16.000000
    Number of unpaired electrons: n_u =  2.28905, n_u,nl =  2.02511
    NO participation ratio (PR_NO):  2.702140
  
  
  Mulliken Population Analysis
  Atom      Charge (e)              h+              e-           Del q
  --------------------------------------------------------------------
   1 H       -0.157960        0.054400       -0.268181       -0.213781
   2 C        0.305468        0.540507       -0.119273        0.421234
   3 H       -0.159317        0.054174       -0.269124       -0.214950
   4 C        0.310386        0.535061       -0.119481        0.415579
   5 H       -0.148058        0.054199       -0.256754       -0.202555
   6 H       -0.150519        0.054318       -0.259845       -0.205527
  --------------------------------------------------------------------
  Sum:       -0.000000        1.292659       -1.292659       -0.000000
  
  Multipole moment analysis of the density matrix
    Molecular charge:                      -0.000000
    Number of electrons:                   16.000000
      Center of electronic charge [Ang]: [ -1.565846,  -0.061374,   0.011247]
    Total nuclear charge:                  16.000000
      Center of nuclear charge [Ang]:    [ -1.566945,  -0.059933,   0.011671]
    Dipole moment [D]:                     0.143059
      Cartesian components [D]:          [ -0.084437,   0.110771,   0.032653]
    RMS size of the density [Ang]:         1.282183
      Cartesian components [Ang]:        [  0.858325,   0.845103,   0.439401]
  
  Exciton analysis of the difference density matrix
    <r_h> [Ang]:                  [ -1.565201,  -0.061861,   0.014253]
    <r_e> [Ang]:                  [ -1.551300,  -0.079740,   0.005412]
    |<r_e - r_h>| [Ang]:            0.024312
    Hole size [Ang]:                1.412921
      Cartesian components [Ang]: [  0.835775,   0.822484,   0.788256]
    Electron size [Ang]:            2.077460
      Cartesian components [Ang]: [  1.377883,   1.378120,   0.719766]

  Transition density matrix analysis:
  -----------------------------------
  
  CT numbers (Mulliken)
    omega =     0.9250
    <Phe> =    -0.0113
  
  Exciton analysis of the transition density matrix
    Trans. dipole moment [D]:             0.427405
      Cartesian components [D]:         [ -0.077147,   0.049471,   0.417464]
    <r_h> [Ang]:                        [ -1.568298,  -0.058588,   0.016750]
    <r_e> [Ang]:                        [ -1.546313,  -0.086152,   0.003034]
    |<r_e - r_h>| [Ang]:                  0.037831
    Hole size [Ang]:                      1.213249
      Cartesian components [Ang]:       [  0.635072,   0.623507,   0.824558]
    Electron size [Ang]:                  2.298790
      Cartesian components [Ang]:       [  1.524198,   1.525972,   0.795403]
    RMS electron-hole separation [Ang]:   2.589549
      Cartesian components [Ang]:       [  1.643794,   1.641562,   1.144107]
    Covariance(r_h, r_e) [Ang^2]:         0.026037
    Correlation coefficient:              0.009336
    Center-of-mass size [Ang]:            1.304653
      Cartesian components [Ang]:       [  0.829370,   0.827758,   0.573657]

  Decomposition into state-averaged NTOs
    H- 0 -> L+ 1:  0.6785 ( 92.1%)
                   omega =  92.5%
  ----------------------------------------------------------------------------


  Excited state 4 (singlet, A)                                     [converged]
  ----------------------------------------------------------------------------
  Term symbol:  5 (1) A                                     R^2 =  3.07270e-13

  Total energy:                                            -77.9621870427 a.u.
  Excitation energy:                                               9.734960 eV

  Osc. strength:                                                      0.000001
  Trans. dip. moment [a.u.]:           [  -0.000700,   -0.000528,   -0.001341]
  <i|r^2|0> [a.u.]:                    [   0.003683,   -0.025851,    0.018295]
  Two-photon absorption cross-section (SoS) [a.u.]:                 135.565370
  Two-photon absorption matrix (SoS) [a.u.]:
                                       |    0.290573   -0.159348    2.844551 |
                                       |   -0.159348   -0.618383    2.921742 |
                                       |    2.844551    2.921742    0.342821 |
  Two-photon absorption cross-section [a.u.]:                        82.563189
  Two-photon absorption matrix [a.u.]:
                                       |    0.488780   -0.105791    2.215121 |
                                       |   -0.105791   -0.739416    2.230466 |
                                       |    2.215121    2.230466    0.263083 |

  Dip. moment [a.u.]:                  [  -0.022004,    0.004145,    0.012022]
  Total dipole [Debye]:                                               0.064595
  <r^2> [a.u.]:                        [ 182.507317,   40.924996,   10.760087]
  Total <r^2> [a.u.]:                                               234.192400

  V1^2 = 0.9633, V2^2 = 0.0367

  Important amplitudes:
      occ i     occ j     vir a      vir b          v   
    -----------------------------------------------------
     8 (A) A             11 (A) A                -0.6691
     7 (A) A              9 (A) A                -0.1517
     8 (A) A             21 (A) A                 0.0779
     8 (A) A             16 (A) A                 0.0675
     8 (A) A   8 (A) B    9 (A) A   13 (A) B     -0.0167
     5 (A) A   8 (A) B   11 (A) A   11 (A) B      0.0157
     7 (A) A             20 (A) A                 0.0138
     8 (A) A   8 (A) B   11 (A) A   17 (A) B     -0.0137
     7 (A) A   8 (A) B   13 (A) A   11 (A) B      0.0127
     4 (A) A   8 (A) B   12 (A) A   11 (A) B      0.0111
     8 (A) A   8 (A) B    9 (A) A   22 (A) B      0.0110
     5 (A) A   8 (A) A   11 (A) A   21 (A) A      0.0109
     7 (A) A   8 (A) A   11 (A) A   22 (A) A      0.0095
     6 (A) A   8 (A) B   10 (A) A   11 (A) B      0.0091
     6 (A) A   8 (A) B   15 (A) A   11 (A) B      0.0089
     7 (A) A   8 (A) B   22 (A) A   11 (A) B     -0.0088
     3 (A) A   4 (A) B   11 (A) A    9 (A) B      0.0083
     3 (A) A   8 (A) B   11 (A) A   18 (A) B      0.0080
     6 (A) A   8 (A) A   11 (A) A   15 (A) A     -0.0079
     7 (A) A   8 (A) A   13 (A) A   16 (A) A      0.0079
     7 (A) A   8 (A) A   11 (A) A   13 (A) A     -0.0075
     4 (A) A   8 (A) B   19 (A) A   11 (A) B     -0.0070
     5 (A) A   8 (A) B   21 (A) A   11 (A) B     -0.0069
     5 (A) A   8 (A) B    9 (A) A    9 (A) B      0.0068
     4 (A) A   8 (A) A   11 (A) A   12 (A) A     -0.0062
     3 (A) A   6 (A) B   11 (A) A   28 (A) B     -0.0060
     6 (A) A   8 (A) A   11 (A) A   18 (A) A      0.0059
     6 (A) A   8 (A) B   18 (A) A   11 (A) B     -0.0058
     7 (A) A   8 (A) B   16 (A) A   13 (A) B     -0.0057
     3 (A) A   8 (A) B   11 (A) A   30 (A) B      0.0056
     5 (A) A   8 (A) B   10 (A) A   10 (A) B      0.0055
     7 (A) A   8 (A) B   12 (A) A   10 (A) B     -0.0055
     8 (A) A   8 (A) B   20 (A) A   22 (A) B     -0.0055
     6 (A) A   8 (A) B   11 (A) A   10 (A) B      0.0055
     3 (A) A   8 (A) A   11 (A) A   18 (A) A      0.0054
     3 (A) A   5 (A) B   11 (A) A   25 (A) B      0.0053
     3 (A) A   8 (A) A   11 (A) A   24 (A) A      0.0053
     5 (A) A   8 (A) A   11 (A) A   16 (A) A      0.0049
     6 (A) A   8 (A) A   10 (A) A   16 (A) A      0.0047
     8 (A) A   8 (A) B   11 (A) A   28 (A) B     -0.0043
    -----------------------------------------------------

  Density matrix analysis:
  ------------------------
  NOs
    Occupation of frontier NOs:
       0.9397   1.0283
    Number of electrons: 16.000000
    Number of unpaired electrons: n_u =  2.32259, n_u,nl =  2.05037
    NO participation ratio (PR_NO):  2.927073
  
  
  Mulliken Population Analysis
  Atom      Charge (e)              h+              e-           Del q
  --------------------------------------------------------------------
   1 H       -0.131854        0.046223       -0.233898       -0.187675
   2 C        0.245029        0.497078       -0.136284        0.360795
   3 H       -0.119409        0.045763       -0.220805       -0.175042
   4 C        0.257032        0.494498       -0.132272        0.362226
   5 H       -0.122430        0.045573       -0.222500       -0.176927
   6 H       -0.128369        0.045965       -0.229342       -0.183377
  --------------------------------------------------------------------
  Sum:       -0.000000        1.175101       -1.175101       -0.000000
  
  Multipole moment analysis of the density matrix
    Molecular charge:                      0.000000
    Number of electrons:                   16.000000
      Center of electronic charge [Ang]: [ -1.566217,  -0.060070,   0.011274]
    Total nuclear charge:                  16.000000
      Center of nuclear charge [Ang]:    [ -1.566945,  -0.059933,   0.011671]
    Dipole moment [D]:                     0.064595
      Cartesian components [D]:          [ -0.055927,   0.010535,   0.030556]
    RMS size of the density [Ang]:         1.281411
      Cartesian components [Ang]:        [  0.860911,   0.844187,   0.433813]
  
  Exciton analysis of the difference density matrix
    <r_h> [Ang]:                  [ -1.565930,  -0.060572,   0.014755]
    <r_e> [Ang]:                  [ -1.555688,  -0.062480,   0.005401]
    |<r_e - r_h>| [Ang]:            0.014001
    Hole size [Ang]:                1.394940
      Cartesian components [Ang]: [  0.819764,   0.804981,   0.791106]
    Electron size [Ang]:            2.114463
      Cartesian components [Ang]: [  1.432750,   1.404415,   0.667684]

  Transition density matrix analysis:
  -----------------------------------
  
  CT numbers (Mulliken)
    omega =     0.9292
    <Phe> =    -0.0145
  
  Exciton analysis of the transition density matrix
    Trans. dipole moment [D]:             0.002037
      Cartesian components [D]:         [ -0.000890,  -0.000671,  -0.001705]
    <r_h> [Ang]:                        [ -1.567306,  -0.059795,   0.016425]
    <r_e> [Ang]:                        [ -1.552825,  -0.063701,   0.004087]
    |<r_e - r_h>| [Ang]:                  0.019421
    Hole size [Ang]:                      1.229218
      Cartesian components [Ang]:       [  0.661266,   0.647915,   0.808647]
    Electron size [Ang]:                  2.248531
      Cartesian components [Ang]:       [  1.524199,   1.493921,   0.707748]
    RMS electron-hole separation [Ang]:   2.551528
      Cartesian components [Ang]:       [  1.652628,   1.620248,   1.074203]
    Covariance(r_h, r_e) [Ang^2]:         0.028475
    Correlation coefficient:              0.010302
    Center-of-mass size [Ang]:            1.286839
      Cartesian components [Ang]:       [  0.835157,   0.818230,   0.537558]

  Decomposition into state-averaged NTOs
    H- 0 -> L+ 2: -0.6643 ( 88.3%)
    H- 1 -> L+ 0: -0.1496 (  4.5%)
                   omega =  92.9%
  ----------------------------------------------------------------------------


  Excited state 5 (singlet, A)                                     [converged]
  ----------------------------------------------------------------------------
  Term symbol:  6 (1) A                                     R^2 =  1.71770e-12

  Total energy:                                            -77.9469362460 a.u.
  Excitation energy:                                              10.149955 eV

  Osc. strength:                                                      0.000021
  Trans. dip. moment [a.u.]:           [  -0.003471,    0.002814,    0.008070]
  <i|r^2|0> [a.u.]:                    [  -0.030047,    0.091604,   -0.053727]
  Two-photon absorption cross-section (SoS) [a.u.]:                 219.111907
  Two-photon absorption matrix (SoS) [a.u.]:
                                       |    0.254540   -0.378951    3.713811 |
                                       |   -0.378951    0.656210   -3.614718 |
                                       |    3.713811   -3.614718   -0.269779 |
  Two-photon absorption cross-section [a.u.]:                       113.306157
  Two-photon absorption matrix [a.u.]:
                                       |    0.411194   -0.113762    2.657928 |
                                       |   -0.113762    0.730058   -2.550162 |
                                       |    2.657928   -2.550162   -0.242289 |

  Dip. moment [a.u.]:                  [   0.016540,   -0.014896,   -0.000721]
  Total dipole [Debye]:                                               0.056607
  <r^2> [a.u.]:                        [ 181.235078,   39.746376,   11.628561]
  Total <r^2> [a.u.]:                                               232.610015

  V1^2 = 0.9555, V2^2 = 0.0445

  Important amplitudes:
      occ i     occ j     vir a      vir b          v   
    -----------------------------------------------------
[...]
    16   -1.443538978134e-03
    17   -3.438409238418e-04
    18    3.321123041461e-04
    19   -2.929343859050e-03
    20    1.184090901561e-02
    21    9.427210658050e-01
    22   -3.834014249612e-04
    23    1.389751709565e-02
    24    1.157154695524e-04
    25    6.905231041300e-02
    26   -5.047919172701e-02
    27   -1.374246285113e+00
    28    9.943165116739e-02
    29   -9.388347102230e-02
    30    1.056365934428e-02
    31    3.748780812023e-01
    32   -3.586618696385e-01
    33    4.138918788837e-02
    34    1.510008228809e-02
    35   -1.745063382999e-03
    36   -2.778849657829e-05
    37    4.128540901862e-04
    38   -2.900073939827e-03
    39    1.115074863542e-02
    40    9.156789112367e-01
    41    6.731206454197e-04
    42   -1.379288152059e-02
    43    7.011316266209e-05
    44    1.117884631125e-02
    45    9.131289766824e-01
    46    1.360022735210e-02
    47    4.996540284825e-05
    48    8.586091272464e-04
Sym=X
Ene= 0.230996
Spin=Alpha
Occup=0
     1   -3.042590398023e-02
     2   -1.177882124508e+00
     3    1.320221009844e-02
     4    3.532549325963e-03
     5    5.598687713238e-04
     6   -1.500089615823e-03
     7    1.034774487041e-03
     8    2.908535645692e-02
     9    1.579392325759e-01
    10    1.623124543745e-01
    11    9.539823417237e-03
    12    5.311409630148e-01
    13    5.528825145050e-01
    14    3.248006263673e-02
    15   -3.486784350513e-04
    16    9.010573314349e-04
    17    1.034053980904e-03
    18   -8.999338250863e-04
    19    1.033440674796e-04
    20    2.914997765986e-02
    21    1.142670582118e+00
    22    2.795857896262e-03
    23    1.275981078747e-02
    24    4.003116394916e-04
    25    1.331502968752e-03
    26   -9.387462463289e-04
    27   -2.401771790985e-02
    28    1.554284149291e-01
    29    1.601982226366e-01
    30    9.522663209095e-03
    31    5.358376232587e-01
    32    5.606778252022e-01
    33    3.319047540565e-02
    34    2.560718135458e-04
    35   -1.119304390702e-03
    36   -1.299445997207e-03
    37    1.783297258969e-03
    38   -1.434613735630e-05
    39   -2.934332266708e-02
    40   -1.160359215639e+00
    41    2.916536444400e-03
    42    1.294114458981e-02
    43    3.941992045200e-04
    44    3.080253389624e-02
    45    1.189256328000e+00
    46    1.326165198915e-02
    47    3.621379394518e-03
    48    5.973347016487e-04
Sym=X
Ene= 0.236367
Spin=Alpha
Occup=0
     1   -1.961657503202e-02
     2   -1.035040556844e+00
     3    1.524054135947e-02
     4    9.202267677669e-03
     5    7.739272357729e-04
     6   -8.618295362177e-02
     7    8.111286807336e-02
     8    1.522587792830e+00
     9    5.620337695437e-02
    10   -5.834161035641e-02
    11   -5.367751477038e-04
    12    2.294867977715e-01
    13   -2.356506262749e-01
    14   -7.583869940668e-03
    15   -2.090349829560e-02
    16    6.870824695123e-04
    17    2.164612182027e-03
    18   -6.944237821626e-04
    19    1.233444248109e-02
    20   -2.019370802946e-02
    21   -1.078099949784e+00
    22   -8.517487725782e-03
    23   -1.624250849062e-02
    24   -6.952979134255e-04
    25    8.808126768294e-02
    26   -8.343629208458e-02
    27   -1.567329482427e+00
    28    5.665261609878e-02
    29   -5.884378908406e-02
    30    6.972695109230e-03
    31    2.335638742668e-01
    32   -2.419134582287e-01
    33    2.334683152660e-02
    34    2.177837473710e-02
    35   -1.394186891382e-03
    36   -1.582708624274e-03
    37    7.710195808469e-04
    38   -1.272716790048e-02
    39    1.926271717662e-02
    40    1.108384550476e+00
    41   -8.355012065247e-03
    42   -1.698574559211e-02
    43   -2.253551413231e-04
    44    1.856020123351e-02
    45    1.062959347847e+00
    46    1.588805645067e-02
    47    9.066125826241e-03
    48    1.264063731744e-03
Sym=X
Ene= 0.302867
Spin=Alpha
Occup=0
     1    1.901727705731e-02
     2   -1.641923800188e+00
     3    2.336719416500e-02
     4   -5.356863057722e-04
     5   -5.993173345525e-05
     6    2.521898900061e-05
     7    9.026184192070e-05
     8   -8.782693344904e-03
     9    1.363592839523e-01
    10    1.433941952521e-01
    11    8.392505899103e-03
    12    1.121797359394e+00
    13    1.177067166748e+00
    14    6.864241673819e-02
    15    7.609515684900e-05
    16    6.042282027267e-04
    17   -1.404520536409e-03
    18    3.346465384352e-02
    19    1.387146282638e-03
    20   -2.016755708879e-02
    21    1.651158726885e+00
    22   -1.511385863404e-03
    23    2.335551568575e-02
    24    1.399990407850e-03
    25    3.048106544821e-06
    26    1.109328179629e-04
    27   -1.000656542211e-02
    28   -1.357187395408e-01
    29   -1.427015298607e-01
    30   -8.327229488153e-03
    31   -1.131331652774e+00
    32   -1.188240492610e+00
    33   -6.917144050064e-02
    34    2.329300776898e-04
    35    1.844508844153e-03
    36   -1.670506447820e-04
    37    3.463693332995e-02
    38    1.345457048920e-03
    39   -2.299621345787e-02
    40    1.669302594070e+00
    41    1.345659238225e-03
    42   -2.355217939326e-02
    43   -1.042718994075e-03
    44    2.158793706310e-02
    45   -1.658087443620e+00
    46   -2.353007863199e-02
    47    3.898161752966e-04
    48   -3.179007894394e-04
Sym=X
Ene= 0.462310
Spin=Alpha
Occup=0
     1   -1.117469295213e-01
     2   -6.897710591475e-01
     3   -1.485209969831e-02
     4   -9.690874221168e-03
     5   -5.710367959596e-04
     6    6.285881975824e-02
     7    1.476661728126e-02
     8   -3.635766095476e+00
     9    1.072190532368e-01
    10   -1.023089368304e-01
    11    4.161779431030e-03
    12    2.409695552657e+00
    13   -2.303112733301e+00
    14   -1.398745252455e-01
    15    5.219046533232e-02
    16   -4.163422704220e-04
    17   -3.641813647714e-03
    18   -1.429438393541e-03
    19    2.135211191820e-02
    20   -1.061485699320e-01
    21   -7.055592590137e-01
    22    9.640544719458e-03
    23    1.497916795906e-02
    24    8.796829894583e-04
    25   -6.219284919568e-02
    26   -1.809598014832e-02
    27    3.620909336923e+00
    28    1.017130182025e-01
    29   -9.726330199551e-02
    30    8.821256626258e-03
    31    2.422839091226e+00
    32   -2.318611591892e+00
    33   -1.207216325731e-01
    34   -5.394916257541e-02
    35    1.748841922394e-04
    36    4.232638589320e-03
    37    1.349157645367e-03
    38   -1.847264169997e-02
    39    1.170137832336e-01
    40    7.035666609321e-01
    41    1.013846520787e-02
    42    1.552208787793e-02
    43    1.128126792971e-03
    44    1.230402050278e-01
    45    6.836828166600e-01
    46   -1.537694335993e-02
    47   -1.020309071786e-02
    48   -3.818276657485e-04
Sym=X
Ene= 0.579925
Spin=Alpha
Occup=0
     1   -2.386344545269e-01
     2   -6.008186202228e-02
     3    2.259959031029e-02
     4   -2.816123940248e-02
     5   -9.311177076048e-04
     6    7.912909760150e-03
     7    1.697943221314e-01
     8    3.368141198904e-01
     9   -3.032929189264e-01
    10    2.866336524696e-01
    11    1.639955494993e-02
    12    7.979666578196e-01
    13   -7.584781859311e-01
    14   -2.122213363597e-02
    15    2.378470280536e-03
    16   -2.933625947936e-03
    17   -9.247631914332e-04
    18    1.407621632629e-03
    19   -6.020578846884e-02
    20   -2.332917289373e-01
    21   -7.356805240453e-02
    22    2.893164903349e-02
    23   -2.155875275778e-02
    24   -5.344902817223e-04
    25    4.533646743459e-03
    26    1.673287973291e-01
    27    4.951284764720e-01
    28    3.087608077823e-01
    29   -2.919419184731e-01
    30   -1.584241952079e-02
    31   -6.954429385199e-01
    32    6.625751309100e-01
    33    1.058235890856e-02
    34    2.176241421507e-03
    35   -2.805925177574e-03
    36   -1.049223398496e-03
    37    1.718379042400e-03
    38   -6.020018120814e-02
    39   -2.388447728181e-01
    40   -3.366375390148e-02
    41   -2.673694034012e-02
    42    1.992728873227e-02
    43    6.249291755051e-05
    44   -2.418917652491e-01
    45   -2.024067552185e-02
    46   -2.120042369852e-02
    47    2.632469275371e-02
    48    4.433229190170e-04
Sym=X
Ene= 0.608895
Spin=Alpha
Occup=0
     1    5.217290448626e-01
     2   -2.706850022964e-01
     3    5.961538794100e-02
     4   -3.728581402897e-02
     5   -8.980324621889e-04
     6   -2.641870983391e-04
     7   -4.892137978989e-04
     8   -1.929191331999e-02
     9    3.276937899434e-02
    10    3.736226396390e-02
    11    2.395767646669e-03
    12   -2.336355918954e-01
    13   -2.874902530322e-01
    14   -1.694378827266e-02
    15    7.452350805323e-04
    16    3.048649632639e-03
    17   -6.088326458939e-03
    18    1.512955017493e-01
    19    7.763921305271e-03
    20   -5.281031470070e-01
    21    2.561888495479e-01
    22   -3.932161266239e-02
    23    5.829973967290e-02
    24    2.127700811583e-03
    25    2.911107011257e-04
    26    1.301904153080e-03
    27    1.811669115624e-02
    28    3.607355143149e-02
    29    3.963411881926e-02
    30    2.561012554925e-03
    31   -2.484361894075e-01
    32   -3.008073605538e-01
    33   -1.731744488779e-02
    34   -9.229704968032e-04
    35   -6.117391123049e-03
    36    2.600215540512e-03
    37   -1.467215808353e-01
    38   -7.630754468107e-03
    39    5.160362180079e-01
    40   -2.197650594943e-01
    41   -3.985650006687e-02
    42    5.754748773071e-02
    43    1.083235988138e-03
    44   -5.117263690306e-01
    45    2.365069518558e-01
    46    5.880263807935e-02
    47   -3.779997653656e-02
    48    1.020301109752e-04
Sym=X
Ene= 0.688937
Spin=Alpha
Occup=0
     1   -1.798678851031e-02
     2   -1.855056580943e-02
     3    2.642826108609e-04
     4   -1.478090942893e-03
     5   -1.804642601580e-02
     6   -9.795510979613e-04
     7    1.060065446665e-03
     8   -2.417303831205e-02
     9    9.674314479628e-03
    10    3.015966164221e-02
    11   -6.722755972909e-01
    12    3.804265549891e-02
    13   -7.260840309140e-02
    14    6.113301836844e-01
    15   -5.727256666364e-03
    16    8.190518376010e-02
    17   -7.854236755966e-02
    18   -4.357755149205e-03
    19   -8.904649222685e-03
    20   -1.821817103733e-02
    21   -1.896227824953e-02
    22    2.518271397113e-03
    23    9.436039301509e-04
    24   -1.850933194630e-02
    25    3.815163870478e-04
    26   -1.435921621276e-02
    27    3.276868029121e-02
    28    7.700611948868e-03
    29    3.186092542471e-02
    30   -6.713619669586e-01
    31    3.854797277189e-02
    32   -7.300889377455e-02
    33    6.121972995870e-01
    34    1.025728367071e-02
    35   -8.219255613366e-02
    36    7.827177944124e-02
    37    4.482445531923e-03
    38    7.085340035722e-03
    39    7.819616587069e-03
    40    2.749933689493e-02
    41    1.607663201413e-03
    42   -2.494452930379e-03
    43   -1.975478227902e-02
    44    7.529959715787e-03
    45    2.701821727420e-02
    46    3.676707283490e-03
    47   -3.671287354408e-04
    48   -1.880204603311e-02
Sym=X
Ene= 0.704977
Spin=Alpha
Occup=0
     1   -5.000888274989e-01
     2    1.733243890751e-01
     3   -7.975369620307e-02
     4   -4.464500613403e-02
     5   -8.596298026469e-04
     6   -4.649994483535e-02
     7   -2.940551989427e-01
     8    4.140990182424e-01
     9    1.947244702731e-01
    10   -1.854428079113e-01
    11    1.464857631093e-03
    12   -3.658500909211e-02
    13    3.423230787532e-02
    14    2.275016294497e-02
    15    1.963705060723e-01
    16   -6.184171790527e-03
    17   -1.849399545353e-02
    18    3.365788555363e-03
    19   -7.590172314285e-02
    20   -4.957395849747e-01
    21    1.681863399651e-01
    22    4.057312023887e-02
    23    8.210167690506e-02
    24    6.558870912824e-03
    25   -4.533044422259e-02
    26   -3.056778617024e-01
    27    5.047446075448e-01
    28   -1.984502029446e-01
    29    1.871012627077e-01
    30    1.502487572397e-02
    31    8.259720960219e-02
    32   -7.424619583407e-02
    33   -4.450363671255e-02
    34    1.883255492397e-01
    35   -6.481722003545e-03
    36   -1.758995077396e-02
    37    3.623587563099e-03
    38   -7.940032247374e-02
    39   -4.758106769230e-01
    40    1.555147177662e-01
    41   -4.054685084797e-02
    42   -7.892002110606e-02
    43   -5.734403877044e-03
    44   -4.796895929953e-01
    45    1.635911589293e-01
    46    7.645578371715e-02
    47    4.463065420376e-02
    48    1.453011003817e-03
Sym=X
Ene= 0.775498
Spin=Alpha
Occup=0
     1    5.375681442529e-01
     2   -4.914697954833e-01
     3    1.066910443573e-01
     4    2.620764871885e-02
     5    2.127357001764e-03
     6    8.774353467349e-02
     7   -2.411007820393e-01
     8   -5.518400906906e-01
     9    1.046814312239e-01
    10   -1.054518799645e-01
    11   -2.234563632122e-02
    12    2.934743234119e-01
    13   -2.709610064915e-01
    14    9.826914897763e-03
    15   -1.995354468787e-01
    16    5.447030819944e-03
    17    1.540109845735e-02
    18    1.806932172051e-03
    19    6.456190115916e-03
    20    5.312604122027e-01
    21   -4.735021490567e-01
    22   -2.063891919493e-02
    23   -1.055908811965e-01
    24   -5.640209891945e-03
    25   -8.987780250660e-02
    26    2.139349950176e-01
    27    5.774813337408e-01
    28    9.450642973489e-02
    29   -9.849098602284e-02
    30   -1.752728891069e-03
    31    3.087501473986e-01
    32   -2.782598826964e-01
    33   -3.490603769416e-02
    34    2.087970745194e-01
    35   -9.155180393310e-03
    36   -1.309498647601e-02
    37   -1.448094656369e-03
    38   -1.086331906406e-02
    39   -5.389139288071e-01
    40    4.699481276941e-01
    41   -2.138115299700e-02
    42   -1.097922835468e-01
    43   -5.616169649193e-03
    44   -5.464891295433e-01
    45    4.930317068524e-01
    46    1.110532565436e-01
    47    2.724249044633e-02
    48    2.484061479810e-03
Sym=X
Ene= 0.807222
Spin=Alpha
Occup=0
     1   -6.778730342562e-03
     2    5.166507120209e-03
     3    7.267396821256e-04
     4    1.051732940608e-03
     5   -3.049157047346e-02
     6   -1.824509549958e-03
     7    1.547206398786e-02
     8   -8.226469045348e-03
     9    4.686422711588e-04
    10    4.426469997214e-02
    11   -7.652160850604e-01
    12   -5.396693645632e-03
    13   -6.031771604709e-02
    14    1.124817576960e+00
    15    9.661455996628e-03
    16   -6.489080580782e-02
    17    6.162182921044e-02
    18    3.480552908940e-03
    19    5.862091220413e-03
    20   -6.660583439320e-03
    21    5.025478092682e-03
    22    7.448392671753e-04
    23    1.101400800910e-03
    24   -3.062459542446e-02
    25    5.521200815804e-04
    26    1.003988207197e-02
    27   -4.903414375224e-03
    28   -9.873986778125e-03
    29   -3.474696958323e-02
    30    7.653776571524e-01
    31    3.589165524165e-03
    32    6.110326150017e-02
    33   -1.125881084151e+00
    34    1.600693999413e-03
    35   -6.481933394826e-02
    36    6.222732011205e-02
    37    3.731065578051e-03
    38    3.601571566965e-03
    39    5.668558605004e-03
    40   -1.155700556842e-02
    41   -2.108329173081e-03
    42    3.927742981966e-03
    43    3.271811719337e-02
    44    5.747391927184e-03
    45   -1.261352473978e-02
    46   -6.080550344849e-03
    47   -1.074877365481e-04
    48    3.213862588409e-02
Sym=X
Ene= 0.858378
Spin=Alpha
Occup=0
     1    1.541478611652e-02
     2   -1.084793647587e+00
     3    1.486476450779e-01
     4    5.522568143661e-02
     5    6.946005630916e-03
     6   -9.602872837637e-04
     7    2.540477971236e-03
     8   -6.075126044210e-03
     9   -4.269055338977e-01
    10   -4.391992180371e-01
    11   -2.587760854967e-02
    12    9.612131953301e-01
    13    9.955622569235e-01
    14    5.841017785174e-02
    15    2.554587280386e-03
    16    5.906637901067e-03
    17   -8.394835697373e-03
    18    2.329944677080e-01
    19    1.288736363899e-02
    20   -2.170651668665e-02
    21    1.084807719732e+00
    22    4.736796246899e-02
    23    1.526901767913e-01
    24    5.175265498309e-03
    25    1.055915579299e-03
    26   -6.714660266629e-04
    27    4.644924651658e-03
    28   -4.084465226885e-01
    29   -4.198423242364e-01
    30   -2.453942446697e-02
    31    9.318603867866e-01
    32    9.651661769291e-01
    33    5.640143500625e-02
    34   -3.058375636786e-03
    35   -6.235842229252e-03
    36    7.720125885059e-03
    37   -2.279251512836e-01
    38   -1.259477173385e-02
    39    1.345723665704e-02
    40   -1.064411678032e+00
    41    5.008848134511e-02
    42    1.469732809648e-01
    43    3.866141800400e-03
    44   -6.676322640074e-03
    45    1.064610517353e+00
    46    1.426299189508e-01
    47    5.768658921182e-02
    48    8.078490338088e-03
Sym=X
Ene= 0.927271
Spin=Alpha
Occup=0
     1    1.397103702409e-01
     2   -1.212278967181e+00
     3    1.803567881834e-01
     4   -6.333517565893e-03
     5   -7.466314982619e-04
     6   -1.435954374209e-04
     7   -1.354891594155e-02
     8    2.169728881193e-02
     9   -4.708867880602e-01
    10   -4.920783060791e-01
    11   -2.862996129628e-02
    12    1.372423877920e+00
    13    1.439640230518e+00
    14    8.401603956221e-02
    15   -1.110191192609e-04
    16   -9.102138641425e-04
    17   -8.301904808243e-03
    18    1.183330727882e-01
    19    6.976209811489e-03
    20   -1.381777145973e-01
    21    1.203547794668e+00
    22   -1.648435267475e-02
    23    1.769618670659e-01
    24    1.080190495799e-02
    25   -5.042280345732e-04
    26   -1.472419942200e-02
    27    1.770773224061e-02
    28    4.856480122313e-01
    29    5.011865668107e-01
    30    2.925720661365e-02
    31   -1.419744726426e+00
    32   -1.472534456501e+00
    33   -8.611964335232e-02
    34    1.248378179580e-03
    35    3.624349147602e-03
    36   -4.516327111101e-03
    37    1.307354439748e-01
    38    9.181786188108e-03
    39   -1.394705503584e-01
    40    1.245490670635e+00
    41    1.451356249969e-02
    42   -1.836781163556e-01
    43   -8.876907759819e-03
    44    1.403135023135e-01
    45   -1.262780218861e+00
    46   -1.873058376660e-01
    47    2.994620246264e-03
    48   -1.866643721253e-03
Sym=X
Ene= 0.969894
Spin=Alpha
Occup=0
     1   -6.042241399650e-02
     2    8.970561396506e-01
     3   -8.825591000841e-02
     4   -9.652805999629e-02
     5   -8.537740732035e-03
     6    2.712375832410e-02
     7    2.609083910385e-01
     8    5.031858904912e-01
     9    4.848008503887e-01
    10   -4.629244991916e-01
    11   -2.034212884868e-02
    12   -1.479888486399e+00
    13    1.412641834589e+00
    14    6.757865818340e-02
    15   -5.689653969323e-02
    16   -2.024702957638e-02
    17    7.851237502372e-03
    18    1.626811176596e-02
    19   -2.959413146764e-01
    20   -6.344794131504e-02
    21    9.083141002403e-01
    22    9.208328433350e-02
    23    9.464296270657e-02
    24    2.530451601940e-03
    25   -2.680708382696e-02
    26   -2.403987251465e-01
    27   -5.383455955777e-01
    28    4.761865527844e-01
    29   -4.607721908009e-01
    30   -9.939712707854e-03
    31   -1.451242497090e+00
    32    1.408256767457e+00
    33    3.903731619068e-02
    34    5.674885766728e-02
    35    2.085981855338e-02
    36   -8.279602500523e-03
    37   -1.714168745854e-02
    38    2.965593278779e-01
    39    5.961540257737e-02
    40   -9.023707689083e-01
    41    9.213146557696e-02
    42    9.265772735079e-02
    43    3.076168954234e-04
    44    5.673875487660e-02
    45   -8.731704268979e-01
    46   -8.382790977308e-02
    47   -9.631663129862e-02
    48   -1.065442865858e-02
[5D]

======= END OF MOLDEN-FORMATTED INPUT FILE =======


        *************************************************************
        *                                                           *
        *  Thank you very much for using Q-Chem.  Have a nice day.  *
        *                                                           *
        *************************************************************


