                  Welcome to Q-Chem
     A Quantum Leap Into The Future Of Chemistry


 Q-Chem 5.4 (devel), Q-Chem, Inc., Pleasanton, CA (2021)

 E. Epifanovsky,  A. T. B. Gilbert,  Xintian Feng,  Joonho Lee,  Yuezhi Mao,  
 N. Mardirossian,  P. Pokhilko,  A. White,  M. Wormit,  M. P. Coons,  
 A. L. Dempwolff,  Zhengting Gan,  D. Hait,  P. R. Horn,  L. D. Jacobson,  
 I. Kaliman,  J. Kussmann,  A. W. Lange,  Ka Un Lao,  D. S. Levine,  Jie Liu,  
 S. C. McKenzie,  A. F. Morrison,  K. Nanda,  F. Plasser,  D. R. Rehn,  
 M. L. Vidal,  Zhi-Qiang You,  Ying Zhu,  B. Alam,  B. Albrecht,  
 A. Aldossary,  E. Alguire,  J. H. Andersen,  D. Barton,  K. Begam,  A. Behn,  
 Y. A. Bernard,  E. J. Berquist,  H. Burton,  A. Carreras,  K. Carter-Fenk,  
 R. Chakraborty,  A. D. Chien,  K. D. Closser,  V. Cofer-Shabica,  
 S. Dasgupta,  Jia Deng,  M. de Wergifosse,  M. Diedenhofen,  Hainam Do,  
 S. Ehlert,  Po-Tung Fang,  S. Fatehi,  Qingguo Feng,  T. Friedhoff,  
 J. Gayvert,  Qinghui Ge,  G. Gidofalvi,  M. Goldey,  J. Gomes,  
 C. Gonzalez-Espinoza,  S. Gulania,  A. Gunina,  M. W. D. Hanson-Heine,  
 P. H. P. Harbach,  A. W. Hauser,  M. F. Herbst,  M. Hernandez Vera,  
 M. Hodecker,  Z. C. Holden,  S. Houck,  Xunkun Huang,  Kerwin Hui,  
 B. C. Huynh,  M. Ivanov,  Hyunjun Ji,  Hanjie Jiang,  B. Kaduk,  S. Kaehler,  
 K. Khistyaev,  Jaehoon Kim,  P. Klunzinger,  Z. Koczor-Benda,  
 Joong Hoon Koh,  D. Kosenkov,  L. Koulias,  T. Kowalczyk,  C. M. Krauter,  
 K. Kue,  A. Kunitsa,  T. Kus,  A. Landau,  K. V. Lawler,  D. Lefrancois,  
 S. Lehtola,  Rain Li,  Yi-Pei Li,  Jiashu Liang,  M. Liebenthal,  
 Hung-Hsuan Lin,  You-Sheng Lin,  Fenglai Liu,  Kuan-Yu Liu,  
 M. Loipersberger,  A. Luenser,  A. Manjanath,  P. Manohar,  E. Mansoor,  
 S. F. Manzer,  Shan-Ping Mao,  A. V. Marenich,  T. Markovich,  S. Mason,  
 S. A. Maurer,  P. F. McLaughlin,  M. F. S. J. Menger,  J.-M. Mewes,  
 S. A. Mewes,  P. Morgante,  J. W. Mullinax,  K. J. Oosterbaan,  G. Paran,  
 Alexander C. Paul,  Suranjan K. Paul,  F. Pavosevic,  Zheng Pei,  S. Prager,  
 E. I. Proynov,  E. Ramos,  B. Rana,  A. E. Rask,  A. Rettig,  R. M. Richard,  
 F. Rob,  E. Rossomme,  T. Scheele,  M. Scheurer,  M. Schneider,  
 N. Sergueev,  S. M. Sharada,  W. Skomorowski,  D. W. Small,  C. J. Stein,  
 Yu-Chuan Su,  E. J. Sundstrom,  Zhen Tao,  J. Thirman,  T. Tsuchimochi,  
 N. M. Tubman,  S. P. Veccham,  O. Vydrov,  J. Wenzel,  J. Witte,  A. Yamada,  
 Kun Yao,  S. Yeganeh,  S. R. Yost,  A. Zech,  Igor Ying Zhang,  Xing Zhang,  
 Yu Zhang,  D. Zuev,  A. Aspuru-Guzik,  A. T. Bell,  N. A. Besley,  
 K. B. Bravaya,  B. R. Brooks,  D. Casanova,  Jeng-Da Chai,  S. Coriani,  
 C. J. Cramer,  A. E. DePrince, III,  R. A. DiStasio Jr.,  A. Dreuw,  
 B. D. Dunietz,  T. R. Furlani,  W. A. Goddard III,  S. Grimme,  
 S. Hammes-Schiffer,  T. Head-Gordon,  W. J. Hehre,  Chao-Ping Hsu,  
 T.-C. Jagau,  Yousung Jung,  A. Klamt,  Jing Kong,  D. S. Lambrecht,  
 WanZhen Liang,  N. J. Mayhall,  C. W. McCurdy,  J. B. Neaton,  
 C. Ochsenfeld,  J. A. Parkhill,  R. Peverati,  V. A. Rassolov,  Yihan Shao,  
 L. V. Slipchenko,  T. Stauch,  R. P. Steele,  J. E. Subotnik,  
 A. J. W. Thom,  A. Tkatchenko,  D. G. Truhlar,  T. Van Voorhis,  
 T. A. Wesolowski,  K. B. Whaley,  H. L. Woodcock III,  P. M. Zimmerman,  
 S. Faraji,  P. M. W. Gill,  M. Head-Gordon,  J. M. Herbert,  A. I. Krylov

 Additional authors for Version 5.4.1: 
 S. Kotaru,  Shaozhi Li,  Xiangyuan Li,  F. Matz,  A. Molle,  Haisheng Ren,  
 Yingli Su,  Hung-Yi Tsai,  C. Utku,  Fang Wang

 Contributors to earlier versions of Q-Chem not listed above: 
 R. D. Adamson,  B. Austin,  R. Baer,  J. Baker,  G. J. O. Beran,  
 K. Brandhorst,  S. T. Brown,  E. F. C. Byrd,  A. K. Chakraborty,  
 G. K. L. Chan,  Chun-Min Chang,  Yunqing Chen,  C.-L. Cheng,  
 Siu Hung Chien,  D. M. Chipman,  D. L. Crittenden,  H. Dachsel,  
 R. J. Doerksen,  A. D. Dutoi,  R. G. Edgar,  J. Fosso-Tande,  
 L. Fusti-Molnar,  D. Ghosh,  A. Ghysels,  A. Golubeva-Zadorozhnaya,  
 J. Gonthier,  M. S. Gordon,  S. R. Gwaltney,  G. Hawkins,  J. E. Herr,  
 A. Heyden,  S. Hirata,  E. G. Hohenstein,  G. Kedziora,  F. J. Keil,  
 C. Kelley,  Jihan Kim,  R. A. King,  R. Z. Khaliullin,  P. P. Korambath,  
 W. Kurlancheek,  A. Laurent,  A. M. Lee,  M. S. Lee,  S. V. Levchenko,  
 Ching Yeh Lin,  D. Liotard,  E. Livshits,  R. C. Lochan,  I. Lotan,  
 L. A. Martinez-Martinez,  P. E. Maslen,  N. Nair,  D. P. O'Neill,  
 D. Neuhauser,  E. Neuscamman,  C. M. Oana,  R. Olivares-Amaya,  R. Olson,  
 T. M. Perrine,  B. Peters,  P. A. Pieniazek,  A. Prociuk,  Y. M. Rhee,  
 J. Ritchie,  M. A. Rohrdanz,  E. Rosta,  N. J. Russ,  H. F. Schaefer III,  
 M. W. Schmidt,  N. E. Schultz,  S. Sharma,  N. Shenvi,  C. D. Sherrill,  
 A. C. Simmonett,  A. Sodt,  T. Stein,  D. Stuck,  K. S. Thanthiriwatte,  
 V. Vanovschi,  L. Vogt,  Tao Wang,  A. Warshel,  M. A. Watson,  
 C. F. Williams,  Q. Wu,  X. Xu,  Jun Yang,  W. Zhang,  Yan Zhao

 Please cite Q-Chem as follows:
 Y. Shao et al., Mol. Phys. 113, 184-215 (2015)
 DOI: 10.1080/00268976.2014.952696

 Q-Chem 5.4.1 for Intel X86 EM64T Linux

 Parts of Q-Chem use Armadillo 9.800.1 (Horizon Scraper).
 http://arma.sourceforge.net/

 Q-Chem begins on Wed Mar 15 16:17:01 2023  

 Host: cpu121.yggdrasil
0

     Scratch files written to /srv/beegfs/scratch/users/f/fum/qchem66715//
 Processing $rem in /home/share/wesolowski/qc5.aug2021.FDE/config/preferences:
 Processing $rem in /home/fum/.qchemrc:

 Checking the input file for inconsistencies... 	...done.

--------------------------------------------------------------
User input:
--------------------------------------------------------------
$comment
generated from CCJob.Templates
$end

$rem
sym_ignore = true
method = adc(2)
ee_states = 10
basis = cc-pVDZ
mem_static = 1024
mem_total = 40000
adc_davidson_maxiter = 900
adc_davidson_conv = 6
adc_print = 3
adc_prop_es = true
adc_prop_es2es = true
adc_prop_tpa = true
molden_format = True
state_analysis = true
print_orbitals = 15
gen_scfman = false
fde_export_density = true
fde_details = 3
$end

$molecule
0 1
H -0.0348278765 -0.2442097827 0.0636489606
C -1.0765972949 -0.5242748755 -0.0023551776
H -1.313264467 -1.6167591607 -0.0757276926
C -2.043634118 0.3926884087 0.0061254933
H -1.8137616575 1.4459188338 0.0804456828
H -3.085977293 0.114931858 -0.0593381042                     
$end
--------------------------------------------------------------
 ----------------------------------------------------------------
             Standard Nuclear Orientation (Angstroms)
    I     Atom           X                Y                Z
 ----------------------------------------------------------------
    1      H      -0.0348278765    -0.2442097827     0.0636489606
    2      C      -1.0765972949    -0.5242748755    -0.0023551776
    3      H      -1.3132644670    -1.6167591607    -0.0757276926
    4      C      -2.0436341180     0.3926884087     0.0061254933
    5      H      -1.8137616575     1.4459188338     0.0804456828
    6      H      -3.0859772930     0.1149318580    -0.0593381042
 ----------------------------------------------------------------
 Nuclear Repulsion Energy =          33.28599078 hartrees
 There are        8 alpha and        8 beta electrons
 Requested basis set is cc-pVDZ
 There are 24 shells and 48 basis functions
 Total memory of 40000 MB is distributed as follows: 
   MEM_STATIC is set to 1024 MB
   QALLOC/CCMAN JOB total memory use is  38976 MB
 Warning: actual memory use might exceed 40000 MB

 Total QAlloc Memory Limit  40000 MB
 Mega-Array Size      1001 MB
 MEM_STATIC part      1024 MB

                       Distance Matrix (Angstroms)
             H (  1)   C (  2)   H (  3)   C (  4)   H (  5)
   C (  2)  1.080776
   H (  3)  1.880882  1.120231
   C (  4)  2.108139  1.332687  2.139631
   H (  5)  2.453859  2.105215  3.107231  1.080583
   H (  6)  3.074674  2.109370  2.478212  1.080700  1.846510

 A cutoff of  1.0D-11 yielded    300 shell pairs
 There are      1220 function pairs (      1329 Cartesian)
 Smallest overlap matrix eigenvalue = 4.80E-03

 Scale SEOQF with 1.000000e-01/1.000000e-01/1.000000e+00

 Standard Electronic Orientation quadrupole field applied
 Nucleus-field energy     =     0.0000000022 hartrees
 Guess from superposition of atomic densities
 Warning:  Energy on first SCF cycle will be non-variational
 SAD guess density has 16.000000 electrons
 A restricted Hartree-Fock SCF calculation will be
 performed using Pulay DIIS extrapolation
 SCF converges when DIIS error is below 1.0E-08
 using 10 threads for integral computing
 -------------------------------------------------------
 OpenMP Integral computing Module                
 Release: version 1.0, May 2013, Q-Chem Inc. Pittsburgh 
 -------------------------------------------------------
 ---------------------------------------
  Cycle       Energy         DIIS Error
 ---------------------------------------
    1     -78.4109412973      9.99E-02
    2     -78.0169051768      7.17E-03
    3     -78.0374628979      1.84E-03
    4     -78.0389485727      5.81E-04
    5     -78.0390728857      6.75E-05
    6     -78.0390749837      2.07E-05
    7     -78.0390751696      6.86E-06
    8     -78.0390751896      1.49E-06
    9     -78.0390751917      4.73E-07
   10     -78.0390751919      9.00E-08
   11     -78.0390751919      6.05E-09 Convergence criterion met
 ---------------------------------------
 SCF time:  CPU 1.96 s  wall 6.67 s
 SCF   energy in the final basis set = -78.03907519
 Total energy in the final basis set = -78.03907519
Exporting Density Matrix to file 'Densmat_SCF.txt'.
Export successful
================================================================================
|                                                                              |
|                                 A D C  M A N                                 |
|                                                                              |
 ------------------------------------------------------------------------------ 
|                                                                              |
| Components:                                                                  |
|                                                                              |
| - libvmm - 1.3-trunk                                                         |
|   Authors:                                                                   |
|   Evgeny Epifanovsky, Ilya Kaliman                                           |
|                                                                              |
| - libtensor - 2.5-trunk                                                      |
|   Authors:                                                                   |
|   Evgeny Epifanovsky, Michael Wormit, Dmitry Zuev, Sam Manzer,               |
|   Ilya Kaliman                                                               |
|                                                                              |
| - libwfa - 1.1-trunk                                                         |
|   Authors:                                                                   |
|   Felix Plasser, Stefanie Mewes (Baeppler), Benjamin Thomitzni,              |
|   Michael Wormit, Feng Chen, Anna I. Krylov, Pavel Pokhilko                  |
|                                                                              |
| - libadc - 1.1-trunk                                                         |
|   Authors:                                                                   |
|   Michael Wormit, Adrian L. Dempwolff, Philipp H. P. Harbach,                |
|   Caroline Krauter, Dirk Rehn, Matthias Schneider, Jan Wenzel                |
|                                                                              |
| - adcman - 2.6-trunk                                                         |
|   Authors:                                                                   |
|   Michael Wormit, Adrian L. Dempwolff, Philipp H. P. Harbach,                |
|   Caroline Krauter, Daniel Lefrancois, Jan-Michael Mewes, Dirk Rehn,         |
|   Matthias Schneider, Jan Wenzel, Andreas Dreuw                              |
|                                                                              |
| Authors of earlier versions of ADCMAN:                                       |
| Andreas Dreuw, Jan Hendrik Starcke, Dirk Rehn, Michael Wormit                |
|                                                                              |
================================================================================

 Created directory /srv/beegfs/scratch/users/f/fum/qchem66715/plots
  Import QC data ...  CPU 0.00 s  wall 0.01 s

 Alpha MOs, Restricted
 -- Occupied --                  
-11.239 -11.235  -1.031  -0.787  -0.638  -0.581  -0.501  -0.374
  1 A     2 A     3 A     4 A     5 A     6 A     7 A     8 A                  
 -- Virtual --                   
  0.168   0.203   0.231   0.238   0.303   0.462   0.578   0.613
  9 A    10 A    11 A    12 A    13 A    14 A    15 A    16 A                  
  0.689   0.705   0.779   0.808   0.860   0.931   0.971   1.007
 17 A    18 A    19 A    20 A    21 A    22 A    23 A    24 A                  
  1.129   1.236   1.250   1.265   1.292   1.594   1.719   1.746
 25 A    26 A    27 A    28 A    29 A    30 A    31 A    32 A                  
  1.814   1.857   1.859   1.911   1.964   1.977   2.220   2.251
 33 A    34 A    35 A    36 A    37 A    38 A    39 A    40 A                  
  2.364   2.432   2.491   2.619   2.693   2.807   3.118   3.377
 41 A    42 A    43 A    44 A    45 A    46 A    47 A    48 A                  

 Beta MOs, Restricted
 -- Occupied --                  
-11.239 -11.235  -1.031  -0.787  -0.638  -0.581  -0.501  -0.374
  1 A     2 A     3 A     4 A     5 A     6 A     7 A     8 A                  
 -- Virtual --                   
  0.168   0.203   0.231   0.238   0.303   0.462   0.578   0.613
  9 A    10 A    11 A    12 A    13 A    14 A    15 A    16 A                  
  0.689   0.705   0.779   0.808   0.860   0.931   0.971   1.007
 17 A    18 A    19 A    20 A    21 A    22 A    23 A    24 A                  
  1.129   1.236   1.250   1.265   1.292   1.594   1.719   1.746
 25 A    26 A    27 A    28 A    29 A    30 A    31 A    32 A                  
  1.814   1.857   1.859   1.911   1.964   1.977   2.220   2.251
 33 A    34 A    35 A    36 A    37 A    38 A    39 A    40 A                  
  2.364   2.432   2.491   2.619   2.693   2.807   3.118   3.377
 41 A    42 A    43 A    44 A    45 A    46 A    47 A    48 A                  
  Import AO data ...  CPU 0.01 s  wall 0.04 s
  Using point group: C1
  Irreducible representations in point group: A
  Molecular orbitals: 
  Occupied MOs:
  Block   0:   1 (  A) A   2 (  A) A   3 (  A) A   4 (  A) A   5 (  A) A
                  -11.24      -11.23      -1.031     -0.7865     -0.6378
               6 (  A) A   7 (  A) A   8 (  A) A
                 -0.5812     -0.5012     -0.3744
  Block   1:   1 (  A) B   2 (  A) B   3 (  A) B   4 (  A) B   5 (  A) B
                  -11.24      -11.23      -1.031     -0.7865     -0.6378
               6 (  A) B   7 (  A) B   8 (  A) B
                 -0.5812     -0.5012     -0.3744
  Virtual MOs:
  Block   0:   9 (  A) A  10 (  A) A  11 (  A) A  12 (  A) A  13 (  A) A
                  0.1683      0.2026      0.2311       0.238      0.3029
              14 (  A) A  15 (  A) A  16 (  A) A  17 (  A) A  18 (  A) A
                  0.4618      0.5781      0.6126      0.6887      0.7049
              19 (  A) A  20 (  A) A  21 (  A) A  22 (  A) A
                  0.7787      0.8076      0.8597      0.9307
  Block   1:  23 (  A) A  24 (  A) A  25 (  A) A  26 (  A) A  27 (  A) A
                  0.9711       1.007       1.129       1.236        1.25
              28 (  A) A  29 (  A) A  30 (  A) A  31 (  A) A  32 (  A) A
                   1.265       1.292       1.594       1.719       1.746
              33 (  A) A  34 (  A) A  35 (  A) A  36 (  A) A
                   1.814       1.857       1.859       1.911
  Block   2:  37 (  A) A  38 (  A) A  39 (  A) A  40 (  A) A  41 (  A) A
                   1.964       1.977        2.22       2.251       2.364
              42 (  A) A  43 (  A) A  44 (  A) A  45 (  A) A  46 (  A) A
                   2.432       2.491       2.619       2.693       2.807
              47 (  A) A  48 (  A) A
                   3.118       3.377
  Block   3:   9 (  A) B  10 (  A) B  11 (  A) B  12 (  A) B  13 (  A) B
                  0.1683      0.2026      0.2311       0.238      0.3029
              14 (  A) B  15 (  A) B  16 (  A) B  17 (  A) B  18 (  A) B
                  0.4618      0.5781      0.6126      0.6887      0.7049
              19 (  A) B  20 (  A) B  21 (  A) B  22 (  A) B
                  0.7787      0.8076      0.8597      0.9307
  Block   4:  23 (  A) B  24 (  A) B  25 (  A) B  26 (  A) B  27 (  A) B
                  0.9711       1.007       1.129       1.236        1.25
              28 (  A) B  29 (  A) B  30 (  A) B  31 (  A) B  32 (  A) B
                   1.265       1.292       1.594       1.719       1.746
              33 (  A) B  34 (  A) B  35 (  A) B  36 (  A) B
                   1.814       1.857       1.859       1.911
  Block   5:  37 (  A) B  38 (  A) B  39 (  A) B  40 (  A) B  41 (  A) B
                   1.964       1.977        2.22       2.251       2.364
              42 (  A) B  43 (  A) B  44 (  A) B  45 (  A) B  46 (  A) B
                   2.432       2.491       2.619       2.693       2.807
              47 (  A) B  48 (  A) B
                   3.118       3.377
  Import MO data ...  CPU 0.01 s  wall 0.02 s
  Import HF data ...  CPU 0.07 s  wall 0.04 s
  Import 2e integrals ...  CPU 0.86 s  wall 0.13 s

--------------------------------------------------------------------------------
                                   HF Summary                                   
--------------------------------------------------------------------------------
  Energy:                                                  -78.0390751919 a.u.
  Dip. moment [a.u.]:                  [   0.000131,    0.008523,    0.001602]
  Total dipole [Debye]:                                               0.022044
  <r^2> [a.u.]:                        [ 175.339768,   35.381019,   11.662284]
  Total <r^2> [a.u.]:                                               222.383071
--------------------------------------------------------------------------------
  HF properties ...  CPU 0.01 s  wall 0.01 s
  MP(1) calculation ...  CPU 0.01 s  wall 0.01 s
  N^6 prerequesite intermediates ...  CPU 0.42 s  wall 0.08 s
  Difference density matrix of state mp2_gs printed to ASCII file 'State_mp2_gs_Difference.txt'
Exporting MP density matrix to file 'Densmat_MP.txt'.
Export successful
  Total density matrix of state mp2_gs printed to ASCII file 'State_mp2_gs_Total.txt'
Exporting MP density matrix to file 'Densmat_MP.txt'.
Export successful

--------------------------------------------------------------------------------
                                 MP(2) Summary                                  
--------------------------------------------------------------------------------
  MP energy contribution:                                   -0.2802474969 a.u.
  Total energy:                                            -78.3193226888 a.u.
  Dip. moment [a.u.]:                  [  -0.000356,    0.007628,    0.001512]
  Total dipole [Debye]:                                               0.019786
  <r^2> [a.u.]:                        [ 175.382000,   35.415144,   11.491254]
  Total <r^2> [a.u.]:                                               222.288399

  Density matrix analysis:
  ------------------------
  NOs
    Occupation of frontier NOs:
       0.0454   1.9381
    Number of electrons: 16.000000
    Number of unpaired electrons: n_u =  0.40607, n_u,nl =  0.04557
    NO participation ratio (PR_NO): 13.888482
  
  
  Mulliken Population Analysis
  Atom      Charge (e)              h+              e-           Del q
  --------------------------------------------------------------------
   1 H        0.052143        0.013961       -0.011320        0.002641
   2 C       -0.118444        0.095753       -0.100132       -0.004379
   3 H        0.059665        0.013579       -0.011387        0.002192
   4 C       -0.095416        0.092572       -0.098851       -0.006279
   5 H        0.050877        0.014137       -0.011194        0.002943
   6 H        0.051176        0.014101       -0.011218        0.002883
  --------------------------------------------------------------------
  Sum:        0.000000        0.244103       -0.244103       -0.000000
  
  Multipole moment analysis of the density matrix
    Molecular charge:                      0.000000
    Number of electrons:                   16.000000
      Center of electronic charge [Ang]: [ -1.560564,  -0.068355,   0.001928]
    Total nuclear charge:                  16.000000
      Center of nuclear charge [Ang]:    [ -1.560576,  -0.068102,   0.001978]
    Dipole moment [D]:                     0.019786
      Cartesian components [D]:          [ -0.000905,   0.019388,   0.003844]
    RMS size of the density [Ang]:         1.204328
      Cartesian components [Ang]:        [  0.796327,   0.784319,   0.448457]
  
  Exciton analysis of the difference density matrix
    <r_h> [Ang]:                  [ -1.558391,  -0.074860,   0.001475]
    <r_e> [Ang]:                  [ -1.557335,  -0.072920,   0.001669]
    |<r_e - r_h>| [Ang]:            0.002217
    Hole size [Ang]:                1.399008
      Cartesian components [Ang]: [  0.846473,   0.842747,   0.728345]
    Electron size [Ang]:            1.360953
      Cartesian components [Ang]: [  0.876500,   0.865827,   0.578174]
--------------------------------------------------------------------------------
  MP(2) calculation ...  CPU 0.11 s  wall 1.19 s
  Start ADC(2)-s ...  CPU 0.01 s  wall 0.00 s
  ADC(2) intermediates ...  CPU 0.02 s  wall 0.01 s
  Starting Davidson for singlet states of irrep A ... 
--------------------------------------------------------------------------------
   It NVec Conv  Avg. Norm  Max. Norm  Conv. states           Remark
--------------------------------------------------------------------------------
        10    0  1.329e-01  4.683e-01  0.4112 n n n n n n n n Guess.
    1   20    0  2.334e-02  1.118e-01  0.3264 n n n n n n n n 
    2   30    0  6.020e-03  2.840e-02  0.3216 n n n n n n n n 
    3   40    0  2.182e-03  1.570e-02  0.3212 n n n n n n n n 
    4   50    0  7.081e-04  5.487e-03  0.3212 n n n n n n n n 
    5   20    0  3.200e-04  2.462e-03  0.3212 n n n n n n n n Subspace collapsed.
    6   30    0  2.690e-04  2.069e-03  0.3212 n n n n n n n n 
    7   40    0  1.301e-04  9.193e-04  0.3212 n n n n n n n n 
    8   50    0  9.095e-05  7.675e-04  0.3212 n n n n n n n n 
    9   20    1  6.666e-05  6.252e-04  0.3212 n n n y n n n n Subspace collapsed.
   10   30    2  5.722e-05  5.184e-04  0.3212 n n y y n n n n 
   11   40    5  4.483e-05  4.249e-04  0.3212 n y y y y y n n 
   12   50    6  3.403e-05  3.342e-04  0.3212 y y y y y y n n 
   13   20    6  1.502e-05  1.437e-04  0.3212 y y y y y y n n Subspace collapsed.
   14   30    6  9.684e-06  9.366e-05  0.3212 y y y y y y n n 
   15   40    6  6.701e-06  6.562e-05  0.3212 y y y y y y n n 
   16   50    6  4.878e-06  4.843e-05  0.3212 y y y y y y n n 
   17   20    7  3.336e-06  3.323e-05  0.3212 y y y y y y n y Subspace collapsed.
   18   30    6  5.176e-06  5.163e-05  0.3212 y y y y y y n n 
   19   40    8  4.472e-06  4.466e-05  0.3212 y y y y y y y y 
   20   50    8  3.391e-06  3.388e-05  0.3212 y y y y y y y y 
   21   20    9  1.539e-06  1.538e-05  0.3212 y y y y y y y y Subspace collapsed.
   22   30    9  1.137e-06  1.136e-05  0.3212 y y y y y y y y 
   23   40    9  6.297e-07  6.293e-06  0.3212 y y y y y y y y 
   24   48    9  4.521e-07  4.519e-06  0.3212 y y y y y y y y 
   25   49    9  4.394e-07  4.392e-06  0.3212 y y y y y y y y 
   26   49    9  4.394e-07  4.392e-06  0.3212 y y y y y y y y 
   27   50    9  4.411e-07  4.408e-06  0.3212 y y y y y y y y 
   28   10    9  4.411e-07  4.408e-06  0.3212 y y y y y y y y Subspace collapsed.
   29   10    9  4.411e-07  4.408e-06  0.3212 y y y y y y y y 
   30   20    9  3.487e-07  3.485e-06  0.3212 y y y y y y y y 
   31   26    9  5.468e-07  5.465e-06  0.3212 y y y y y y y y 
   32   31    9  5.221e-07  5.220e-06  0.3212 y y y y y y y y 
   33   36    9  4.412e-07  4.411e-06  0.3212 y y y y y y y y 
   34   41    9  2.286e-07  2.286e-06  0.3212 y y y y y y y y 
   35   41    9  2.286e-07  2.286e-06  0.3212 y y y y y y y y 
   36   50    9  1.130e-07  1.130e-06  0.3212 y y y y y y y y 
   37   14   10  6.277e-08  6.276e-07  0.3212 y y y y y y y y Converged.
--------------------------------------------------------------------------------
  Davidson Summary: 
 ------------------------------------------------------------
  State  0: excitation energy =   0.3212 a.u.   (converged)
  State  1: excitation energy =   0.3304 a.u.   (converged)
  State  2: excitation energy =   0.3357 a.u.   (converged)
  State  3: excitation energy =   0.3588 a.u.   (converged)
  State  4: excitation energy =   0.3741 a.u.   (converged)
  State  5: excitation energy =   0.3865 a.u.   (converged)
  State  6: excitation energy =   0.4212 a.u.   (converged)
  State  7: excitation energy =   0.4453 a.u.   (converged)
  State  8: excitation energy =   0.4548 a.u.   (converged)
  State  9: excitation energy =   0.4601 a.u.   (converged)
 ------------------------------------------------------------

  Singlet states of irrep A ...  CPU 103.35 s  wall 26.84 s
  TDMs ...  CPU 0.59 s  wall 0.23 s
  SDMs ...  CPU 1.24 s  wall 0.43 s
  Starting TPA DIIS iterations ... 
------------------------------------ 
   It     Res. Norm  Remark
------------------------------------
                       Guess.
    1     4.404e+00  
    2     5.832e+00  
    3     1.074e+00  
    4     2.535e-01  
    5     6.489e-02  
    6     2.631e-02  
    7     8.269e-03  
    8     1.418e-03  
    9     5.262e-04  
   10     9.137e-05  
   11     2.757e-05  
   12     4.577e-06  
   13     1.671e-06  
   14     6.147e-07  Converged.
   ... Converged in 14 steps (norm: 6.14694e-07)
------------------------------------
  Starting TPA DIIS iterations ... 
------------------------------------ 
   It     Res. Norm  Remark
------------------------------------
                       Guess.
    1     4.163e+00  
    2     5.517e+00  
    3     1.042e+00  
    4     2.665e-01  
    5     6.597e-02  
    6     2.842e-02  
    7     8.328e-03  
    8     1.640e-03  
    9     6.133e-04  
   10     9.899e-05  
   11     3.334e-05  
   12     5.298e-06  
   13     1.764e-06  
   14     6.354e-07  Converged.
   ... Converged in 14 steps (norm: 6.35404e-07)
------------------------------------
  Starting TPA DIIS iterations ... 
------------------------------------ 
   It     Res. Norm  Remark
------------------------------------
                       Guess.
    1     6.889e-01  
    2     4.822e-01  
    3     1.692e-01  
    4     6.173e-02  
    5     1.876e-02  
    6     6.841e-03  
    7     1.184e-03  
    8     4.443e-04  
    9     1.801e-04  
   10     3.361e-05  
   11     2.228e-05  
   12     8.124e-06  
   13     4.431e-06  
   14     1.903e-06  
   15     5.604e-07  Converged.
   ... Converged in 15 steps (norm: 5.60436e-07)
------------------------------------
  Starting TPA DIIS iterations ... 
------------------------------------ 
   It     Res. Norm  Remark
------------------------------------
                       Guess.
    1     4.629e+00  
    2     6.236e+00  
    3     1.137e+00  
    4     2.755e-01  
    5     7.133e-02  
    6     2.912e-02  
    7     9.140e-03  
    8     1.564e-03  
    9     5.839e-04  
   10     1.020e-04  
   11     3.099e-05  
   12     5.203e-06  
   13     1.927e-06  
   14     7.201e-07  Converged.
   ... Converged in 14 steps (norm: 7.20096e-07)
------------------------------------
  Starting TPA DIIS iterations ... 
------------------------------------ 
   It     Res. Norm  Remark
------------------------------------
                       Guess.
    1     4.375e+00  
    2     5.898e+00  
    3     1.103e+00  
    4     2.896e-01  
    5     7.251e-02  
    6     3.150e-02  
    7     9.213e-03  
    8     1.816e-03  
    9     6.825e-04  
   10     1.106e-04  
   11     3.753e-05  
   12     6.033e-06  
   13     2.019e-06  
   14     7.433e-07  Converged.
   ... Converged in 14 steps (norm: 7.43265e-07)
------------------------------------
  Starting TPA DIIS iterations ... 
------------------------------------ 
   It     Res. Norm  Remark
------------------------------------
                       Guess.
    1     6.985e-01  
    2     4.959e-01  
    3     1.769e-01  
    4     6.804e-02  
    5     1.991e-02  
    6     7.333e-03  
    7     1.303e-03  
    8     4.923e-04  
    9     2.015e-04  
   10     3.963e-05  
   11     2.560e-05  
   12     9.412e-06  
   13     5.288e-06  
   14     2.337e-06  
   15     6.697e-07  Converged.
   ... Converged in 15 steps (norm: 6.69738e-07)
------------------------------------
  Starting TPA DIIS iterations ... 
------------------------------------ 
   It     Res. Norm  Remark
------------------------------------
                       Guess.
    1     4.766e+00  
    2     6.484e+00  
    3     1.176e+00  
    4     2.892e-01  
    5     7.535e-02  
    6     3.088e-02  
    7     9.685e-03  
    8     1.655e-03  
    9     6.201e-04  
   10     1.086e-04  
   11     3.316e-05  
   12     5.603e-06  
   13     2.094e-06  
   14     7.895e-07  Converged.
   ... Converged in 14 steps (norm: 7.89547e-07)
------------------------------------
  Starting TPA DIIS iterations ... 
------------------------------------ 
   It     Res. Norm  Remark
------------------------------------
                       Guess.
    1     4.504e+00  
    2     6.132e+00  
    3     1.140e+00  
    4     3.040e-01  
    5     7.659e-02  
    6     3.344e-02  
    7     9.766e-03  
    8     1.926e-03  
    9     7.260e-04  
   10     1.179e-04  
   11     4.018e-05  
   12     6.504e-06  
   13     2.183e-06  
   14     8.146e-07  Converged.
   ... Converged in 14 steps (norm: 8.14595e-07)
------------------------------------
  Starting TPA DIIS iterations ... 
------------------------------------ 
   It     Res. Norm  Remark
------------------------------------
                       Guess.
    1     7.040e-01  
    2     5.039e-01  
    3     1.815e-01  
    4     7.204e-02  
    5     2.060e-02  
    6     7.639e-03  
    7     1.378e-03  
    8     5.221e-04  
    9     2.148e-04  
   10     4.364e-05  
   11     2.776e-05  
   12     1.026e-05  
   13     5.863e-06  
   14     2.631e-06  
   15     7.389e-07  Converged.
   ... Converged in 15 steps (norm: 7.38877e-07)
------------------------------------
  Starting TPA DIIS iterations ... 
------------------------------------ 
   It     Res. Norm  Remark
------------------------------------
                       Guess.
    1     5.453e+00  
    2     7.760e+00  
    3     1.368e+00  
    4     3.621e-01  
    5     9.671e-02  
    6     4.033e-02  
    7     1.258e-02  
    8     2.138e-03  
    9     8.140e-04  
   10     1.444e-04  
   11     4.504e-05  
   12     7.834e-06  
   13     3.065e-06  
   14     1.205e-06  
   15     5.182e-07  Converged.
   ... Converged in 15 steps (norm: 5.18249e-07)
------------------------------------
  Starting TPA DIIS iterations ... 
------------------------------------ 
   It     Res. Norm  Remark
------------------------------------
                       Guess.
    1     5.151e+00  
    2     7.338e+00  
    3     1.325e+00  
    4     3.805e-01  
    5     9.831e-02  
    6     4.385e-02  
    7     1.271e-02  
    8     2.512e-03  
    9     9.596e-04  
   10     1.573e-04  
   11     5.471e-05  
   12     9.142e-06  
   13     3.115e-06  
   14     1.246e-06  
   15     3.550e-07  Converged.
   ... Converged in 15 steps (norm: 3.54979e-07)
------------------------------------
  Starting TPA DIIS iterations ... 
------------------------------------ 
   It     Res. Norm  Remark
------------------------------------
                       Guess.
    1     7.296e-01  
    2     5.425e-01  
    3     2.041e-01  
    4     9.389e-02  
    5     2.403e-02  
    6     9.258e-03  
    7     1.786e-03  
    8     6.754e-04  
    9     2.859e-04  
   10     6.766e-05  
   11     4.009e-05  
   12     1.541e-05  
   13     9.461e-06  
   14     4.452e-06  
   15     1.121e-06  
   16     4.594e-07  Converged.
   ... Converged in 16 steps (norm: 4.59351e-07)
------------------------------------
  Starting TPA DIIS iterations ... 
------------------------------------ 
   It     Res. Norm  Remark
------------------------------------
                       Guess.
    1     6.001e+00  
    2     8.814e+00  
    3     1.521e+00  
    4     4.246e-01  
    5     1.150e-01  
    6     4.854e-02  
    7     1.507e-02  
    8     2.550e-03  
    9     9.822e-04  
   10     1.755e-04  
   11     5.563e-05  
   12     9.869e-06  
   13     4.004e-06  
   14     1.621e-06  
   15     7.097e-07  Converged.
   ... Converged in 15 steps (norm: 7.09698e-07)
------------------------------------
  Starting TPA DIIS iterations ... 
------------------------------------ 
   It     Res. Norm  Remark
------------------------------------
                       Guess.
    1     5.667e+00  
    2     8.333e+00  
    3     1.471e+00  
    4     4.462e-01  
    5     1.169e-01  
    6     5.293e-02  
    7     1.525e-02  
    8     3.016e-03  
    9     1.163e-03  
   10     1.917e-04  
   11     6.759e-05  
   12     1.157e-05  
   13     3.981e-06  
   14     1.691e-06  
   15     5.026e-07  Converged.
   ... Converged in 15 steps (norm: 5.02579e-07)
------------------------------------
  Starting TPA DIIS iterations ... 
------------------------------------ 
   It     Res. Norm  Remark
------------------------------------
                       Guess.
    1     7.475e-01  
    2     5.712e-01  
    3     2.214e-01  
    4     1.133e-01  
    5     2.679e-02  
    6     1.064e-02  
    7     2.149e-03  
    8     7.961e-04  
    9     3.464e-04  
   10     9.114e-05  
   11     5.183e-05  
   12     2.065e-05  
   13     1.336e-05  
   14     6.296e-06  
   15     1.497e-06  
   16     6.129e-07  Converged.
   ... Converged in 16 steps (norm: 6.12942e-07)
------------------------------------
  Starting TPA DIIS iterations ... 
------------------------------------ 
   It     Res. Norm  Remark
------------------------------------
                       Guess.
    1     6.515e+00  
    2     9.828e+00  
    3     1.663e+00  
    4     4.865e-01  
    5     1.332e-01  
    6     5.674e-02  
    7     1.754e-02  
    8     2.956e-03  
    9     1.150e-03  
   10     2.066e-04  
   11     6.636e-05  
   12     1.197e-05  
   13     5.022e-06  
   14     2.087e-06  
   15     9.216e-07  Converged.
   ... Converged in 15 steps (norm: 9.21552e-07)
------------------------------------
  Starting TPA DIIS iterations ... 
------------------------------------ 
   It     Res. Norm  Remark
------------------------------------
                       Guess.
    1     6.151e+00  
    2     9.291e+00  
    3     1.608e+00  
    4     5.112e-01  
    5     1.354e-01  
    6     6.201e-02  
    7     1.776e-02  
    8     3.517e-03  
    9     1.367e-03  
   10     2.261e-04  
   11     8.057e-05  
   12     1.409e-05  
   13     4.888e-06  
   14     2.202e-06  
   15     6.850e-07  Converged.
   ... Converged in 15 steps (norm: 6.85001e-07)
------------------------------------
  Starting TPA DIIS iterations ... 
------------------------------------ 
   It     Res. Norm  Remark
------------------------------------
                       Guess.
    1     7.627e-01  
    2     5.966e-01  
    3     2.373e-01  
    4     1.328e-01  
    5     2.944e-02  
    6     1.201e-02  
    7     2.517e-03  
    8     9.036e-04  
    9     4.057e-04  
   10     1.163e-04  
   11     6.438e-05  
   12     2.655e-05  
   13     1.802e-05  
   14     8.316e-06  
   15     1.947e-06  
   16     7.903e-07  Converged.
   ... Converged in 16 steps (norm: 7.90307e-07)
------------------------------------
  Starting TPA DIIS iterations ... 
------------------------------------ 
   It     Res. Norm  Remark
------------------------------------
                       Guess.
    1     8.401e+00  
    2     1.375e+01  
    3     2.176e+00  
    4     7.365e-01  
    5     2.066e-01  
    6     9.055e-02  
    7     2.751e-02  
    8     4.583e-03  
    9     1.838e-03  
   10     3.346e-04  
   11     1.108e-04  
   12     2.124e-05  
   13     9.931e-06  
   14     4.488e-06  
   15     1.966e-06  
   16     6.765e-07  Converged.
   ... Converged in 16 steps (norm: 6.76467e-07)
------------------------------------
  Starting TPA DIIS iterations ... 
------------------------------------ 
   It     Res. Norm  Remark
------------------------------------
                       Guess.
    1     7.929e+00  
    2     1.300e+01  
    3     2.101e+00  
    4     7.735e-01  
    5     2.101e-01  
    6     9.963e-02  
    7     2.797e-02  
    8     5.551e-03  
    9     2.206e-03  
   10     3.682e-04  
   11     1.336e-04  
   12     2.560e-05  
   13     8.937e-06  
   14     5.010e-06  
   15     1.871e-06  
   16     1.248e-06  
   17     5.152e-07  Converged.
   ... Converged in 17 steps (norm: 5.15215e-07)
------------------------------------
  Starting TPA DIIS iterations ... 
------------------------------------ 
   It     Res. Norm  Remark
------------------------------------
                       Guess.
    1     8.090e-01  
    2     6.811e-01  
    3     2.922e-01  
    4     2.125e-01  
    5     3.981e-02  
    6     1.748e-02  
    7     4.068e-03  
    8     1.238e-03  
    9     6.388e-04  
   10     2.299e-04  
   11     1.231e-04  
   12     5.616e-05  
   13     4.334e-05  
   14     1.792e-05  
   15     4.716e-06  
   16     1.683e-06  
   17     5.943e-07  Converged.
   ... Converged in 17 steps (norm: 5.94267e-07)
------------------------------------
  Starting TPA DIIS iterations ... 
------------------------------------ 
   It     Res. Norm  Remark
------------------------------------
                       Guess.
    1     1.028e+01  
    2     1.795e+01  
    3     2.676e+00  
    4     1.015e+00  
    5     2.889e-01  
    6     1.294e-01  
    7     3.870e-02  
    8     6.388e-03  
    9     2.622e-03  
   10     4.803e-04  
   11     1.604e-04  
   12     3.285e-05  
   13     1.677e-05  
   14     8.121e-06  
   15     3.427e-06  
   16     1.116e-06  
   17     5.459e-07  Converged.
   ... Converged in 17 steps (norm: 5.45901e-07)
------------------------------------
  Starting TPA DIIS iterations ... 
------------------------------------ 
   It     Res. Norm  Remark
------------------------------------
                       Guess.
    1     9.706e+00  
    2     1.697e+01  
    3     2.581e+00  
    4     1.064e+00  
    5     2.940e-01  
    6     1.430e-01  
    7     3.945e-02  
    8     7.847e-03  
    9     3.171e-03  
   10     5.310e-04  
   11     1.920e-04  
   12     4.113e-05  
   13     1.442e-05  
   14     9.500e-06  
   15     4.158e-06  
   16     2.547e-06  
   17     9.658e-07  Converged.
   ... Converged in 17 steps (norm: 9.65782e-07)
------------------------------------
  Starting TPA DIIS iterations ... 
------------------------------------ 
   It     Res. Norm  Remark
------------------------------------
                       Guess.
    1     8.450e-01  
    2     7.554e-01  
    3     3.431e-01  
    4     2.967e-01  
    5     5.105e-02  
    6     2.323e-02  
    7     5.841e-03  
    8     1.524e-03  
    9     8.917e-04  
   10     3.685e-04  
   11     2.001e-04  
   12     9.596e-05  
   13     7.604e-05  
   14     3.070e-05  
   15     9.400e-06  
   16     2.993e-06  
   17     9.854e-07  Converged.
   ... Converged in 17 steps (norm: 9.85403e-07)
------------------------------------
  Starting TPA DIIS iterations ... 
------------------------------------ 
   It     Res. Norm  Remark
------------------------------------
                       Guess.
    1     1.123e+01  
    2     2.014e+01  
    3     2.922e+00  
    4     1.162e+00  
    5     3.329e-01  
    6     1.504e-01  
    7     4.468e-02  
    8     7.346e-03  
    9     3.046e-03  
   10     5.586e-04  
   11     1.864e-04  
   12     3.957e-05  
   13     2.099e-05  
   14     1.046e-05  
   15     4.335e-06  
   16     1.394e-06  
   17     7.507e-07  Converged.
   ... Converged in 17 steps (norm: 7.50723e-07)
------------------------------------
  Starting TPA DIIS iterations ... 
------------------------------------ 
   It     Res. Norm  Remark
------------------------------------
                       Guess.
    1     1.059e+01  
    2     1.904e+01  
    3     2.817e+00  
    4     1.218e+00  
    5     3.389e-01  
    6     1.665e-01  
    7     4.559e-02  
    8     9.077e-03  
    9     3.693e-03  
   10     6.188e-04  
   11     2.229e-04  
   12     5.061e-05  
   13     1.795e-05  
   14     1.239e-05  
   15     5.781e-06  
   16     3.432e-06  
   17     1.226e-06  
   18     4.193e-07  Converged.
   ... Converged in 18 steps (norm: 4.19252e-07)
------------------------------------
  Starting TPA DIIS iterations ... 
------------------------------------ 
   It     Res. Norm  Remark
------------------------------------
                       Guess.
    1     8.604e-01  
    2     7.897e-01  
    3     3.673e-01  
    4     3.375e-01  
    5     5.691e-02  
    6     2.608e-02  
    7     6.780e-03  
    8     1.676e-03  
    9     1.025e-03  
   10     4.444e-04  
   11     2.448e-04  
   12     1.186e-04  
   13     9.221e-05  
   14     3.819e-05  
   15     1.245e-05  
   16     3.854e-06  
   17     1.241e-06  
   18     6.520e-07  Converged.
   ... Converged in 18 steps (norm: 6.52024e-07)
------------------------------------
  Starting TPA DIIS iterations ... 
------------------------------------ 
   It     Res. Norm  Remark
------------------------------------
                       Guess.
    1     1.180e+01  
    2     2.151e+01  
    3     3.070e+00  
    4     1.253e+00  
    5     3.606e-01  
    6     1.637e-01  
    7     4.844e-02  
    8     7.947e-03  
    9     3.313e-03  
   10     6.079e-04  
   11     2.026e-04  
   12     4.397e-05  
   13     2.384e-05  
   14     1.208e-05  
   15     4.959e-06  
   16     1.601e-06  
   17     9.112e-07  Converged.
   ... Converged in 17 steps (norm: 9.11215e-07)
------------------------------------
  Starting TPA DIIS iterations ... 
------------------------------------ 
   It     Res. Norm  Remark
------------------------------------
                       Guess.
    1     1.114e+01  
    2     2.033e+01  
    3     2.959e+00  
    4     1.313e+00  
    5     3.670e-01  
    6     1.815e-01  
    7     4.945e-02  
    8     9.853e-03  
    9     4.024e-03  
   10     6.743e-04  
   11     2.424e-04  
   12     5.697e-05  
   13     2.039e-05  
   14     1.436e-05  
   15     6.929e-06  
   16     4.062e-06  
   17     1.398e-06  
   18     4.924e-07  Converged.
   ... Converged in 18 steps (norm: 4.92429e-07)
------------------------------------
  Starting TPA DIIS iterations ... 
------------------------------------ 
   It     Res. Norm  Remark
------------------------------------
                       Guess.
    1     8.692e-01  
    2     8.100e-01  
    3     3.816e-01  
    4     3.615e-01  
    5     6.055e-02  
    6     2.777e-02  
    7     7.363e-03  
    8     1.777e-03  
    9     1.108e-03  
   10     4.922e-04  
   11     2.738e-04  
   12     1.332e-04  
   13     1.014e-04  
   14     4.312e-05  
   15     1.453e-05  
   16     4.468e-06  
   17     1.425e-06  
   18     7.990e-07  Converged.
   ... Converged in 18 steps (norm: 7.9897e-07)
------------------------------------
  Two-photon absorbption ...  CPU 104.31 s  wall 19.73 s
  Transition density matrix of state singlet_A_1 printed to ASCII file 'State_singlet_A_1_Transition.txt'
  Transition density matrix of state singlet_A_2 printed to ASCII file 'State_singlet_A_2_Transition.txt'
  Transition density matrix of state singlet_A_3 printed to ASCII file 'State_singlet_A_3_Transition.txt'
  Transition density matrix of state singlet_A_4 printed to ASCII file 'State_singlet_A_4_Transition.txt'
  Transition density matrix of state singlet_A_5 printed to ASCII file 'State_singlet_A_5_Transition.txt'
  Transition density matrix of state singlet_A_6 printed to ASCII file 'State_singlet_A_6_Transition.txt'
  Transition density matrix of state singlet_A_7 printed to ASCII file 'State_singlet_A_7_Transition.txt'
  Transition density matrix of state singlet_A_8 printed to ASCII file 'State_singlet_A_8_Transition.txt'
  Transition density matrix of state singlet_A_9 printed to ASCII file 'State_singlet_A_9_Transition.txt'
  Transition density matrix of state singlet_A_10 printed to ASCII file 'State_singlet_A_10_Transition.txt'
  Transition properties ...  CPU 0.14 s  wall 0.85 s
  Difference density matrix of state singlet_A_1 printed to ASCII file 'State_singlet_A_1_Difference.txt'
  Total density matrix of state singlet_A_1 printed to ASCII file 'State_singlet_A_1_Total.txt'
  Difference density matrix of state singlet_A_2 printed to ASCII file 'State_singlet_A_2_Difference.txt'
  Total density matrix of state singlet_A_2 printed to ASCII file 'State_singlet_A_2_Total.txt'
  Difference density matrix of state singlet_A_3 printed to ASCII file 'State_singlet_A_3_Difference.txt'
  Total density matrix of state singlet_A_3 printed to ASCII file 'State_singlet_A_3_Total.txt'
  Difference density matrix of state singlet_A_4 printed to ASCII file 'State_singlet_A_4_Difference.txt'
  Total density matrix of state singlet_A_4 printed to ASCII file 'State_singlet_A_4_Total.txt'
  Difference density matrix of state singlet_A_5 printed to ASCII file 'State_singlet_A_5_Difference.txt'
  Total density matrix of state singlet_A_5 printed to ASCII file 'State_singlet_A_5_Total.txt'
  Difference density matrix of state singlet_A_6 printed to ASCII file 'State_singlet_A_6_Difference.txt'
  Total density matrix of state singlet_A_6 printed to ASCII file 'State_singlet_A_6_Total.txt'
  Difference density matrix of state singlet_A_7 printed to ASCII file 'State_singlet_A_7_Difference.txt'
  Total density matrix of state singlet_A_7 printed to ASCII file 'State_singlet_A_7_Total.txt'
  Difference density matrix of state singlet_A_8 printed to ASCII file 'State_singlet_A_8_Difference.txt'
  Total density matrix of state singlet_A_8 printed to ASCII file 'State_singlet_A_8_Total.txt'
  Difference density matrix of state singlet_A_9 printed to ASCII file 'State_singlet_A_9_Difference.txt'
  Total density matrix of state singlet_A_9 printed to ASCII file 'State_singlet_A_9_Total.txt'
  Difference density matrix of state singlet_A_10 printed to ASCII file 'State_singlet_A_10_Difference.txt'
  Total density matrix of state singlet_A_10 printed to ASCII file 'State_singlet_A_10_Total.txt'
  Properties ...  CPU 0.27 s  wall 1.53 s
  ISR TDMS ...  CPU 7.85 s  wall 2.69 s
  ISR transition properties ...  CPU 0.15 s  wall 0.07 s
  Sum-over-states TPA ...  CPU 0.00 s  wall 0.00 s

--------------------------------------------------------------------------------
                   State-averaged natural transition orbitals
--------------------------------------------------------------------------------
--------------------------------------------------------------------------------
  SA-NTO decomposition ...  CPU 0.01 s  wall 0.04 s

--------------------------------------------------------------------------------
                             Excited State Summary
--------------------------------------------------------------------------------
--------------------------------------------------------------------------------

  Excited state 1 (singlet, A)                                     [converged]
  ----------------------------------------------------------------------------
  Term symbol:  2 (1) A                                     R^2 =  4.45034e-14

  Total energy:                                            -77.9981627540 a.u.
  Excitation energy:                                               8.739206 eV

  Osc. strength:                                                      0.446498
  Trans. dip. moment [a.u.]:           [   1.042187,   -0.999574,   -0.009901]
  <i|r^2|0> [a.u.]:                    [   6.155128,   -0.285963,   -0.002707]
  Two-photon absorption cross-section (SoS) [a.u.]:                   0.035413
  Two-photon absorption matrix (SoS) [a.u.]:
                                       |   -0.003894   -0.053432   -0.006922 |
                                       |   -0.053432   -0.027183   -0.007011 |
                                       |   -0.006922   -0.007011    0.045696 |
  Two-photon absorption cross-section [a.u.]:                         0.028470
  Two-photon absorption matrix [a.u.]:
                                       |    0.016837   -0.034244    0.000098 |
                                       |   -0.034244   -0.017604    0.004623 |
                                       |    0.000098    0.004623    0.052766 |

  Dip. moment [a.u.]:                  [  -0.000480,    0.006959,    0.001570]
  Total dipole [Debye]:                                               0.018174
  <r^2> [a.u.]:                        [ 176.135027,   36.098707,   11.902246]
  Total <r^2> [a.u.]:                                               224.135980

  V1^2 = 0.9713, V2^2 = 0.0287

  Important amplitudes:
      occ i     occ j     vir a      vir b          v   
    -----------------------------------------------------
     8 (A) A              9 (A) A                -0.6809
     6 (A) A             14 (A) A                -0.0618
     4 (A) A             10 (A) A                -0.0614
     7 (A) A             16 (A) A                -0.0568
     5 (A) A             13 (A) A                 0.0521
     6 (A) A             23 (A) A                -0.0483
     8 (A) A             20 (A) A                 0.0350
     6 (A) A             19 (A) A                -0.0300
     3 (A) A             12 (A) A                 0.0278
     5 (A) A             22 (A) A                 0.0214
     7 (A) A             11 (A) A                 0.0197
     4 (A) A             24 (A) A                -0.0188
     3 (A) A             26 (A) A                 0.0185
     8 (A) A   8 (A) B   17 (A) A   20 (A) B     -0.0184
     8 (A) A   8 (A) B    9 (A) A   28 (A) B     -0.0168
     6 (A) A             26 (A) A                 0.0162
     7 (A) A             21 (A) A                 0.0154
     3 (A) A             14 (A) A                -0.0141
     6 (A) A             12 (A) A                -0.0135
     3 (A) A   4 (A) B    9 (A) A    9 (A) B      0.0129
     3 (A) A             19 (A) A                -0.0119
     8 (A) A   8 (A) B   18 (A) A   19 (A) B      0.0110
     7 (A) A             32 (A) A                 0.0091
     7 (A) A              9 (A) A                 0.0089
     7 (A) A             36 (A) A                -0.0084
     3 (A) A             23 (A) A                -0.0082
     8 (A) A   8 (A) B   25 (A) A   29 (A) B     -0.0076
     6 (A) A             40 (A) A                 0.0067
     3 (A) A   6 (A) B    9 (A) A   28 (A) B     -0.0065
     7 (A) A   8 (A) B   13 (A) A   20 (A) B     -0.0060
     5 (A) A   7 (A) B    9 (A) A    9 (A) B     -0.0060
     6 (A) A   8 (A) A   19 (A) A   28 (A) A      0.0060
     5 (A) A   8 (A) B   11 (A) A    9 (A) B     -0.0059
     5 (A) A   8 (A) B   16 (A) A    9 (A) B     -0.0059
     5 (A) A   8 (A) B   11 (A) A   20 (A) B     -0.0059
     3 (A) A   5 (A) B    9 (A) A   25 (A) B      0.0058
     5 (A) A             27 (A) A                -0.0058
     7 (A) A   8 (A) B   22 (A) A   20 (A) B     -0.0057
     3 (A) A             40 (A) A                 0.0056
     3 (A) A             11 (A) A                 0.0056
    -----------------------------------------------------

  Density matrix analysis:
  ------------------------
  NOs
    Occupation of frontier NOs:
       0.9491   1.0220
    Number of electrons: 16.000000
    Number of unpaired electrons: n_u =  2.31578, n_u,nl =  2.03312
    NO participation ratio (PR_NO):  2.871752
  
  
  Mulliken Population Analysis
  Atom      Charge (e)              h+              e-           Del q
  --------------------------------------------------------------------
   1 H        0.059735        0.020113       -0.012520        0.007592
   2 C       -0.134442        0.490830       -0.506827       -0.015997
   3 H        0.067800        0.020589       -0.012455        0.008135
   4 C       -0.110820        0.490551       -0.505955       -0.015404
   5 H        0.058701        0.020439       -0.012615        0.007824
   6 H        0.059027        0.020326       -0.012475        0.007851
  --------------------------------------------------------------------
  Sum:        0.000000        1.062848       -1.062848       -0.000000
  
  Multipole moment analysis of the density matrix
    Molecular charge:                      0.000000
    Number of electrons:                   16.000000
      Center of electronic charge [Ang]: [ -1.560560,  -0.068332,   0.001926]
    Total nuclear charge:                  16.000000
      Center of nuclear charge [Ang]:    [ -1.560576,  -0.068102,   0.001978]
    Dipole moment [D]:                     0.018174
      Cartesian components [D]:          [ -0.001220,   0.017688,   0.003990]
    RMS size of the density [Ang]:         1.217685
      Cartesian components [Ang]:        [  0.804567,   0.791911,   0.456406]
  
  Exciton analysis of the difference density matrix
    <r_h> [Ang]:                  [ -1.560130,  -0.066756,   0.001413]
    <r_e> [Ang]:                  [ -1.560068,  -0.066423,   0.001385]
    |<r_e - r_h>| [Ang]:            0.000340
    Hole size [Ang]:                1.286580
      Cartesian components [Ang]: [  0.728322,   0.715222,   0.783131]
    Electron size [Ang]:            1.463663
      Cartesian components [Ang]: [  0.853841,   0.831676,   0.849458]

  Transition density matrix analysis:
  -----------------------------------
  
  CT numbers (Mulliken)
    omega =     0.9532
    <Phe> =    -0.1601
  
  Exciton analysis of the transition density matrix
    Trans. dipole moment [D]:             1.835256
      Cartesian components [D]:         [  1.324487,  -1.270331,  -0.012583]
    <r_h> [Ang]:                        [ -1.560269,  -0.065866,   0.001571]
    <r_e> [Ang]:                        [ -1.560095,  -0.066669,   0.001298]
    |<r_e - r_h>| [Ang]:                  0.000866
    Hole size [Ang]:                      1.214228
      Cartesian components [Ang]:       [  0.649462,   0.637136,   0.804119]
    Electron size [Ang]:                  1.486532
      Cartesian components [Ang]:       [  0.864304,   0.840538,   0.869628]
    RMS electron-hole separation [Ang]:   1.936571
      Cartesian components [Ang]:       [  1.106599,   1.075318,   1.170229]
    Covariance(r_h, r_e) [Ang^2]:        -0.033090
    Correlation coefficient:             -0.018332
    Center-of-mass size [Ang]:            0.951045
      Cartesian components [Ang]:       [  0.527513,   0.516861,   0.599225]

  Decomposition into state-averaged NTOs
    H- 0 -> L+ 0: -0.6697 ( 89.7%)
    H- 2 -> L+ 5:  0.0832 (  1.4%)
                   omega =  95.3%
  ----------------------------------------------------------------------------


  Excited state 2 (singlet, A)                                     [converged]
  ----------------------------------------------------------------------------
  Term symbol:  3 (1) A                                     R^2 =  3.11677e-13

  Total energy:                                            -77.9889048016 a.u.
  Excitation energy:                                               8.991128 eV

  Osc. strength:                                                      0.000600
  Trans. dip. moment [a.u.]:           [  -0.011830,    0.017447,   -0.047767]
  <i|r^2|0> [a.u.]:                    [  -0.010427,    0.094386,   -0.148488]
  Two-photon absorption cross-section (SoS) [a.u.]:                   5.437552
  Two-photon absorption matrix (SoS) [a.u.]:
                                       |    0.051952    0.060250   -0.497365 |
                                       |    0.060250    0.074723   -0.645724 |
                                       |   -0.497365   -0.645724   -0.123191 |
  Two-photon absorption cross-section [a.u.]:                         0.194511
  Two-photon absorption matrix [a.u.]:
                                       |   -0.000764   -0.008487    0.016902 |
                                       |   -0.008487   -0.016569    0.153718 |
                                       |    0.016902    0.153718    0.019406 |

  Dip. moment [a.u.]:                  [   0.077448,    0.032194,    0.008033]
  Total dipole [Debye]:                                               0.214158
  <r^2> [a.u.]:                        [ 175.194588,   34.493732,   13.148024]
  Total <r^2> [a.u.]:                                               222.836344

  V1^2 = 0.9542, V2^2 = 0.0458

  Important amplitudes:
      occ i     occ j     vir a      vir b          v   
    -----------------------------------------------------
     7 (A) A              9 (A) A                 0.6612
     8 (A) A             11 (A) A                -0.1538
     8 (A) A             10 (A) A                 0.0924
     7 (A) A             20 (A) A                -0.0749
     5 (A) A   8 (A) B    9 (A) A    9 (A) B      0.0311
     8 (A) A             16 (A) A                -0.0288
     8 (A) A             21 (A) A                -0.0185
     8 (A) A             12 (A) A                 0.0179
     5 (A) A             28 (A) A                -0.0148
     4 (A) A   7 (A) B    9 (A) A   19 (A) B     -0.0133
     5 (A) A   7 (A) B    9 (A) A   16 (A) B     -0.0132
     7 (A) A   8 (A) B   20 (A) A   17 (A) B      0.0104
     7 (A) A   8 (A) A    9 (A) A   28 (A) A     -0.0097
     5 (A) A   8 (A) B    9 (A) A   20 (A) B     -0.0094
     4 (A) A   6 (A) B    9 (A) A   16 (A) B     -0.0090
     5 (A) A   6 (A) A    9 (A) A   23 (A) A     -0.0089
     5 (A) A   6 (A) A    9 (A) A   14 (A) A     -0.0087
     8 (A) A              9 (A) A                 0.0086
     8 (A) A   7 (A) B    9 (A) A   28 (A) B      0.0084
     4 (A) A   5 (A) A    9 (A) A   10 (A) A      0.0084
     5 (A) A   6 (A) B    9 (A) A   19 (A) B     -0.0084
     6 (A) A   7 (A) B    9 (A) A   18 (A) B     -0.0083
     5 (A) A   6 (A) B    9 (A) A   23 (A) B     -0.0079
     3 (A) A   7 (A) B    9 (A) A   18 (A) B      0.0078
     5 (A) A   7 (A) A    9 (A) A   16 (A) A     -0.0077
     4 (A) A   8 (A) B    9 (A) A   25 (A) B      0.0076
     7 (A) A   8 (A) B   17 (A) A   20 (A) B      0.0073
     4 (A) A   7 (A) B   19 (A) A    9 (A) B     -0.0073
     5 (A) A   5 (A) B    9 (A) A   13 (A) B      0.0071
     7 (A) A   8 (A) B   19 (A) A   18 (A) B     -0.0070
     5 (A) A   8 (A) A    9 (A) A   20 (A) A     -0.0068
     4 (A) A   5 (A) B    9 (A) A   18 (A) B     -0.0067
     7 (A) A   7 (A) B   20 (A) A   22 (A) B      0.0064
     7 (A) A   8 (A) B   17 (A) A    9 (A) B     -0.0064
     5 (A) A   6 (A) B    9 (A) A   14 (A) B     -0.0062
     4 (A) A   5 (A) B   10 (A) A    9 (A) B     -0.0060
     4 (A) A   7 (A) A    9 (A) A   19 (A) A     -0.0060
     5 (A) A   7 (A) B   11 (A) A   20 (A) B      0.0060
     4 (A) A   7 (A) B    9 (A) A   14 (A) B      0.0059
     8 (A) A             24 (A) A                 0.0058
    -----------------------------------------------------

  Density matrix analysis:
  ------------------------
  NOs
    Occupation of frontier NOs:
       0.9359   1.0747
    Number of electrons: 16.000000
    Number of unpaired electrons: n_u =  2.35736, n_u,nl =  2.07936
    NO participation ratio (PR_NO):  3.159328
  
  
  Mulliken Population Analysis
  Atom      Charge (e)              h+              e-           Del q
  --------------------------------------------------------------------
   1 H        0.154505        0.114392       -0.012030        0.102362
   2 C       -0.302682        0.280042       -0.464280       -0.184238
   3 H        0.150820        0.140557       -0.049402        0.091155
   4 C       -0.285632        0.265123       -0.455338       -0.190215
   5 H        0.156692        0.120180       -0.014365        0.105815
   6 H        0.126296        0.115675       -0.040554        0.075121
  --------------------------------------------------------------------
  Sum:        0.000000        1.035969       -1.035969        0.000000
  
  Multipole moment analysis of the density matrix
    Molecular charge:                      0.000000
    Number of electrons:                   16.000000
      Center of electronic charge [Ang]: [ -1.563138,  -0.069167,   0.001712]
    Total nuclear charge:                  16.000000
      Center of nuclear charge [Ang]:    [ -1.560576,  -0.068102,   0.001978]
    Dipole moment [D]:                     0.214158
      Cartesian components [D]:          [  0.196852,   0.081828,   0.020418]
    RMS size of the density [Ang]:         1.204926
      Cartesian components [Ang]:        [  0.789188,   0.773898,   0.479699]
  
  Exciton analysis of the difference density matrix
    <r_h> [Ang]:                  [ -1.553820,  -0.110192,   0.000055]
    <r_e> [Ang]:                  [ -1.593563,  -0.122740,  -0.003276]
    |<r_e - r_h>| [Ang]:            0.041809
    Hole size [Ang]:                1.491887
      Cartesian components [Ang]: [  0.980934,   1.022059,   0.467857]
    Electron size [Ang]:            1.498606
      Cartesian components [Ang]: [  0.886842,   0.890291,   0.816525]

  Transition density matrix analysis:
  -----------------------------------
  
  CT numbers (Mulliken)
    omega =     0.9216
    <Phe> =    -0.0113
  
  Exciton analysis of the transition density matrix
    Trans. dipole moment [D]:             0.066354
      Cartesian components [D]:         [ -0.015035,   0.022173,  -0.060706]
    <r_h> [Ang]:                        [ -1.550794,  -0.112989,   0.000196]
    <r_e> [Ang]:                        [ -1.597801,  -0.122840,  -0.003662]
    |<r_e - r_h>| [Ang]:                  0.048182
    Hole size [Ang]:                      1.516268
      Cartesian components [Ang]:       [  0.998933,   1.044577,   0.458323]
    Electron size [Ang]:                  1.495997
      Cartesian components [Ang]:       [  0.878536,   0.881430,   0.830219]
    RMS electron-hole separation [Ang]:   2.112180
      Cartesian components [Ang]:       [  1.315414,   1.353941,   0.947541]
    Covariance(r_h, r_e) [Ang^2]:         0.039048
    Correlation coefficient:              0.017214
    Center-of-mass size [Ang]:            1.074148
      Cartesian components [Ang]:       [  0.672920,   0.689758,   0.474560]

  Decomposition into state-averaged NTOs
    H- 1 -> L+ 0:  0.6536 ( 85.4%)
    H- 0 -> L+ 2: -0.1650 (  5.4%)
                   omega =  92.2%
  ----------------------------------------------------------------------------


  Excited state 3 (singlet, A)                                     [converged]
  ----------------------------------------------------------------------------
  Term symbol:  4 (1) A                                     R^2 =  3.52347e-14

  Total energy:                                            -77.9836335170 a.u.
  Excitation energy:                                               9.134567 eV

  Osc. strength:                                                      0.022787
  Trans. dip. moment [a.u.]:           [  -0.018048,   -0.015462,    0.318209]
  <i|r^2|0> [a.u.]:                    [  -0.103614,    0.013461,   -0.021096]
  Two-photon absorption cross-section (SoS) [a.u.]:                   0.045008
  Two-photon absorption matrix (SoS) [a.u.]:
                                       |   -0.044097   -0.004518    0.015140 |
                                       |   -0.004518    0.035185    0.061325 |
                                       |    0.015140    0.061325   -0.000891 |
  Two-photon absorption cross-section [a.u.]:                         0.108497
  Two-photon absorption matrix [a.u.]:
                                       |   -0.040122   -0.007072    0.049010 |
                                       |   -0.007072    0.015011    0.100418 |
                                       |    0.049010    0.100418    0.010634 |

  Dip. moment [a.u.]:                  [   0.007567,    0.266557,    0.014597]
  Total dipole [Debye]:                                               0.678807
  <r^2> [a.u.]:                        [ 180.664362,   41.106003,   11.081092]
  Total <r^2> [a.u.]:                                               232.851457

  V1^2 = 0.9582, V2^2 = 0.0418

  Important amplitudes:
      occ i     occ j     vir a      vir b          v   
    -----------------------------------------------------
     8 (A) A             10 (A) A                -0.6818
     7 (A) A              9 (A) A                 0.0967
     8 (A) A             24 (A) A                -0.0498
     8 (A) A             18 (A) A                 0.0324
     4 (A) A              9 (A) A                -0.0246
     8 (A) A   8 (A) B    9 (A) A   12 (A) B      0.0214
     8 (A) A   8 (A) B   10 (A) A   17 (A) B     -0.0170
     5 (A) A   8 (A) B   11 (A) A   10 (A) B     -0.0163
     8 (A) A             15 (A) A                 0.0159
     7 (A) A   8 (A) B   13 (A) A   10 (A) B     -0.0140
     6 (A) A   8 (A) A   10 (A) A   15 (A) A     -0.0109
     4 (A) A   8 (A) B   12 (A) A   10 (A) B      0.0109
     6 (A) A   8 (A) B   15 (A) A   10 (A) B      0.0106
     7 (A) A             20 (A) A                -0.0106
     7 (A) A   8 (A) B   22 (A) A   10 (A) B     -0.0106
     4 (A) A   8 (A) A   10 (A) A   12 (A) A     -0.0104
     7 (A) A   8 (A) A   10 (A) A   22 (A) A      0.0097
     7 (A) A   8 (A) A   10 (A) A   13 (A) A      0.0096
     5 (A) A   8 (A) A   10 (A) A   11 (A) A      0.0093
     5 (A) A   8 (A) B   21 (A) A   10 (A) B     -0.0092
     8 (A) A             11 (A) A                 0.0091
     6 (A) A   8 (A) B   10 (A) A   10 (A) B      0.0088
     6 (A) A   8 (A) A   10 (A) A   18 (A) A      0.0087
     7 (A) A   8 (A) A   12 (A) A   16 (A) A      0.0079
     3 (A) A   4 (A) B   10 (A) A    9 (A) B      0.0079
     5 (A) A   8 (A) A   10 (A) A   21 (A) A      0.0077
     4 (A) A   8 (A) B   19 (A) A   10 (A) B     -0.0074
     8 (A) A   8 (A) B    9 (A) A   23 (A) B      0.0073
     8 (A) A   8 (A) B   10 (A) A   28 (A) B     -0.0073
     3 (A) A   8 (A) B   10 (A) A   10 (A) B     -0.0071
     3 (A) A   8 (A) A   10 (A) A   24 (A) A      0.0070
     5 (A) A   8 (A) B   10 (A) A   11 (A) B     -0.0069
     8 (A) A   8 (A) B    9 (A) A   19 (A) B     -0.0069
     6 (A) A              9 (A) A                 0.0069
     7 (A) A   8 (A) B   16 (A) A   12 (A) B     -0.0068
     3 (A) A   8 (A) B   10 (A) A   18 (A) B      0.0067
     6 (A) A   8 (A) B   18 (A) A   10 (A) B     -0.0066
     3 (A) A   6 (A) B   10 (A) A   28 (A) B     -0.0061
     6 (A) A             28 (A) A                 0.0057
     5 (A) A   8 (A) A   10 (A) A   16 (A) A      0.0056
    -----------------------------------------------------

  Density matrix analysis:
  ------------------------
  NOs
    Occupation of frontier NOs:
       0.9653   1.0006
    Number of electrons: 16.000000
    Number of unpaired electrons: n_u =  2.32628, n_u,nl =  2.03489
    NO participation ratio (PR_NO):  2.789022
  
  
  Mulliken Population Analysis
  Atom      Charge (e)              h+              e-           Del q
  --------------------------------------------------------------------
   1 H       -0.145722        0.056221       -0.254086       -0.197864
   2 C        0.295068        0.531285       -0.117773        0.413512
   3 H       -0.184836        0.054494       -0.298996       -0.244501
   4 C        0.302853        0.509427       -0.111158        0.398269
   5 H       -0.114708        0.057270       -0.222855       -0.165585
   6 H       -0.152654        0.054281       -0.258110       -0.203830
  --------------------------------------------------------------------
  Sum:        0.000000        1.262978       -1.262978       -0.000000
  
  Multipole moment analysis of the density matrix
    Molecular charge:                      0.000000
    Number of electrons:                   16.000000
      Center of electronic charge [Ang]: [ -1.560826,  -0.076918,   0.001495]
    Total nuclear charge:                  16.000000
      Center of nuclear charge [Ang]:    [ -1.560576,  -0.068102,   0.001978]
    Dipole moment [D]:                     0.678807
      Cartesian components [D]:          [  0.019232,   0.677519,   0.037103]
    RMS size of the density [Ang]:         1.277974
      Cartesian components [Ang]:        [  0.851921,   0.844696,   0.440382]
  
  Exciton analysis of the difference density matrix
    <r_h> [Ang]:                  [ -1.551920,  -0.075886,   0.001600]
    <r_e> [Ang]:                  [ -1.555239,  -0.184375,  -0.003882]
    |<r_e - r_h>| [Ang]:            0.108678
    Hole size [Ang]:                1.418274
      Cartesian components [Ang]: [  0.838965,   0.829648,   0.786971]
    Electron size [Ang]:            2.077255
      Cartesian components [Ang]: [  1.365562,   1.386313,   0.726890]

  Transition density matrix analysis:
  -----------------------------------
  
  CT numbers (Mulliken)
    omega =     0.9252
    <Phe> =    -0.0114
  
  Exciton analysis of the transition density matrix
    Trans. dipole moment [D]:             0.405529
      Cartesian components [D]:         [ -0.022936,  -0.019650,   0.404403]
    <r_h> [Ang]:                        [ -1.554585,  -0.061936,   0.001999]
    <r_e> [Ang]:                        [ -1.554186,  -0.219113,  -0.005618]
    |<r_e - r_h>| [Ang]:                  0.157362
    Hole size [Ang]:                      1.219780
      Cartesian components [Ang]:       [  0.647698,   0.633555,   0.816675]
    Electron size [Ang]:                  2.276348
      Cartesian components [Ang]:       [  1.494775,   1.519762,   0.798582]
    RMS electron-hole separation [Ang]:   2.576922
      Cartesian components [Ang]:       [  1.621316,   1.646432,   1.140667]
    Covariance(r_h, r_e) [Ang^2]:         0.026931
    Correlation coefficient:              0.009699
    Center-of-mass size [Ang]:            1.296484
      Cartesian components [Ang]:       [  0.818392,   0.827058,   0.571909]

  Decomposition into state-averaged NTOs
    H- 0 -> L+ 1:  0.6639 ( 88.2%)
    H- 0 -> L+ 2:  0.1081 (  2.3%)
    H- 1 -> L+ 0:  0.0957 (  1.8%)
                   omega =  92.5%
  ----------------------------------------------------------------------------


  Excited state 4 (singlet, A)                                     [converged]
  ----------------------------------------------------------------------------
  Term symbol:  5 (1) A                                     R^2 =  1.08517e-13

  Total energy:                                            -77.9605031744 a.u.
  Excitation energy:                                               9.763976 eV

  Osc. strength:                                                      0.000470
  Trans. dip. moment [a.u.]:           [  -0.002994,    0.007886,   -0.043507]
  <i|r^2|0> [a.u.]:                    [  -0.026909,   -0.021390,    0.033271]
  Two-photon absorption cross-section (SoS) [a.u.]:                 134.983842
  Two-photon absorption matrix (SoS) [a.u.]:
                                       |   -0.229155   -0.297618    2.498141 |
                                       |   -0.297618   -0.385989    3.202002 |
                                       |    2.498141    3.202002    0.616653 |
  Two-photon absorption cross-section [a.u.]:                        83.228879
  Two-photon absorption matrix [a.u.]:
                                       |   -0.172549   -0.232307    1.899992 |
                                       |   -0.232307   -0.309896    2.561209 |
                                       |    1.899992    2.561209    0.483687 |

  Dip. moment [a.u.]:                  [  -0.257997,   -0.222162,   -0.027008]
  Total dipole [Debye]:                                               0.868101
  <r^2> [a.u.]:                        [ 178.168268,   42.409923,   10.793936]
  Total <r^2> [a.u.]:                                               231.372127

  V1^2 = 0.9632, V2^2 = 0.0368

  Important amplitudes:
      occ i     occ j     vir a      vir b          v   
    -----------------------------------------------------
     8 (A) A             11 (A) A                 0.6653
     7 (A) A              9 (A) A                 0.1541
     8 (A) A             21 (A) A                 0.0767
     8 (A) A             16 (A) A                 0.0655
     8 (A) A             12 (A) A                -0.0580
     8 (A) A             10 (A) A                 0.0312
     8 (A) A   8 (A) B    9 (A) A   13 (A) B     -0.0165
     6 (A) A              9 (A) A                 0.0161
     5 (A) A   8 (A) B   11 (A) A   11 (A) B      0.0156
     7 (A) A             20 (A) A                -0.0142
     8 (A) A   8 (A) B   11 (A) A   17 (A) B      0.0138
     7 (A) A   8 (A) B   13 (A) A   11 (A) B      0.0127
     5 (A) A   8 (A) A   11 (A) A   21 (A) A     -0.0108
     8 (A) A   8 (A) B    9 (A) A   22 (A) B     -0.0107
     4 (A) A   8 (A) B   12 (A) A   11 (A) B     -0.0106
     7 (A) A   8 (A) A   11 (A) A   22 (A) A     -0.0095
     6 (A) A   8 (A) B   10 (A) A   11 (A) B     -0.0089
     6 (A) A   8 (A) B   15 (A) A   11 (A) B     -0.0089
     8 (A) A             19 (A) A                -0.0089
     7 (A) A   8 (A) B   22 (A) A   11 (A) B      0.0088
     3 (A) A   4 (A) B   11 (A) A    9 (A) B     -0.0083
     6 (A) A   8 (A) A   11 (A) A   15 (A) A      0.0079
     3 (A) A   8 (A) B   11 (A) A   18 (A) B     -0.0079
     7 (A) A   8 (A) A   13 (A) A   16 (A) A     -0.0078
     7 (A) A   8 (A) A   11 (A) A   13 (A) A     -0.0075
     5 (A) A   8 (A) B   21 (A) A   11 (A) B      0.0069
     4 (A) A   8 (A) B   19 (A) A   11 (A) B      0.0069
     5 (A) A   8 (A) B    9 (A) A    9 (A) B      0.0069
     4 (A) A   8 (A) A   11 (A) A   12 (A) A      0.0062
     6 (A) A   8 (A) A   11 (A) A   18 (A) A     -0.0061
     3 (A) A   6 (A) B   11 (A) A   28 (A) B      0.0060
     6 (A) A   8 (A) B   18 (A) A   11 (A) B      0.0059
     8 (A) A             24 (A) A                 0.0058
     7 (A) A   8 (A) B   16 (A) A   13 (A) B      0.0056
     3 (A) A   8 (A) B   11 (A) A   30 (A) B     -0.0055
     3 (A) A   8 (A) A   11 (A) A   18 (A) A     -0.0055
     5 (A) A   8 (A) B   10 (A) A   10 (A) B      0.0054
     3 (A) A   5 (A) B   11 (A) A   25 (A) B     -0.0054
     8 (A) A   8 (A) B   20 (A) A   22 (A) B      0.0053
     6 (A) A   8 (A) B   11 (A) A   10 (A) B     -0.0052
    -----------------------------------------------------

  Density matrix analysis:
  ------------------------
  NOs
    Occupation of frontier NOs:
       0.9379   1.0304
    Number of electrons: 16.000000
    Number of unpaired electrons: n_u =  2.32161, n_u,nl =  2.05159
    NO participation ratio (PR_NO):  2.935840
  
  
  Mulliken Population Analysis
  Atom      Charge (e)              h+              e-           Del q
  --------------------------------------------------------------------
   1 H       -0.129414        0.047938       -0.229495       -0.181557
   2 C        0.244860        0.497386       -0.134082        0.363304
   3 H       -0.126384        0.045423       -0.231472       -0.186049
   4 C        0.273482        0.493658       -0.124760        0.368898
   5 H       -0.226486        0.045968       -0.323330       -0.277362
   6 H       -0.036058        0.047167       -0.134401       -0.087234
  --------------------------------------------------------------------
  Sum:        0.000000        1.177540       -1.177540       -0.000000
  
  Multipole moment analysis of the density matrix
    Molecular charge:                      0.000000
    Number of electrons:                   16.000000
      Center of electronic charge [Ang]: [ -1.552043,  -0.060755,   0.002871]
    Total nuclear charge:                  16.000000
      Center of nuclear charge [Ang]:    [ -1.560576,  -0.068102,   0.001978]
    Dipole moment [D]:                     0.868101
      Cartesian components [D]:          [ -0.655763,  -0.564678,  -0.068648]
    RMS size of the density [Ang]:         1.279409
      Cartesian components [Ang]:        [  0.842273,   0.859394,   0.434632]
  
  Exciton analysis of the difference density matrix
    <r_h> [Ang]:                  [ -1.552567,  -0.061414,   0.002368]
    <r_e> [Ang]:                  [ -1.436785,   0.041852,   0.015184]
    |<r_e - r_h>| [Ang]:            0.155671
    Hole size [Ang]:                1.396205
      Cartesian components [Ang]: [  0.816766,   0.811555,   0.789722]
    Electron size [Ang]:            2.111275
      Cartesian components [Ang]: [  1.294533,   1.524486,   0.676468]

  Transition density matrix analysis:
  -----------------------------------
  
  CT numbers (Mulliken)
    omega =     0.9293
    <Phe> =    -0.0143
  
  Exciton analysis of the transition density matrix
    Trans. dipole moment [D]:             0.056322
      Cartesian components [D]:         [ -0.003804,   0.010022,  -0.055292]
    <r_h> [Ang]:                        [ -1.560006,  -0.067377,   0.001438]
    <r_e> [Ang]:                        [ -1.412093,   0.060651,   0.017653]
    |<r_e - r_h>| [Ang]:                  0.196296
    Hole size [Ang]:                      1.229107
      Cartesian components [Ang]:       [  0.664888,   0.646660,   0.806510]
    Electron size [Ang]:                  2.244934
      Cartesian components [Ang]:       [  1.368807,   1.628136,   0.717822]
    RMS electron-hole separation [Ang]:   2.555834
      Cartesian components [Ang]:       [  1.520985,   1.747564,   1.079312]
    Covariance(r_h, r_e) [Ang^2]:         0.028337
    Correlation coefficient:              0.010270
    Center-of-mass size [Ang]:            1.285215
      Cartesian components [Ang]:       [  0.764836,   0.880399,   0.540093]

  Decomposition into state-averaged NTOs
    H- 0 -> L+ 2:  0.6471 ( 83.8%)
    H- 1 -> L+ 0:  0.1520 (  4.6%)
    H- 0 -> L+ 1: -0.1276 (  3.3%)
                   omega =  92.9%
  ----------------------------------------------------------------------------


  Excited state 5 (singlet, A)                                     [converged]
  ----------------------------------------------------------------------------
  Term symbol:  6 (1) A                                     R^2 =  9.98727e-14

  Total energy:                                            -77.9452129699 a.u.
  Excitation energy:                                              10.180043 eV

  Osc. strength:                                                      0.000049
  Trans. dip. moment [a.u.]:           [  -0.001354,   -0.001575,    0.013873]
  <i|r^2|0> [a.u.]:                    [  -0.096041,    0.093308,   -0.005522]
  Two-photon absorption cross-section (SoS) [a.u.]:                 195.196030
  Two-photon absorption matrix (SoS) [a.u.]:
                                       |   -0.371467   -0.096267    3.956672 |
                                       |   -0.096267    0.348715   -2.933393 |
[...]
    16   -1.499931545087e-03
    17   -1.590631152870e-03
    18   -9.606682565600e-04
    19   -3.583175028595e-03
    20    1.656543195462e-02
    21    9.788626637009e-01
    22   -2.675491186820e-04
    23    1.374083698178e-02
    24    7.607449871861e-04
    25    6.689320912867e-02
    26   -4.816224738327e-02
    27   -1.351872645271e+00
    28    1.010337775872e-01
    29   -8.733120978074e-02
    30   -3.116450275989e-04
    31    3.871867674492e-01
    32   -3.379480562492e-01
    33   -1.498516957271e-03
    34    1.498057515991e-02
    35   -1.352916092498e-03
    36   -1.739651136755e-03
    37    9.765316423069e-04
    38   -2.425457829569e-03
    39    5.622365817453e-03
    40    8.600445900673e-01
    41    7.911729413234e-04
    42   -1.321148254332e-02
    43   -7.519280830306e-04
    44    1.317302402978e-02
    45    9.391210831173e-01
    46    1.392518466424e-02
    47    2.957042458306e-04
    48    6.870644658855e-04
Sym=X
Ene= 0.231114
Spin=Alpha
Occup=0
     1    1.971005263500e-02
     2    1.007621096935e+00
     3   -1.136113184443e-02
     4   -2.332740044960e-03
     5   -6.456002939966e-04
     6   -1.413056094284e-02
     7    1.505722482578e-02
     8    1.937686285921e-01
     9   -1.450642895398e-01
    10   -1.717988985189e-01
    11   -1.638722379347e-02
    12   -5.055910669376e-01
    13   -5.827885989551e-01
    14   -5.597878466587e-02
    15   -2.036831549058e-03
    16    2.584599703638e-04
    17    2.039556437956e-04
    18    2.492816205749e-04
    19    1.232069297299e-03
    20   -3.513263373126e-02
    21   -1.292531119248e+00
    22   -3.924328468712e-03
    23   -1.432998269004e-02
    24   -9.934787184306e-04
    25    2.027389308576e-02
    26   -1.881288509683e-02
    27   -3.714385414288e-01
    28   -1.322811414915e-01
    29   -1.689005213796e-01
    30   -1.670732787718e-02
    31   -4.526921667669e-01
    32   -6.017214989199e-01
    33   -5.886430316108e-02
    34    5.270943816087e-03
    35   -6.441215749000e-04
    36   -6.381736575885e-04
    37   -1.333376609777e-03
    38   -2.914540637635e-03
    39    3.209630593108e-02
    40    1.403098067769e+00
    41   -4.412980987366e-03
    42   -1.714684167010e-02
    43   -1.249019511412e-03
    44   -2.483881734428e-02
    45   -8.956868442520e-01
    46   -9.164643846061e-03
    47   -1.624552542195e-03
    48   -5.572760255312e-04
Sym=X
Ene= 0.237954
Spin=Alpha
Occup=0
     1   -2.338463541850e-02
     2   -1.274297604102e+00
     3    1.868615207452e-02
     4    9.309686930731e-03
     5    1.453199760455e-03
     6   -8.357327466055e-02
     7    7.834316967725e-02
     8    1.490548567614e+00
     9    8.325026093292e-02
    10   -2.521169732865e-02
    11    2.878682992629e-03
    12    3.225053113532e-01
    13   -1.001061542492e-01
    14    1.100947928611e-02
    15   -2.042990366754e-02
    16    2.449827988047e-03
    17    2.617081304697e-03
    18    2.888762547401e-04
    19    1.233756428189e-02
    20   -1.520473221866e-02
    21   -7.811818359402e-01
    22   -7.738681523348e-03
    23   -1.230618526499e-02
    24   -1.055519594190e-03
    25    8.681062339188e-02
    26   -8.072463981501e-02
    27   -1.589878877108e+00
    28    9.023196680326e-02
    29   -2.297900964090e-02
    30    2.562608643886e-03
    31    3.530709278599e-01
    32   -1.099824384133e-01
    33    8.763494007446e-03
    34    2.236264643780e-02
    35   -2.587259394147e-03
    36   -2.930029114212e-03
    37   -3.726347368608e-04
    38   -1.281573957694e-02
    39    1.336231827579e-02
    40    8.454904981077e-01
    41   -7.953257444045e-03
    42   -1.418021545975e-02
    43   -1.239649841548e-03
    44    1.922855781460e-02
    45    1.335488809935e+00
    46    1.978239492955e-02
    47    9.795194710421e-03
    48    1.493863884435e-03
Sym=X
Ene= 0.302931
Spin=Alpha
Occup=0
     1    2.253000147487e-02
     2   -1.677880226123e+00
     3    2.337131578717e-02
     4    4.049387140238e-04
     5    1.128404717454e-03
     6   -9.787389220195e-04
     7   -1.838466906732e-04
     8    9.041794183277e-02
     9    1.331443118897e-01
    10    1.408558530039e-01
    11    1.431144610996e-02
    12    1.120484950313e+00
    13    1.175806050261e+00
    14    1.211976391012e-01
    15   -2.013493435170e-03
    16    1.923905845504e-03
    17   -1.439046854026e-03
    18    3.202983450491e-02
    19    3.094623438114e-03
    20   -1.510749471657e-02
    21    1.590904982975e+00
    22   -1.591244291208e-03
    23    2.233020566231e-02
    24    1.198760953361e-03
    25    3.350094959697e-04
    26    1.009285686175e-03
    27   -1.914121503556e-02
    28   -1.359093835637e-01
    29   -1.433062054459e-01
    30   -1.506083744555e-02
    31   -1.150457725029e+00
    32   -1.195369307068e+00
    33   -1.253084922441e-01
    34    1.136006991793e-04
    35    1.631288416284e-03
    36   -2.017056011769e-03
    37    3.399941341432e-02
    38    1.650714380618e-03
    39   -2.202404332572e-02
    40    1.710631821134e+00
    41    1.562754626774e-03
    42   -2.361253857047e-02
    43   -1.354241483380e-03
    44    2.294182677749e-02
    45   -1.699010153085e+00
    46   -2.317393355081e-02
    47    5.603925301589e-04
    48   -1.053313007305e-03
Sym=X
Ene= 0.461762
Spin=Alpha
Occup=0
     1   -1.138633490520e-01
     2   -7.353782504307e-01
     3   -1.505234316480e-02
     4   -1.031163110578e-02
     5   -1.276569996137e-03
     6    6.193704855642e-02
     7    1.720311102736e-02
     8   -3.639968187387e+00
     9    1.057869324233e-01
    10   -1.001155798305e-01
    11   -5.352334421678e-04
    12    2.441891158463e+00
    13   -2.264332301731e+00
    14   -1.716635706902e-02
    15    5.410125963677e-02
    16   -3.144141856612e-03
    17   -4.573381454731e-03
    18    6.374827652153e-04
    19    1.990784986214e-02
    20   -1.254619869998e-01
    21   -6.325666451641e-01
    22    9.334387884521e-03
    23    1.598373723259e-02
    24    1.366474144971e-03
    25   -6.104705027062e-02
    26   -1.800742130538e-02
    27    3.595358379845e+00
    28    1.028456835941e-01
    29   -9.765525210250e-02
    30   -1.070895469602e-03
    31    2.418369538356e+00
    32   -2.313494886145e+00
    33   -2.352037683392e-02
    34   -5.290945282740e-02
    35    3.389279475046e-03
    36    4.502531785976e-03
    37    1.170395603581e-03
    38   -1.884615188346e-02
    39    1.168664140533e-01
    40    7.139057478038e-01
    41    8.820499096025e-03
    42    1.600110530832e-02
    43    1.372606965993e-03
    44    1.117147538557e-01
    45    7.038465998520e-01
    46   -1.564436525922e-02
    47   -1.020150746224e-02
    48   -1.372622810990e-03
Sym=X
Ene= 0.578133
Spin=Alpha
Occup=0
     1   -2.619701743655e-01
     2   -5.378554652059e-02
     3    1.766177037030e-02
     4   -2.464782484153e-02
     5   -5.859373152692e-04
     6    6.042300367194e-03
     7    1.631129795186e-01
     8    3.980505064391e-01
     9   -3.031365453937e-01
    10    2.845021694884e-01
    11    2.512220427330e-03
    12    7.759885395369e-01
    13   -6.812857488546e-01
    14   -3.154368517208e-03
    15    5.424067316594e-03
    16   -3.961917186958e-03
    17   -3.484406216161e-03
    18    1.097299416333e-03
    19   -6.039412223590e-02
    20   -2.287541870790e-01
    21   -1.947865923671e-02
    22    3.145834742595e-02
    23   -2.248533085901e-02
    24    1.905975132759e-04
    25    5.116424430025e-03
    26    1.608991081245e-01
    27    4.479728460611e-01
    28    2.997675275884e-01
    29   -2.890609051917e-01
    30   -2.862451675261e-03
    31   -7.368528591086e-01
    32    7.085141424089e-01
    33    7.109740879215e-03
    34    4.186116956547e-03
    35   -3.493910064307e-03
    36   -3.772430142114e-03
    37    8.271903012212e-03
    38   -5.983169486015e-02
    39   -2.640399512907e-01
    40   -3.257676242945e-02
    41   -2.528408394147e-02
    42    1.567179720502e-02
    43   -2.552276615914e-04
    44   -2.288589196320e-01
    45   -6.067848400857e-02
    46   -2.112576965514e-02
    47    2.685743114056e-02
    48    6.105926055647e-04
Sym=X
Ene= 0.612618
Spin=Alpha
Occup=0
     1    4.898761224212e-01
     2   -2.140695156106e-01
     3    6.009727527768e-02
     4   -3.998331555010e-02
     5    5.890217345527e-04
     6   -7.834225070468e-04
     7    1.360776186293e-02
     8    6.614478695588e-04
     9    2.682187882136e-02
    10    3.416384383218e-02
    11    3.432299416309e-03
    12   -2.554147566596e-01
    13   -2.317016762663e-01
    14   -2.475881040529e-02
    15    6.637056116201e-03
    16    6.959015339356e-03
    17   -9.236927277038e-03
    18    1.520217746167e-01
    19    2.394533893057e-03
    20   -5.568291794494e-01
    21    3.189162257080e-01
    22   -3.961565174517e-02
    23    6.012639224651e-02
    24    1.617184707735e-03
    25   -1.248655328667e-04
    26   -1.414007941093e-03
    27   -7.458708661955e-03
    28    4.629768290576e-02
    29    3.703097420711e-02
    30    4.238692283846e-03
    31   -3.503731932629e-01
    32   -2.646681023673e-01
    33   -3.305732960268e-02
    34    2.892454352663e-03
    35   -7.609159417053e-03
    36    8.045011625886e-03
    37   -1.467859683516e-01
    38   -1.031063900953e-02
    39    4.959819470995e-01
    40   -2.102679846123e-01
    41   -4.191713294110e-02
    42    5.765780957532e-02
    43    1.440808543443e-03
    44   -5.310829206782e-01
    45    1.822014998544e-01
    46    5.995211846462e-02
    47   -3.528773131437e-02
    48    6.688751956633e-04
Sym=X
Ene= 0.688686
Spin=Alpha
Occup=0
     1    6.065820228886e-04
     2   -3.817111635828e-04
     3    1.234533943951e-03
     4    1.238002060888e-03
     5   -2.136651414397e-02
     6    5.263175399713e-05
     7    9.760774025334e-04
     8   -9.325889494563e-04
     9    3.107847377222e-02
    10    3.927586647581e-02
    11   -6.716560942707e-01
    12   -2.776877794997e-02
    13   -3.611013618226e-02
    14    6.126329808920e-01
    15   -1.519527653749e-03
    16    8.270436863970e-02
    17   -7.748492333032e-02
    18   -8.596238808454e-03
    19   -1.119965387178e-03
    20    7.825883532420e-04
    21   -1.328405052370e-03
    22    5.662171956540e-04
    23    5.492787949672e-04
    24   -1.433100057704e-02
    25    5.466382104188e-05
    26    9.000075663356e-04
    27   -3.431867072472e-04
    28    3.222670808883e-02
    29    3.954603870541e-02
    30   -6.692069791686e-01
    31   -2.921836988788e-02
    32   -3.693033039886e-02
    33    6.131479988017e-01
    34    9.021164134185e-04
    35   -8.322834921986e-02
    36    7.854230820321e-02
    37    8.372695107847e-03
    38    1.344237435529e-03
    39    9.615827250821e-04
    40   -7.171837196721e-04
    41    1.127242721166e-03
    42    1.505105221850e-03
    43   -2.090028903625e-02
    44    6.764957323966e-04
    45    1.377040432851e-04
    46    8.198807212535e-04
    47    1.214921979583e-03
    48   -2.100456150054e-02
Sym=X
Ene= 0.704891
Spin=Alpha
Occup=0
     1   -5.164910891346e-01
     2    1.527700042073e-01
     3   -8.401297048796e-02
     4   -4.325603260084e-02
     5   -6.479569523936e-03
     6   -5.078130772069e-02
     7   -2.886261646926e-01
     8    4.926889328326e-01
     9    1.822778312211e-01
    10   -2.046980611810e-01
    11   -4.630030580114e-03
    12   -6.332910880884e-02
    13    1.730971795861e-01
    14    8.781468231242e-03
    15    2.009604105088e-01
    16   -2.086472899676e-02
    17   -2.422401404523e-02
    18    1.872516006044e-03
    19   -7.812358394192e-02
    20   -5.117073740137e-01
    21    2.769761424310e-01
    22    4.201748366225e-02
    23    8.518372742772e-02
    24    6.911156009368e-03
    25   -4.170885954977e-02
    26   -3.238155149765e-01
    27    4.231482802543e-01
    28   -2.051157450862e-01
    29    1.942951184844e-01
    30    5.445845828428e-04
    31    3.703960997168e-02
    32   -2.111143948603e-02
    33    1.632695634640e-03
    34    1.810101395171e-01
    35   -1.900597993785e-02
    36   -2.272515547478e-02
    37    8.513443072657e-03
    38   -7.409768676144e-02
    39   -4.690129975355e-01
    40    1.185665420400e-01
    41   -3.687750399759e-02
    42   -7.814889125785e-02
    43   -6.460903131175e-03
    44   -4.229578464409e-01
    45    9.982110020001e-02
    46    7.095058207000e-02
    47    4.508243799351e-02
    48    5.994072576104e-03
Sym=X
Ene= 0.778676
Spin=Alpha
Occup=0
     1    4.991652122836e-01
     2   -3.975859732775e-01
     3    9.602526635026e-02
     4    2.124951915882e-02
     5    5.722659405922e-03
     6    8.576257139561e-02
     7   -2.646582490347e-01
     8   -5.531400761040e-01
     9    1.492232359589e-01
    10   -6.880523915385e-02
    11    4.208427253578e-03
    12    2.402331603760e-01
    13   -4.083804355209e-01
    14   -1.533713578662e-02
    15   -1.876164421731e-01
    16    1.530827046482e-02
    17    1.944730289330e-02
    18   -8.603310877346e-03
    19    5.647915437384e-03
    20    5.216148372074e-01
    21   -5.914191020389e-01
    22   -2.111411272065e-02
    23   -1.110697979386e-01
    24   -7.405972266053e-03
    25   -9.331338877468e-02
    26    1.791669860176e-01
    27    7.027952989484e-01
    28    9.691566134236e-02
    29   -8.766517315378e-02
    30   -2.019230252752e-03
    31    3.166881408019e-01
    32   -3.054912386521e-01
    33   -2.286728932357e-04
    34    2.179662752588e-01
    35   -1.882620101693e-02
    36   -2.362375432350e-02
    37    1.515634333174e-03
    38   -1.528611856979e-02
    39   -5.455420105849e-01
    40    4.755075605491e-01
    41   -2.696065256467e-02
    42   -1.145676329897e-01
    43   -8.131821965856e-03
    44   -5.747525081593e-01
    45    4.717187212540e-01
    46    1.150260744191e-01
    47    2.578817276992e-02
    48    6.996123350191e-03
Sym=X
Ene= 0.807633
Spin=Alpha
Occup=0
     1    8.122758001085e-04
     2   -2.158605576373e-03
     3    2.081281128859e-03
     4    2.020639912748e-03
     5   -3.446437156888e-02
     6    1.538565115466e-04
     7   -3.056539852168e-04
     8    2.811000908128e-05
     9    3.596583343944e-02
    10    4.359993484767e-02
    11   -7.637343019810e-01
    12   -5.166507055452e-02
    13   -6.521318305231e-02
    14    1.124489074998e+00
    15    4.465633844218e-04
    16   -6.565191220463e-02
    17    6.193859674155e-02
    18    7.016094545969e-03
    19    8.199887726129e-04
    20    8.183241988001e-04
    21   -2.770068308390e-04
    22    1.430737096271e-03
    23    1.326067498503e-03
    24   -2.687287993400e-02
    25   -1.768242752641e-04
    26    3.870131922326e-04
    27    1.416839899047e-04
    28   -3.612611028704e-02
    29   -4.628098530559e-02
    30    7.639889622942e-01
    31    5.445147578483e-02
    32    6.735018233036e-02
    33   -1.126797547873e+00
    34    1.482300047639e-03
    35   -6.585212851219e-02
    36    6.165062223579e-02
    37    6.415255821280e-03
    38    1.095684783979e-03
    39   -8.314142740804e-04
    40   -6.413874880720e-06
    41   -1.482884729724e-03
    42   -2.222449534714e-03
    43    3.432439123642e-02
    44   -9.651536389554e-04
    45    2.205048073924e-03
    46   -1.162036230303e-03
    47   -1.972148115821e-03
    48    3.389631132772e-02
Sym=X
Ene= 0.859654
Spin=Alpha
Occup=0
     1    4.852817773185e-02
     2   -1.119212657306e+00
     3    1.586896384556e-01
     4    5.644561433633e-02
     5    1.080844899119e-02
     6    6.075109744940e-03
     7    2.149024798047e-02
     8   -2.343606247281e-03
     9   -4.121838170774e-01
    10   -4.732267300021e-01
    11   -4.596597747950e-02
    12    9.529856647845e-01
    13    1.045658840535e+00
    14    1.035505966231e-01
    15   -2.095502582782e-02
    16    1.321961039090e-02
    17   -1.104710726931e-02
    18    2.320518113777e-01
    19    8.688128147889e-03
    20   -4.846731367393e-03
    21    1.093041547963e+00
    22    5.099226503524e-02
    23    1.490906572873e-01
    24    1.095941976886e-02
    25   -3.891417943850e-03
    26    2.973821404504e-02
    27   -3.807016777654e-02
    28   -3.755839115186e-01
    29   -4.194704615411e-01
    30   -4.360428450041e-02
    31    9.016727046415e-01
    32    9.598145334429e-01
    33    1.017369272169e-01
    34    9.006482598125e-03
    35   -1.176797844692e-02
    36    1.228590006729e-02
    37   -2.284512685667e-01
    38   -4.419567417539e-03
    39   -1.852365342832e-02
    40   -1.034903451728e+00
    41    5.107469241851e-02
    42    1.376517216692e-01
    43    1.061825005880e-02
    44   -1.304057617229e-02
    45    1.068675086139e+00
    46    1.452137206031e-01
    47    5.614843190505e-02
    48    1.020261808695e-02
Sym=X
Ene= 0.930747
Spin=Alpha
Occup=0
     1   -1.402256050375e-01
     2    1.107116213896e+00
     3   -1.677778537602e-01
     4    1.371595465361e-02
     5   -7.074534242552e-03
     6   -7.054264520794e-03
     7   -7.495039627776e-02
     8    4.516410730731e-02
     9    4.083993912654e-01
    10    5.252787300236e-01
    11    4.972324469686e-02
    12   -1.244450489894e+00
    13   -1.540023664755e+00
    14   -1.480366535064e-01
    15    2.366072238386e-02
    16   -5.905992220610e-03
    17    4.084887105721e-03
    18   -1.041486998739e-01
    19    1.636307428065e-02
    20    1.148647160195e-01
    21   -1.241115803237e+00
    22    6.245186910895e-03
    23   -1.769588927721e-01
    24   -9.846622459111e-03
    25    3.944925846534e-03
    26   -5.409432735553e-02
    27    1.467853123954e-01
    28   -5.195708770815e-01
    29   -4.811009542547e-01
    30   -5.319369412165e-02
    31    1.531516946788e+00
    32    1.456815298447e+00
    33    1.589656823846e-01
    34   -8.975387676698e-03
    35   -6.987593211244e-03
    36    8.421405615902e-03
    37   -1.375176332804e-01
    38   -2.261802927601e-02
    39    1.431919515393e-01
    40   -1.301863287529e+00
    41   -1.647724042237e-02
    42    1.935499599719e-01
    43    1.088546259388e-02
    44   -1.243112408803e-01
    45    1.316473252090e+00
    46    1.852199212623e-01
    47   -3.896962320502e-04
    48    8.683444055710e-03
Sym=X
Ene= 0.971144
Spin=Alpha
Occup=0
     1   -6.642943722872e-02
     2    1.080480862591e+00
     3   -1.120425878441e-01
     4   -1.009881901903e-01
     5   -1.135978768655e-02
     6    2.730349539884e-02
     7    3.077589200137e-01
     8    4.221837291102e-01
     9    5.305858208415e-01
    10   -4.215533415553e-01
    11    8.880616125572e-04
    12   -1.642876334343e+00
    13    1.253538050783e+00
    14   -5.506645197843e-03
    15   -6.078550461488e-02
    16   -1.331384941054e-02
    17   -7.890712430511e-03
    18   -4.586216988520e-03
    19   -3.042899777006e-01
    20   -5.858429160390e-02
    21    7.790297737417e-01
    22    9.317191548598e-02
    23    7.731921286763e-02
    24    8.732252818932e-03
    25   -2.577160565930e-02
    26   -1.853524264938e-01
    27   -6.213125174279e-01
    28    4.397720651112e-01
    29   -4.784649723946e-01
    30   -8.031516240726e-03
    31   -1.336026479825e+00
    32    1.492895093632e+00
    33    2.659784529088e-02
    34    5.426999101932e-02
    35    1.195972779401e-02
    36    9.363159808174e-03
    37   -1.812842135242e-02
    38    2.921862269060e-01
    39    5.739265622122e-02
    40   -9.459229914155e-01
    41    9.015805635082e-02
    42    9.604753058506e-02
    43    1.002473088739e-02
    44    5.645202308779e-02
    45   -7.759694797927e-01
    46   -7.018085275472e-02
    47   -9.471244230879e-02
    48   -8.815084754387e-03
[5D]

======= END OF MOLDEN-FORMATTED INPUT FILE =======


        *************************************************************
        *                                                           *
        *  Thank you very much for using Q-Chem.  Have a nice day.  *
        *                                                           *
        *************************************************************


