                  Welcome to Q-Chem
     A Quantum Leap Into The Future Of Chemistry


 Q-Chem 5.4 (devel), Q-Chem, Inc., Pleasanton, CA (2021)

 E. Epifanovsky,  A. T. B. Gilbert,  Xintian Feng,  Joonho Lee,  Yuezhi Mao,  
 N. Mardirossian,  P. Pokhilko,  A. White,  M. Wormit,  M. P. Coons,  
 A. L. Dempwolff,  Zhengting Gan,  D. Hait,  P. R. Horn,  L. D. Jacobson,  
 I. Kaliman,  J. Kussmann,  A. W. Lange,  Ka Un Lao,  D. S. Levine,  Jie Liu,  
 S. C. McKenzie,  A. F. Morrison,  K. Nanda,  F. Plasser,  D. R. Rehn,  
 M. L. Vidal,  Zhi-Qiang You,  Ying Zhu,  B. Alam,  B. Albrecht,  
 A. Aldossary,  E. Alguire,  J. H. Andersen,  D. Barton,  K. Begam,  A. Behn,  
 Y. A. Bernard,  E. J. Berquist,  H. Burton,  A. Carreras,  K. Carter-Fenk,  
 R. Chakraborty,  A. D. Chien,  K. D. Closser,  V. Cofer-Shabica,  
 S. Dasgupta,  Jia Deng,  M. de Wergifosse,  M. Diedenhofen,  Hainam Do,  
 S. Ehlert,  Po-Tung Fang,  S. Fatehi,  Qingguo Feng,  T. Friedhoff,  
 J. Gayvert,  Qinghui Ge,  G. Gidofalvi,  M. Goldey,  J. Gomes,  
 C. Gonzalez-Espinoza,  S. Gulania,  A. Gunina,  M. W. D. Hanson-Heine,  
 P. H. P. Harbach,  A. W. Hauser,  M. F. Herbst,  M. Hernandez Vera,  
 M. Hodecker,  Z. C. Holden,  S. Houck,  Xunkun Huang,  Kerwin Hui,  
 B. C. Huynh,  M. Ivanov,  Hyunjun Ji,  Hanjie Jiang,  B. Kaduk,  S. Kaehler,  
 K. Khistyaev,  Jaehoon Kim,  P. Klunzinger,  Z. Koczor-Benda,  
 Joong Hoon Koh,  D. Kosenkov,  L. Koulias,  T. Kowalczyk,  C. M. Krauter,  
 K. Kue,  A. Kunitsa,  T. Kus,  A. Landau,  K. V. Lawler,  D. Lefrancois,  
 S. Lehtola,  Rain Li,  Yi-Pei Li,  Jiashu Liang,  M. Liebenthal,  
 Hung-Hsuan Lin,  You-Sheng Lin,  Fenglai Liu,  Kuan-Yu Liu,  
 M. Loipersberger,  A. Luenser,  A. Manjanath,  P. Manohar,  E. Mansoor,  
 S. F. Manzer,  Shan-Ping Mao,  A. V. Marenich,  T. Markovich,  S. Mason,  
 S. A. Maurer,  P. F. McLaughlin,  M. F. S. J. Menger,  J.-M. Mewes,  
 S. A. Mewes,  P. Morgante,  J. W. Mullinax,  K. J. Oosterbaan,  G. Paran,  
 Alexander C. Paul,  Suranjan K. Paul,  F. Pavosevic,  Zheng Pei,  S. Prager,  
 E. I. Proynov,  E. Ramos,  B. Rana,  A. E. Rask,  A. Rettig,  R. M. Richard,  
 F. Rob,  E. Rossomme,  T. Scheele,  M. Scheurer,  M. Schneider,  
 N. Sergueev,  S. M. Sharada,  W. Skomorowski,  D. W. Small,  C. J. Stein,  
 Yu-Chuan Su,  E. J. Sundstrom,  Zhen Tao,  J. Thirman,  T. Tsuchimochi,  
 N. M. Tubman,  S. P. Veccham,  O. Vydrov,  J. Wenzel,  J. Witte,  A. Yamada,  
 Kun Yao,  S. Yeganeh,  S. R. Yost,  A. Zech,  Igor Ying Zhang,  Xing Zhang,  
 Yu Zhang,  D. Zuev,  A. Aspuru-Guzik,  A. T. Bell,  N. A. Besley,  
 K. B. Bravaya,  B. R. Brooks,  D. Casanova,  Jeng-Da Chai,  S. Coriani,  
 C. J. Cramer,  A. E. DePrince, III,  R. A. DiStasio Jr.,  A. Dreuw,  
 B. D. Dunietz,  T. R. Furlani,  W. A. Goddard III,  S. Grimme,  
 S. Hammes-Schiffer,  T. Head-Gordon,  W. J. Hehre,  Chao-Ping Hsu,  
 T.-C. Jagau,  Yousung Jung,  A. Klamt,  Jing Kong,  D. S. Lambrecht,  
 WanZhen Liang,  N. J. Mayhall,  C. W. McCurdy,  J. B. Neaton,  
 C. Ochsenfeld,  J. A. Parkhill,  R. Peverati,  V. A. Rassolov,  Yihan Shao,  
 L. V. Slipchenko,  T. Stauch,  R. P. Steele,  J. E. Subotnik,  
 A. J. W. Thom,  A. Tkatchenko,  D. G. Truhlar,  T. Van Voorhis,  
 T. A. Wesolowski,  K. B. Whaley,  H. L. Woodcock III,  P. M. Zimmerman,  
 S. Faraji,  P. M. W. Gill,  M. Head-Gordon,  J. M. Herbert,  A. I. Krylov

 Additional authors for Version 5.4.1: 
 S. Kotaru,  Shaozhi Li,  Xiangyuan Li,  F. Matz,  A. Molle,  Haisheng Ren,  
 Yingli Su,  Hung-Yi Tsai,  C. Utku,  Fang Wang

 Contributors to earlier versions of Q-Chem not listed above: 
 R. D. Adamson,  B. Austin,  R. Baer,  J. Baker,  G. J. O. Beran,  
 K. Brandhorst,  S. T. Brown,  E. F. C. Byrd,  A. K. Chakraborty,  
 G. K. L. Chan,  Chun-Min Chang,  Yunqing Chen,  C.-L. Cheng,  
 Siu Hung Chien,  D. M. Chipman,  D. L. Crittenden,  H. Dachsel,  
 R. J. Doerksen,  A. D. Dutoi,  R. G. Edgar,  J. Fosso-Tande,  
 L. Fusti-Molnar,  D. Ghosh,  A. Ghysels,  A. Golubeva-Zadorozhnaya,  
 J. Gonthier,  M. S. Gordon,  S. R. Gwaltney,  G. Hawkins,  J. E. Herr,  
 A. Heyden,  S. Hirata,  E. G. Hohenstein,  G. Kedziora,  F. J. Keil,  
 C. Kelley,  Jihan Kim,  R. A. King,  R. Z. Khaliullin,  P. P. Korambath,  
 W. Kurlancheek,  A. Laurent,  A. M. Lee,  M. S. Lee,  S. V. Levchenko,  
 Ching Yeh Lin,  D. Liotard,  E. Livshits,  R. C. Lochan,  I. Lotan,  
 L. A. Martinez-Martinez,  P. E. Maslen,  N. Nair,  D. P. O'Neill,  
 D. Neuhauser,  E. Neuscamman,  C. M. Oana,  R. Olivares-Amaya,  R. Olson,  
 T. M. Perrine,  B. Peters,  P. A. Pieniazek,  A. Prociuk,  Y. M. Rhee,  
 J. Ritchie,  M. A. Rohrdanz,  E. Rosta,  N. J. Russ,  H. F. Schaefer III,  
 M. W. Schmidt,  N. E. Schultz,  S. Sharma,  N. Shenvi,  C. D. Sherrill,  
 A. C. Simmonett,  A. Sodt,  T. Stein,  D. Stuck,  K. S. Thanthiriwatte,  
 V. Vanovschi,  L. Vogt,  Tao Wang,  A. Warshel,  M. A. Watson,  
 C. F. Williams,  Q. Wu,  X. Xu,  Jun Yang,  W. Zhang,  Yan Zhao

 Please cite Q-Chem as follows:
 Y. Shao et al., Mol. Phys. 113, 184-215 (2015)
 DOI: 10.1080/00268976.2014.952696

 Q-Chem 5.4.1 for Intel X86 EM64T Linux

 Parts of Q-Chem use Armadillo 9.800.1 (Horizon Scraper).
 http://arma.sourceforge.net/

 Q-Chem begins on Thu Nov 17 00:23:29 2022  

 Host: cpu316.baobab
0

     Scratch files written to /scratch/fum/qchem17603//
 Processing $rem in /home/share/wesolowski/qc5.aug2021.FDE/config/preferences:
 Processing $rem in /home/fum/.qchemrc:

 Checking the input file for inconsistencies... 	...done.

--------------------------------------------------------------
User input:
--------------------------------------------------------------
$comment
generated from CCJob.Templates
$end

$rem
sym_ignore = true
method = adc(2)
ee_states = 10
basis = cc-pVDZ
mem_static = 1024
mem_total = 30000
adc_davidson_maxiter = 900
adc_davidson_conv = 6
adc_print = 3
adc_prop_es = true
adc_prop_es2es = true
adc_prop_tpa = true
molden_format = True
state_analysis = true
print_orbitals = 15
gen_scfman = false
fde_export_density = true
fde_details = 3
$end

$molecule
0 1
H -0.0348278765 -0.2442097827 0.0636489606
C -1.0765972949 -0.5242748755 -0.0023551776
H -1.313264467 -1.5817591606999999 -0.0757276926
C -2.043634118 0.3926884087 0.0061254933
H -1.8137616575 1.4459188338 0.0804456828
H -3.085977293 0.114931858 -0.0593381042                     
$end
--------------------------------------------------------------
 ----------------------------------------------------------------
             Standard Nuclear Orientation (Angstroms)
    I     Atom           X                Y                Z
 ----------------------------------------------------------------
    1      H      -0.0348278765    -0.2442097827     0.0636489606
    2      C      -1.0765972949    -0.5242748755    -0.0023551776
    3      H      -1.3132644670    -1.5817591607    -0.0757276926
    4      C      -2.0436341180     0.3926884087     0.0061254933
    5      H      -1.8137616575     1.4459188338     0.0804456828
    6      H      -3.0859772930     0.1149318580    -0.0593381042
 ----------------------------------------------------------------
 Nuclear Repulsion Energy =          33.40599711 hartrees
 There are        8 alpha and        8 beta electrons
 Requested basis set is cc-pVDZ
 There are 24 shells and 48 basis functions
 Total memory of 30000 MB is distributed as follows: 
   MEM_STATIC is set to 1024 MB
   QALLOC/CCMAN JOB total memory use is  28976 MB
 Warning: actual memory use might exceed 30000 MB

 Total QAlloc Memory Limit  30000 MB
 Mega-Array Size      1001 MB
 MEM_STATIC part      1024 MB

                       Distance Matrix (Angstroms)
             H (  1)   C (  2)   H (  3)   C (  4)   H (  5)
   C (  2)  1.080776
   H (  3)  1.855496  1.086125
   C (  4)  2.108139  1.332687  2.106794
   H (  5)  2.453859  2.105215  3.072738  1.080583
   H (  6)  3.074674  2.109370  2.453883  1.080700  1.846510

 A cutoff of  1.0D-11 yielded    300 shell pairs
 There are      1220 function pairs (      1329 Cartesian)
 Smallest overlap matrix eigenvalue = 4.80E-03

 Scale SEOQF with 1.000000e-01/1.000000e-01/1.000000e+00

 Standard Electronic Orientation quadrupole field applied
 Nucleus-field energy     =     0.0000000022 hartrees
 Guess from superposition of atomic densities
 Warning:  Energy on first SCF cycle will be non-variational
 SAD guess density has 16.000000 electrons
 A restricted Hartree-Fock SCF calculation will be
 performed using Pulay DIIS extrapolation
 SCF converges when DIIS error is below 1.0E-08
 using 8 threads for integral computing
 -------------------------------------------------------
 OpenMP Integral computing Module                
 Release: version 1.0, May 2013, Q-Chem Inc. Pittsburgh 
 -------------------------------------------------------
 ---------------------------------------
  Cycle       Energy         DIIS Error
 ---------------------------------------
    1     -78.4353196343      1.01E-01
    2     -78.0177064210      7.21E-03
    3     -78.0383251451      1.84E-03
    4     -78.0398076833      5.73E-04
    5     -78.0399292136      5.83E-05
    6     -78.0399310929      1.01E-05
    7     -78.0399311569      3.56E-06
    8     -78.0399311619      1.09E-06
    9     -78.0399311625      1.18E-07
   10     -78.0399311625      3.26E-08
   11     -78.0399311625      7.83E-09 Convergence criterion met
 ---------------------------------------
 SCF time:  CPU 1.54 s  wall 2.13 s
 SCF   energy in the final basis set = -78.03993116
 Total energy in the final basis set = -78.03993116
Exporting Density Matrix to file 'Densmat_SCF.txt'.
Export successful
================================================================================
|                                                                              |
|                                 A D C  M A N                                 |
|                                                                              |
 ------------------------------------------------------------------------------ 
|                                                                              |
| Components:                                                                  |
|                                                                              |
| - libvmm - 1.3-trunk                                                         |
|   Authors:                                                                   |
|   Evgeny Epifanovsky, Ilya Kaliman                                           |
|                                                                              |
| - libtensor - 2.5-trunk                                                      |
|   Authors:                                                                   |
|   Evgeny Epifanovsky, Michael Wormit, Dmitry Zuev, Sam Manzer,               |
|   Ilya Kaliman                                                               |
|                                                                              |
| - libwfa - 1.1-trunk                                                         |
|   Authors:                                                                   |
|   Felix Plasser, Stefanie Mewes (Baeppler), Benjamin Thomitzni,              |
|   Michael Wormit, Feng Chen, Anna I. Krylov, Pavel Pokhilko                  |
|                                                                              |
| - libadc - 1.1-trunk                                                         |
|   Authors:                                                                   |
|   Michael Wormit, Adrian L. Dempwolff, Philipp H. P. Harbach,                |
|   Caroline Krauter, Dirk Rehn, Matthias Schneider, Jan Wenzel                |
|                                                                              |
| - adcman - 2.6-trunk                                                         |
|   Authors:                                                                   |
|   Michael Wormit, Adrian L. Dempwolff, Philipp H. P. Harbach,                |
|   Caroline Krauter, Daniel Lefrancois, Jan-Michael Mewes, Dirk Rehn,         |
|   Matthias Schneider, Jan Wenzel, Andreas Dreuw                              |
|                                                                              |
| Authors of earlier versions of ADCMAN:                                       |
| Andreas Dreuw, Jan Hendrik Starcke, Dirk Rehn, Michael Wormit                |
|                                                                              |
================================================================================

 Created directory /scratch/fum/qchem17603/plots
  Import QC data ...  CPU 0.00 s  wall 0.00 s

 Alpha MOs, Restricted
 -- Occupied --                  
-11.235 -11.234  -1.032  -0.789  -0.641  -0.582  -0.504  -0.374
  1 A     2 A     3 A     4 A     5 A     6 A     7 A     8 A                  
 -- Virtual --                   
  0.168   0.204   0.233   0.239   0.303   0.462   0.578   0.615
  9 A    10 A    11 A    12 A    13 A    14 A    15 A    16 A                  
  0.689   0.708   0.784   0.808   0.862   0.935   0.972   1.009
 17 A    18 A    19 A    20 A    21 A    22 A    23 A    24 A                  
  1.130   1.235   1.254   1.266   1.293   1.600   1.726   1.750
 25 A    26 A    27 A    28 A    29 A    30 A    31 A    32 A                  
  1.819   1.859   1.866   1.920   1.975   1.978   2.221   2.257
 33 A    34 A    35 A    36 A    37 A    38 A    39 A    40 A                  
  2.374   2.451   2.504   2.632   2.717   2.819   3.137   3.396
 41 A    42 A    43 A    44 A    45 A    46 A    47 A    48 A                  

 Beta MOs, Restricted
 -- Occupied --                  
-11.235 -11.234  -1.032  -0.789  -0.641  -0.582  -0.504  -0.374
  1 A     2 A     3 A     4 A     5 A     6 A     7 A     8 A                  
 -- Virtual --                   
  0.168   0.204   0.233   0.239   0.303   0.462   0.578   0.615
  9 A    10 A    11 A    12 A    13 A    14 A    15 A    16 A                  
  0.689   0.708   0.784   0.808   0.862   0.935   0.972   1.009
 17 A    18 A    19 A    20 A    21 A    22 A    23 A    24 A                  
  1.130   1.235   1.254   1.266   1.293   1.600   1.726   1.750
 25 A    26 A    27 A    28 A    29 A    30 A    31 A    32 A                  
  1.819   1.859   1.866   1.920   1.975   1.978   2.221   2.257
 33 A    34 A    35 A    36 A    37 A    38 A    39 A    40 A                  
  2.374   2.451   2.504   2.632   2.717   2.819   3.137   3.396
 41 A    42 A    43 A    44 A    45 A    46 A    47 A    48 A                  
  Import AO data ...  CPU 0.00 s  wall 0.00 s
  Using point group: C1
  Irreducible representations in point group: A
  Molecular orbitals: 
  Occupied MOs:
  Block   0:   1 (  A) A   2 (  A) A   3 (  A) A   4 (  A) A   5 (  A) A
                  -11.24      -11.23      -1.032     -0.7893     -0.6407
               6 (  A) A   7 (  A) A   8 (  A) A
                 -0.5818     -0.5042      -0.374
  Block   1:   1 (  A) B   2 (  A) B   3 (  A) B   4 (  A) B   5 (  A) B
                  -11.24      -11.23      -1.032     -0.7893     -0.6407
               6 (  A) B   7 (  A) B   8 (  A) B
                 -0.5818     -0.5042      -0.374
  Virtual MOs:
  Block   0:   9 (  A) A  10 (  A) A  11 (  A) A  12 (  A) A  13 (  A) A
                  0.1684      0.2036      0.2328      0.2392      0.3032
              14 (  A) A  15 (  A) A  16 (  A) A  17 (  A) A  18 (  A) A
                   0.462      0.5776      0.6148      0.6891      0.7084
              19 (  A) A  20 (  A) A  21 (  A) A  22 (  A) A
                  0.7838      0.8079      0.8619      0.9353
  Block   1:  23 (  A) A  24 (  A) A  25 (  A) A  26 (  A) A  27 (  A) A
                  0.9723       1.009        1.13       1.235       1.254
              28 (  A) A  29 (  A) A  30 (  A) A  31 (  A) A  32 (  A) A
                   1.266       1.293         1.6       1.726        1.75
              33 (  A) A  34 (  A) A  35 (  A) A  36 (  A) A
                   1.819       1.859       1.866        1.92
  Block   2:  37 (  A) A  38 (  A) A  39 (  A) A  40 (  A) A  41 (  A) A
                   1.975       1.978       2.221       2.257       2.374
              42 (  A) A  43 (  A) A  44 (  A) A  45 (  A) A  46 (  A) A
                   2.451       2.504       2.632       2.717       2.819
              47 (  A) A  48 (  A) A
                   3.137       3.396
  Block   3:   9 (  A) B  10 (  A) B  11 (  A) B  12 (  A) B  13 (  A) B
                  0.1684      0.2036      0.2328      0.2392      0.3032
              14 (  A) B  15 (  A) B  16 (  A) B  17 (  A) B  18 (  A) B
                   0.462      0.5776      0.6148      0.6891      0.7084
              19 (  A) B  20 (  A) B  21 (  A) B  22 (  A) B
                  0.7838      0.8079      0.8619      0.9353
  Block   4:  23 (  A) B  24 (  A) B  25 (  A) B  26 (  A) B  27 (  A) B
                  0.9723       1.009        1.13       1.235       1.254
              28 (  A) B  29 (  A) B  30 (  A) B  31 (  A) B  32 (  A) B
                   1.266       1.293         1.6       1.726        1.75
              33 (  A) B  34 (  A) B  35 (  A) B  36 (  A) B
                   1.819       1.859       1.866        1.92
  Block   5:  37 (  A) B  38 (  A) B  39 (  A) B  40 (  A) B  41 (  A) B
                   1.975       1.978       2.221       2.257       2.374
              42 (  A) B  43 (  A) B  44 (  A) B  45 (  A) B  46 (  A) B
                   2.451       2.504       2.632       2.717       2.819
              47 (  A) B  48 (  A) B
                   3.137       3.396
  Import MO data ...  CPU 0.08 s  wall 0.02 s
  Import HF data ...  CPU 0.12 s  wall 0.04 s
  Import 2e integrals ...  CPU 0.63 s  wall 0.10 s

--------------------------------------------------------------------------------
                                   HF Summary                                   
--------------------------------------------------------------------------------
  Energy:                                                  -78.0399311625 a.u.
  Dip. moment [a.u.]:                  [  -0.000606,    0.001570,    0.000601]
  Total dipole [Debye]:                                               0.004542
  <r^2> [a.u.]:                        [ 175.322629,   34.975777,   11.630528]
  Total <r^2> [a.u.]:                                               221.928933
--------------------------------------------------------------------------------
  HF properties ...  CPU 0.01 s  wall 0.01 s
  MP(1) calculation ...  CPU 0.01 s  wall 0.01 s
  N^6 prerequesite intermediates ...  CPU 0.36 s  wall 0.07 s
  Difference density matrix of state mp2_gs printed to ASCII file 'State_mp2_gs_Difference.txt'
Exporting MP density matrix to file 'Densmat_MP.txt'.
Export successful
  Total density matrix of state mp2_gs printed to ASCII file 'State_mp2_gs_Total.txt'
Exporting MP density matrix to file 'Densmat_MP.txt'.
Export successful

--------------------------------------------------------------------------------
                                 MP(2) Summary                                  
--------------------------------------------------------------------------------
  MP energy contribution:                                   -0.2797721035 a.u.
  Total energy:                                            -78.3197032660 a.u.
  Dip. moment [a.u.]:                  [  -0.000655,    0.001380,    0.000581]
  Total dipole [Debye]:                                               0.004154
  <r^2> [a.u.]:                        [ 175.368786,   35.015608,   11.462023]
  Total <r^2> [a.u.]:                                               221.846417

  Density matrix analysis:
  ------------------------
  NOs
    Occupation of frontier NOs:
       0.0453   1.9382
    Number of electrons: 16.000000
    Number of unpaired electrons: n_u =  0.40375, n_u,nl =  0.04514
    NO participation ratio (PR_NO): 13.861712
  
  
  Mulliken Population Analysis
  Atom      Charge (e)              h+              e-           Del q
  --------------------------------------------------------------------
   1 H        0.051094        0.014024       -0.011216        0.002807
   2 C       -0.103099        0.093535       -0.099000       -0.005465
   3 H        0.051813        0.014004       -0.011214        0.002790
   4 C       -0.100657        0.092932       -0.098892       -0.005961
   5 H        0.050221        0.014123       -0.011186        0.002938
   6 H        0.050628        0.014085       -0.011195        0.002890
  --------------------------------------------------------------------
  Sum:        0.000000        0.242703       -0.242703       -0.000000
  
  Multipole moment analysis of the density matrix
    Molecular charge:                      0.000000
    Number of electrons:                   16.000000
      Center of electronic charge [Ang]: [ -1.560555,  -0.065960,   0.001959]
    Total nuclear charge:                  16.000000
      Center of nuclear charge [Ang]:    [ -1.560576,  -0.065915,   0.001978]
    Dipole moment [D]:                     0.004154
      Cartesian components [D]:          [ -0.001665,   0.003508,   0.001476]
    RMS size of the density [Ang]:         1.201259
      Cartesian components [Ang]:        [  0.796201,   0.780054,   0.447886]
  
  Exciton analysis of the difference density matrix
    <r_h> [Ang]:                  [ -1.560177,  -0.066945,   0.001833]
    <r_e> [Ang]:                  [ -1.560071,  -0.066531,   0.001877]
    |<r_e - r_h>| [Ang]:            0.000430
    Hole size [Ang]:                1.394330
      Cartesian components [Ang]: [  0.846632,   0.835178,   0.727907]
    Electron size [Ang]:            1.359904
      Cartesian components [Ang]: [  0.877710,   0.862284,   0.579163]
--------------------------------------------------------------------------------
  MP(2) calculation ...  CPU 0.18 s  wall 0.11 s
  Start ADC(2)-s ...  CPU 0.01 s  wall 0.00 s
  ADC(2) intermediates ...  CPU 0.02 s  wall 0.01 s
  Starting Davidson for singlet states of irrep A ... 
--------------------------------------------------------------------------------
   It NVec Conv  Avg. Norm  Max. Norm  Conv. states           Remark
--------------------------------------------------------------------------------
        10    0  1.330e-01  4.687e-01  0.4118 n n n n n n n n Guess.
    1   20    0  2.304e-02  1.110e-01  0.3263 n n n n n n n n 
    2   30    0  5.875e-03  2.609e-02  0.3215 n n n n n n n n 
    3   40    0  2.061e-03  1.455e-02  0.3211 n n n n n n n n 
    4   50    0  6.311e-04  4.780e-03  0.3211 n n n n n n n n 
    5   20    0  2.680e-04  1.940e-03  0.3211 n n n n n n n n Subspace collapsed.
    6   30    0  1.801e-04  1.616e-03  0.3211 n n n n n n n n 
    7   40    0  9.871e-05  7.901e-04  0.3211 n n n n n n n n 
    8   50    0  9.830e-05  9.297e-04  0.3211 n n n n n n n n 
    9   20    1  7.826e-05  7.540e-04  0.3211 n y n n n n n n Subspace collapsed.
   10   30    4  1.051e-04  1.034e-03  0.3211 n y y y y n n n 
   11   40    5  1.067e-04  1.064e-03  0.3211 n y y y y y n n 
   12   50    6  8.769e-05  8.763e-04  0.3211 y y y y y y n n 
   13   20    6  4.226e-05  4.223e-04  0.3211 y y y y y y n n Subspace collapsed.
   14   30    6  2.544e-05  2.540e-04  0.3211 y y y y y y n n 
   15   40    7  1.378e-05  1.373e-04  0.3211 y y y y y y n y 
   16   50    7  1.892e-05  1.891e-04  0.3211 y y y y y y n y 
   17   20    8  8.916e-06  8.914e-05  0.3211 y y y y y y n y Subspace collapsed.
   18   30    8  1.448e-05  1.447e-04  0.3211 y y y y y y n y 
   19   40    9  1.554e-05  1.554e-04  0.3211 y y y y y y y y 
   20   50    9  1.411e-05  1.411e-04  0.3211 y y y y y y y y 
   21   20    9  6.446e-06  6.446e-05  0.3211 y y y y y y y y Subspace collapsed.
   22   30    9  4.933e-06  4.933e-05  0.3211 y y y y y y y y 
   23   32    9  4.635e-06  4.635e-05  0.3211 y y y y y y y y 
   24   33    9  4.459e-06  4.459e-05  0.3211 y y y y y y y y 
   25   42    9  2.851e-06  2.851e-05  0.3211 y y y y y y y y 
   26   50    9  2.586e-06  2.586e-05  0.3211 y y y y y y y y 
   27   16    9  2.068e-06  2.068e-05  0.3211 y y y y y y y y Subspace collapsed.
   28   21    9  2.017e-06  2.017e-05  0.3211 y y y y y y y y 
   29   26    9  2.605e-06  2.605e-05  0.3211 y y y y y y y y 
   30   31    9  2.462e-06  2.462e-05  0.3211 y y y y y y y y 
   31   35    9  1.391e-06  1.391e-05  0.3211 y y y y y y y y 
   32   39    9  7.263e-07  7.263e-06  0.3211 y y y y y y y y 
   33   43    9  4.028e-07  4.028e-06  0.3211 y y y y y y y y 
   34   47    9  2.429e-07  2.429e-06  0.3211 y y y y y y y y 
   35   50    9  1.370e-07  1.370e-06  0.3211 y y y y y y y y 
   36   14   10  7.999e-08  7.999e-07  0.3211 y y y y y y y y Converged.
--------------------------------------------------------------------------------
  Davidson Summary: 
 ------------------------------------------------------------
  State  0: excitation energy =   0.3211 a.u.   (converged)
  State  1: excitation energy =   0.3325 a.u.   (converged)
  State  2: excitation energy =   0.3369 a.u.   (converged)
  State  3: excitation energy =   0.3611 a.u.   (converged)
  State  4: excitation energy =   0.3751 a.u.   (converged)
  State  5: excitation energy =   0.3871 a.u.   (converged)
  State  6: excitation energy =   0.4243 a.u.   (converged)
  State  7: excitation energy =   0.4468 a.u.   (converged)
  State  8: excitation energy =   0.4561 a.u.   (converged)
  State  9: excitation energy =   0.4642 a.u.   (converged)
 ------------------------------------------------------------

  Singlet states of irrep A ...  CPU 83.20 s  wall 27.53 s
  TDMs ...  CPU 0.90 s  wall 0.31 s
  SDMs ...  CPU 2.40 s  wall 0.66 s
  Starting TPA DIIS iterations ... 
------------------------------------ 
   It     Res. Norm  Remark
------------------------------------
                       Guess.
    1     4.406e+00  
    2     5.840e+00  
    3     1.077e+00  
    4     2.564e-01  
    5     6.565e-02  
    6     2.670e-02  
    7     8.244e-03  
    8     1.437e-03  
    9     5.334e-04  
   10     9.015e-05  
   11     2.816e-05  
   12     4.394e-06  
   13     1.434e-06  
   14     4.484e-07  Converged.
   ... Converged in 14 steps (norm: 4.48376e-07)
------------------------------------
  Starting TPA DIIS iterations ... 
------------------------------------ 
   It     Res. Norm  Remark
------------------------------------
                       Guess.
    1     4.182e+00  
    2     5.538e+00  
    3     1.031e+00  
    4     2.568e-01  
    5     6.544e-02  
    6     2.693e-02  
    7     8.143e-03  
    8     1.475e-03  
    9     5.458e-04  
   10     9.091e-05  
   11     2.891e-05  
   12     4.425e-06  
   13     1.455e-06  
   14     4.452e-07  Converged.
   ... Converged in 14 steps (norm: 4.45212e-07)
------------------------------------
  Starting TPA DIIS iterations ... 
------------------------------------ 
   It     Res. Norm  Remark
------------------------------------
                       Guess.
    1     6.880e-01  
    2     4.828e-01  
    3     1.703e-01  
    4     6.021e-02  
    5     1.839e-02  
    6     6.649e-03  
    7     1.043e-03  
    8     4.486e-04  
    9     1.254e-04  
   10     2.818e-05  
   11     6.150e-06  
   12     1.812e-06  
   13     1.197e-06  
   14     4.796e-07  Converged.
   ... Converged in 14 steps (norm: 4.79632e-07)
------------------------------------
  Starting TPA DIIS iterations ... 
------------------------------------ 
   It     Res. Norm  Remark
------------------------------------
                       Guess.
    1     4.686e+00  
    2     6.343e+00  
    3     1.156e+00  
    4     2.841e-01  
    5     7.375e-02  
    6     3.024e-02  
    7     9.322e-03  
    8     1.622e-03  
    9     6.066e-04  
   10     1.031e-04  
   11     3.252e-05  
   12     5.118e-06  
   13     1.684e-06  
   14     5.289e-07  Converged.
   ... Converged in 14 steps (norm: 5.28892e-07)
------------------------------------
  Starting TPA DIIS iterations ... 
------------------------------------ 
   It     Res. Norm  Remark
------------------------------------
                       Guess.
    1     4.447e+00  
    2     6.014e+00  
    3     1.106e+00  
    4     2.844e-01  
    5     7.352e-02  
    6     3.053e-02  
    7     9.211e-03  
    8     1.667e-03  
    9     6.210e-04  
   10     1.040e-04  
   11     3.337e-05  
   12     5.152e-06  
   13     1.706e-06  
   14     5.250e-07  Converged.
   ... Converged in 14 steps (norm: 5.24986e-07)
------------------------------------
  Starting TPA DIIS iterations ... 
------------------------------------ 
   It     Res. Norm  Remark
------------------------------------
                       Guess.
    1     6.997e-01  
    2     4.998e-01  
    3     1.799e-01  
    4     6.791e-02  
    5     1.977e-02  
    6     7.251e-03  
    7     1.174e-03  
    8     5.261e-04  
    9     1.503e-04  
   10     3.192e-05  
   11     7.021e-06  
   12     2.134e-06  
   13     1.495e-06  
   14     5.997e-07  Converged.
   ... Converged in 14 steps (norm: 5.99667e-07)
------------------------------------
  Starting TPA DIIS iterations ... 
------------------------------------ 
   It     Res. Norm  Remark
------------------------------------
                       Guess.
    1     4.802e+00  
    2     6.554e+00  
    3     1.188e+00  
    4     2.960e-01  
    5     7.722e-02  
    6     3.177e-02  
    7     9.783e-03  
    8     1.701e-03  
    9     6.380e-04  
   10     1.086e-04  
   11     3.441e-05  
   12     5.433e-06  
   13     1.795e-06  
   14     5.644e-07  Converged.
   ... Converged in 14 steps (norm: 5.64406e-07)
------------------------------------
  Starting TPA DIIS iterations ... 
------------------------------------ 
   It     Res. Norm  Remark
------------------------------------
                       Guess.
    1     4.557e+00  
    2     6.214e+00  
    3     1.137e+00  
    4     2.962e-01  
    5     7.698e-02  
    6     3.208e-02  
    7     9.669e-03  
    8     1.749e-03  
    9     6.532e-04  
   10     1.096e-04  
   11     3.531e-05  
   12     5.469e-06  
   13     1.816e-06  
   14     5.602e-07  Converged.
   ... Converged in 14 steps (norm: 5.60231e-07)
------------------------------------
  Starting TPA DIIS iterations ... 
------------------------------------ 
   It     Res. Norm  Remark
------------------------------------
                       Guess.
    1     7.044e-01  
    2     5.066e-01  
    3     1.838e-01  
    4     7.126e-02  
    5     2.034e-02  
    6     7.508e-03  
    7     1.231e-03  
    8     5.603e-04  
    9     1.613e-04  
   10     3.322e-05  
   11     7.395e-06  
   12     2.276e-06  
   13     1.632e-06  
   14     6.555e-07  Converged.
   ... Converged in 14 steps (norm: 6.55481e-07)
------------------------------------
  Starting TPA DIIS iterations ... 
------------------------------------ 
   It     Res. Norm  Remark
------------------------------------
                       Guess.
    1     5.536e+00  
    2     7.922e+00  
    3     1.394e+00  
    4     3.753e-01  
    5     1.003e-01  
    6     4.203e-02  
    7     1.286e-02  
    8     2.227e-03  
    9     8.497e-04  
   10     1.462e-04  
   11     4.743e-05  
   12     7.608e-06  
   13     2.574e-06  
   14     8.177e-07  Converged.
   ... Converged in 14 steps (norm: 8.17688e-07)
------------------------------------
  Starting TPA DIIS iterations ... 
------------------------------------ 
   It     Res. Norm  Remark
------------------------------------
                       Guess.
    1     5.251e+00  
    2     7.510e+00  
    3     1.333e+00  
    4     3.749e-01  
    5     1.001e-01  
    6     4.253e-02  
    7     1.272e-02  
    8     2.295e-03  
    9     8.706e-04  
   10     1.476e-04  
   11     4.860e-05  
   12     7.656e-06  
   13     2.591e-06  
   14     8.130e-07  Converged.
   ... Converged in 14 steps (norm: 8.12958e-07)
------------------------------------
  Starting TPA DIIS iterations ... 
------------------------------------ 
   It     Res. Norm  Remark
------------------------------------
                       Guess.
    1     7.311e-01  
    2     5.477e-01  
    3     2.080e-01  
    4     9.430e-02  
    5     2.386e-02  
    6     9.229e-03  
    7     1.627e-03  
    8     7.947e-04  
    9     2.356e-04  
   10     3.821e-05  
   11     9.953e-06  
   12     3.291e-06  
   13     2.677e-06  
   14     1.092e-06  
   15     4.173e-07  Converged.
   ... Converged in 15 steps (norm: 4.17301e-07)
------------------------------------
  Starting TPA DIIS iterations ... 
------------------------------------ 
   It     Res. Norm  Remark
------------------------------------
                       Guess.
    1     6.050e+00  
    2     8.914e+00  
    3     1.537e+00  
    4     4.350e-01  
    5     1.177e-01  
    6     4.986e-02  
    7     1.519e-02  
    8     2.622e-03  
    9     1.011e-03  
   10     1.748e-04  
   11     5.758e-05  
   12     9.307e-06  
   13     3.203e-06  
   14     1.027e-06  
   15     3.903e-07  Converged.
   ... Converged in 15 steps (norm: 3.90253e-07)
------------------------------------
  Starting TPA DIIS iterations ... 
------------------------------------ 
   It     Res. Norm  Remark
------------------------------------
                       Guess.
    1     5.737e+00  
    2     8.450e+00  
    3     1.470e+00  
    4     4.341e-01  
    5     1.175e-01  
    6     5.051e-02  
    7     1.503e-02  
    8     2.706e-03  
    9     1.036e-03  
   10     1.765e-04  
   11     5.892e-05  
   12     9.367e-06  
   13     3.209e-06  
   14     1.024e-06  
   15     3.105e-07  Converged.
   ... Converged in 15 steps (norm: 3.10487e-07)
------------------------------------
  Starting TPA DIIS iterations ... 
------------------------------------ 
   It     Res. Norm  Remark
------------------------------------
                       Guess.
    1     7.476e-01  
    2     5.745e-01  
    3     2.244e-01  
    4     1.123e-01  
    5     2.637e-02  
    6     1.054e-02  
    7     1.942e-03  
    8     9.671e-04  
    9     2.894e-04  
   10     3.953e-05  
   11     1.198e-05  
   12     4.120e-06  
   13     3.597e-06  
   14     1.487e-06  
   15     5.565e-07  Converged.
   ... Converged in 15 steps (norm: 5.56516e-07)
------------------------------------
  Starting TPA DIIS iterations ... 
------------------------------------ 
   It     Res. Norm  Remark
------------------------------------
                       Guess.
    1     6.551e+00  
    2     9.906e+00  
    3     1.676e+00  
    4     4.962e-01  
    5     1.356e-01  
    6     5.795e-02  
    7     1.757e-02  
    8     3.026e-03  
    9     1.178e-03  
   10     2.045e-04  
   11     6.818e-05  
   12     1.108e-05  
   13     3.876e-06  
   14     1.260e-06  
   15     4.929e-07  Converged.
   ... Converged in 15 steps (norm: 4.92905e-07)
------------------------------------
  Starting TPA DIIS iterations ... 
------------------------------------ 
   It     Res. Norm  Remark
------------------------------------
                       Guess.
    1     6.212e+00  
    2     9.390e+00  
    3     1.602e+00  
    4     4.948e-01  
    5     1.353e-01  
    6     5.878e-02  
    7     1.739e-02  
    8     3.126e-03  
    9     1.207e-03  
   10     2.064e-04  
   11     6.967e-05  
   12     1.116e-05  
   13     3.863e-06  
   14     1.261e-06  
   15     3.806e-07  Converged.
   ... Converged in 15 steps (norm: 3.80599e-07)
------------------------------------
  Starting TPA DIIS iterations ... 
------------------------------------ 
   It     Res. Norm  Remark
------------------------------------
                       Guess.
    1     7.622e-01  
    2     5.993e-01  
    3     2.399e-01  
    4     1.311e-01  
    5     2.887e-02  
    6     1.188e-02  
    7     2.277e-03  
    8     1.131e-03  
    9     3.412e-04  
   10     4.048e-05  
   11     1.417e-05  
   12     5.018e-06  
   13     4.641e-06  
   14     1.945e-06  
   15     7.292e-07  Converged.
   ... Converged in 15 steps (norm: 7.29201e-07)
------------------------------------
  Starting TPA DIIS iterations ... 
------------------------------------ 
   It     Res. Norm  Remark
------------------------------------
                       Guess.
    1     8.632e+00  
    2     1.426e+01  
    3     2.242e+00  
    4     7.772e-01  
    5     2.176e-01  
    6     9.590e-02  
    7     2.851e-02  
    8     4.868e-03  
    9     1.956e-03  
   10     3.423e-04  
   11     1.176e-04  
   12     1.950e-05  
   13     7.168e-06  
   14     2.566e-06  
   15     1.077e-06  
   16     4.689e-07  Converged.
   ... Converged in 16 steps (norm: 4.68866e-07)
------------------------------------
  Starting TPA DIIS iterations ... 
------------------------------------ 
   It     Res. Norm  Remark
------------------------------------
                       Guess.
    1     8.181e+00  
    2     1.351e+01  
    3     2.141e+00  
    4     7.723e-01  
    5     2.173e-01  
    6     9.758e-02  
    7     2.826e-02  
    8     5.047e-03  
    9     2.005e-03  
   10     3.457e-04  
   11     1.196e-04  
   12     1.975e-05  
   13     6.957e-06  
   14     2.631e-06  
   15     7.695e-07  Converged.
   ... Converged in 15 steps (norm: 7.69514e-07)
------------------------------------
  Starting TPA DIIS iterations ... 
------------------------------------ 
   It     Res. Norm  Remark
------------------------------------
                       Guess.
    1     8.119e-01  
    2     6.919e-01  
    3     3.007e-01  
    4     2.189e-01  
    5     4.007e-02  
    6     1.803e-02  
    7     3.927e-03  
    8     1.648e-03  
    9     5.394e-04  
   10     5.375e-05  
   11     2.551e-05  
   12     9.630e-06  
   13     1.034e-05  
   14     4.610e-06  
   15     2.045e-06  
   16     9.897e-07  Converged.
   ... Converged in 16 steps (norm: 9.89744e-07)
------------------------------------
  Starting TPA DIIS iterations ... 
------------------------------------ 
   It     Res. Norm  Remark
------------------------------------
                       Guess.
    1     1.046e+01  
    2     1.837e+01  
    3     2.727e+00  
    4     1.052e+00  
    5     2.986e-01  
    6     1.343e-01  
    7     3.932e-02  
    8     6.675e-03  
    9     2.739e-03  
   10     4.799e-04  
   11     1.652e-04  
   12     2.810e-05  
   13     1.057e-05  
   14     4.232e-06  
   15     1.836e-06  
   16     8.586e-07  Converged.
   ... Converged in 16 steps (norm: 8.58584e-07)
------------------------------------
  Starting TPA DIIS iterations ... 
------------------------------------ 
   It     Res. Norm  Remark
------------------------------------
                       Guess.
    1     9.915e+00  
    2     1.741e+01  
    3     2.603e+00  
    4     1.043e+00  
    5     2.983e-01  
    6     1.369e-01  
    7     3.899e-02  
    8     6.933e-03  
    9     2.807e-03  
   10     4.846e-04  
   11     1.675e-04  
   12     2.879e-05  
   13     1.000e-05  
   14     4.433e-06  
   15     1.351e-06  
   16     1.087e-06  
   17     5.330e-07  Converged.
   ... Converged in 17 steps (norm: 5.33022e-07)
------------------------------------
  Starting TPA DIIS iterations ... 
------------------------------------ 
   It     Res. Norm  Remark
------------------------------------
                       Guess.
    1     8.457e-01  
    2     7.632e-01  
    3     3.502e-01  
    4     3.010e-01  
    5     5.082e-02  
    6     2.377e-02  
    7     5.624e-03  
    8     1.870e-03  
    9     6.957e-04  
   10     7.661e-05  
   11     3.828e-05  
   12     1.486e-05  
   13     1.686e-05  
   14     7.932e-06  
   15     4.042e-06  
   16     1.839e-06  
   17     6.892e-07  Converged.
   ... Converged in 17 steps (norm: 6.89231e-07)
------------------------------------
  Starting TPA DIIS iterations ... 
------------------------------------ 
   It     Res. Norm  Remark
------------------------------------
                       Guess.
    1     1.140e+01  
    2     2.056e+01  
    3     2.971e+00  
    4     1.201e+00  
    5     3.427e-01  
    6     1.555e-01  
    7     4.522e-02  
    8     7.657e-03  
    9     3.170e-03  
   10     5.552e-04  
   11     1.905e-04  
   12     3.294e-05  
   13     1.252e-05  
   14     5.287e-06  
   15     2.341e-06  
   16     1.118e-06  
   17     3.929e-07  Converged.
   ... Converged in 17 steps (norm: 3.92871e-07)
------------------------------------
  Starting TPA DIIS iterations ... 
------------------------------------ 
   It     Res. Norm  Remark
------------------------------------
                       Guess.
    1     1.080e+01  
    2     1.949e+01  
    3     2.835e+00  
    4     1.189e+00  
    5     3.425e-01  
    6     1.586e-01  
    7     4.484e-02  
    8     7.960e-03  
    9     3.249e-03  
   10     5.605e-04  
   11     1.930e-04  
   12     3.401e-05  
   13     1.170e-05  
   14     5.583e-06  
   15     1.795e-06  
   16     1.471e-06  
   17     7.145e-07  Converged.
   ... Converged in 17 steps (norm: 7.14498e-07)
------------------------------------
  Starting TPA DIIS iterations ... 
------------------------------------ 
   It     Res. Norm  Remark
------------------------------------
                       Guess.
    1     8.606e-01  
    2     7.971e-01  
    3     3.743e-01  
    4     3.421e-01  
    5     5.655e-02  
    6     2.667e-02  
    7     6.547e-03  
    8     1.931e-03  
    9     7.717e-04  
   10     8.988e-05  
   11     4.575e-05  
   12     1.804e-05  
   13     2.072e-05  
   14     9.969e-06  
   15     5.333e-06  
   16     2.380e-06  
   17     9.654e-07  Converged.
   ... Converged in 17 steps (norm: 9.65444e-07)
------------------------------------
  Starting TPA DIIS iterations ... 
------------------------------------ 
   It     Res. Norm  Remark
------------------------------------
                       Guess.
    1     1.233e+01  
    2     2.279e+01  
    3     3.210e+00  
    4     1.352e+00  
    5     3.880e-01  
    6     1.774e-01  
    7     5.126e-02  
    8     8.662e-03  
    9     3.615e-03  
   10     6.324e-04  
   11     2.159e-04  
   12     3.804e-05  
   13     1.464e-05  
   14     6.471e-06  
   15     2.933e-06  
   16     1.413e-06  
   17     4.992e-07  Converged.
   ... Converged in 17 steps (norm: 4.99172e-07)
------------------------------------
  Starting TPA DIIS iterations ... 
------------------------------------ 
   It     Res. Norm  Remark
------------------------------------
                       Guess.
    1     1.168e+01  
    2     2.160e+01  
    3     3.062e+00  
    4     1.337e+00  
    5     3.879e-01  
    6     1.811e-01  
    7     5.085e-02  
    8     9.011e-03  
    9     3.705e-03  
   10     6.385e-04  
   11     2.188e-04  
   12     3.960e-05  
   13     1.352e-05  
   14     6.871e-06  
   15     2.355e-06  
   16     1.928e-06  
   17     9.084e-07  Converged.
   ... Converged in 17 steps (norm: 9.08376e-07)
------------------------------------
  Starting TPA DIIS iterations ... 
------------------------------------ 
   It     Res. Norm  Remark
------------------------------------
                       Guess.
    1     8.741e-01  
    2     8.293e-01  
    3     3.974e-01  
    4     3.809e-01  
    5     6.233e-02  
    6     2.946e-02  
    7     7.481e-03  
    8     1.976e-03  
    9     8.450e-04  
   10     1.034e-04  
   11     5.372e-05  
   12     2.160e-05  
   13     2.501e-05  
   14     1.221e-05  
   15     6.775e-06  
   16     2.975e-06  
   17     1.284e-06  
   18     4.657e-07  Converged.
   ... Converged in 18 steps (norm: 4.65716e-07)
------------------------------------
  Two-photon absorbption ...  CPU 76.54 s  wall 19.87 s
  Transition density matrix of state singlet_A_1 printed to ASCII file 'State_singlet_A_1_Transition.txt'
  Transition density matrix of state singlet_A_2 printed to ASCII file 'State_singlet_A_2_Transition.txt'
  Transition density matrix of state singlet_A_3 printed to ASCII file 'State_singlet_A_3_Transition.txt'
  Transition density matrix of state singlet_A_4 printed to ASCII file 'State_singlet_A_4_Transition.txt'
  Transition density matrix of state singlet_A_5 printed to ASCII file 'State_singlet_A_5_Transition.txt'
  Transition density matrix of state singlet_A_6 printed to ASCII file 'State_singlet_A_6_Transition.txt'
  Transition density matrix of state singlet_A_7 printed to ASCII file 'State_singlet_A_7_Transition.txt'
  Transition density matrix of state singlet_A_8 printed to ASCII file 'State_singlet_A_8_Transition.txt'
  Transition density matrix of state singlet_A_9 printed to ASCII file 'State_singlet_A_9_Transition.txt'
  Transition density matrix of state singlet_A_10 printed to ASCII file 'State_singlet_A_10_Transition.txt'
  Transition properties ...  CPU 0.19 s  wall 0.40 s
  Difference density matrix of state singlet_A_1 printed to ASCII file 'State_singlet_A_1_Difference.txt'
  Total density matrix of state singlet_A_1 printed to ASCII file 'State_singlet_A_1_Total.txt'
  Difference density matrix of state singlet_A_2 printed to ASCII file 'State_singlet_A_2_Difference.txt'
  Total density matrix of state singlet_A_2 printed to ASCII file 'State_singlet_A_2_Total.txt'
  Difference density matrix of state singlet_A_3 printed to ASCII file 'State_singlet_A_3_Difference.txt'
  Total density matrix of state singlet_A_3 printed to ASCII file 'State_singlet_A_3_Total.txt'
  Difference density matrix of state singlet_A_4 printed to ASCII file 'State_singlet_A_4_Difference.txt'
  Total density matrix of state singlet_A_4 printed to ASCII file 'State_singlet_A_4_Total.txt'
  Difference density matrix of state singlet_A_5 printed to ASCII file 'State_singlet_A_5_Difference.txt'
  Total density matrix of state singlet_A_5 printed to ASCII file 'State_singlet_A_5_Total.txt'
  Difference density matrix of state singlet_A_6 printed to ASCII file 'State_singlet_A_6_Difference.txt'
  Total density matrix of state singlet_A_6 printed to ASCII file 'State_singlet_A_6_Total.txt'
  Difference density matrix of state singlet_A_7 printed to ASCII file 'State_singlet_A_7_Difference.txt'
  Total density matrix of state singlet_A_7 printed to ASCII file 'State_singlet_A_7_Total.txt'
  Difference density matrix of state singlet_A_8 printed to ASCII file 'State_singlet_A_8_Difference.txt'
  Total density matrix of state singlet_A_8 printed to ASCII file 'State_singlet_A_8_Total.txt'
  Difference density matrix of state singlet_A_9 printed to ASCII file 'State_singlet_A_9_Difference.txt'
  Total density matrix of state singlet_A_9 printed to ASCII file 'State_singlet_A_9_Total.txt'
  Difference density matrix of state singlet_A_10 printed to ASCII file 'State_singlet_A_10_Difference.txt'
  Total density matrix of state singlet_A_10 printed to ASCII file 'State_singlet_A_10_Total.txt'
  Properties ...  CPU 0.25 s  wall 0.55 s
  ISR TDMS ...  CPU 15.33 s  wall 4.29 s
  ISR transition properties ...  CPU 0.20 s  wall 0.08 s
  Sum-over-states TPA ...  CPU 0.00 s  wall 0.00 s

--------------------------------------------------------------------------------
                   State-averaged natural transition orbitals
--------------------------------------------------------------------------------
--------------------------------------------------------------------------------
  SA-NTO decomposition ...  CPU 0.01 s  wall 0.02 s

--------------------------------------------------------------------------------
                             Excited State Summary
--------------------------------------------------------------------------------
--------------------------------------------------------------------------------

  Excited state 1 (singlet, A)                                     [converged]
  ----------------------------------------------------------------------------
  Term symbol:  2 (1) A                                     R^2 =  4.66489e-13

  Total energy:                                            -77.9986107742 a.u.
  Excitation energy:                                               8.737371 eV

  Osc. strength:                                                      0.445752
  Trans. dip. moment [a.u.]:           [   1.045194,   -0.994904,   -0.009347]
  <i|r^2|0> [a.u.]:                    [   6.164991,   -0.252516,   -0.000550]
  Two-photon absorption cross-section (SoS) [a.u.]:                   0.001280
  Two-photon absorption matrix (SoS) [a.u.]:
                                       |    0.004653   -0.007987   -0.001150 |
                                       |   -0.007987   -0.003890   -0.000938 |
                                       |   -0.001150   -0.000938    0.009778 |
  Two-photon absorption cross-section [a.u.]:                         0.001057
  Two-photon absorption matrix [a.u.]:
                                       |    0.002081   -0.006513    0.000452 |
                                       |   -0.006513   -0.008068    0.001744 |
                                       |    0.000452    0.001744    0.009812 |

  Dip. moment [a.u.]:                  [  -0.000600,    0.001130,    0.000689]
  Total dipole [Debye]:                                               0.003694
  <r^2> [a.u.]:                        [ 176.122991,   35.704856,   11.872052]
  Total <r^2> [a.u.]:                                               223.699898

  V1^2 = 0.9715, V2^2 = 0.0285

  Important amplitudes:
      occ i     occ j     vir a      vir b          v   
    -----------------------------------------------------
     8 (A) A              9 (A) A                -0.6811
     6 (A) A             14 (A) A                -0.0622
     4 (A) A             10 (A) A                -0.0608
     7 (A) A             16 (A) A                 0.0570
     5 (A) A             13 (A) A                -0.0514
     6 (A) A             23 (A) A                -0.0486
     8 (A) A             20 (A) A                 0.0350
     6 (A) A             19 (A) A                -0.0308
     3 (A) A             12 (A) A                 0.0282
     5 (A) A             22 (A) A                 0.0215
     7 (A) A             11 (A) A                 0.0208
     4 (A) A             24 (A) A                -0.0188
     3 (A) A             26 (A) A                 0.0185
     8 (A) A   8 (A) B   17 (A) A   20 (A) B     -0.0184
     8 (A) A   8 (A) B    9 (A) A   28 (A) B      0.0168
     6 (A) A             26 (A) A                 0.0163
     7 (A) A             21 (A) A                 0.0149
     3 (A) A             14 (A) A                -0.0139
     6 (A) A             12 (A) A                -0.0133
     3 (A) A   4 (A) B    9 (A) A    9 (A) B      0.0129
     3 (A) A             19 (A) A                -0.0119
     8 (A) A   8 (A) B   18 (A) A   19 (A) B      0.0112
     7 (A) A             32 (A) A                 0.0096
     7 (A) A             36 (A) A                -0.0086
     3 (A) A             23 (A) A                -0.0081
     8 (A) A   8 (A) B   25 (A) A   29 (A) B      0.0076
     6 (A) A             35 (A) A                -0.0072
     6 (A) A             40 (A) A                 0.0068
     3 (A) A   6 (A) B    9 (A) A   28 (A) B      0.0065
     6 (A) A   8 (A) A   19 (A) A   28 (A) A     -0.0061
     5 (A) A   7 (A) B    9 (A) A    9 (A) B     -0.0060
     5 (A) A   8 (A) B   11 (A) A   20 (A) B     -0.0060
     7 (A) A   8 (A) B   13 (A) A   20 (A) B      0.0059
     5 (A) A   8 (A) B   16 (A) A    9 (A) B      0.0059
     5 (A) A   8 (A) B   11 (A) A    9 (A) B     -0.0059
     3 (A) A   5 (A) B    9 (A) A   25 (A) B      0.0058
     3 (A) A             40 (A) A                 0.0057
     7 (A) A   8 (A) B   22 (A) A   20 (A) B     -0.0057
     6 (A) A   8 (A) A    9 (A) A   18 (A) A      0.0057
     8 (A) A   8 (A) B   19 (A) A   30 (A) B      0.0056
    -----------------------------------------------------

  Density matrix analysis:
  ------------------------
  NOs
    Occupation of frontier NOs:
       0.9495   1.0217
    Number of electrons: 16.000000
    Number of unpaired electrons: n_u =  2.31369, n_u,nl =  2.03269
    NO participation ratio (PR_NO):  2.864874
  
  
  Mulliken Population Analysis
  Atom      Charge (e)              h+              e-           Del q
  --------------------------------------------------------------------
   1 H        0.058821        0.020263       -0.012536        0.007727
   2 C       -0.118417        0.490890       -0.506208       -0.015318
   3 H        0.059462        0.020225       -0.012576        0.007650
   4 C       -0.116194        0.490713       -0.506250       -0.015537
   5 H        0.057888        0.020229       -0.012562        0.007667
   6 H        0.058440        0.020322       -0.012511        0.007811
  --------------------------------------------------------------------
  Sum:        0.000000        1.062643       -1.062643        0.000000
  
  Multipole moment analysis of the density matrix
    Molecular charge:                      0.000000
    Number of electrons:                   16.000000
      Center of electronic charge [Ang]: [ -1.560556,  -0.065952,   0.001955]
    Total nuclear charge:                  16.000000
      Center of nuclear charge [Ang]:    [ -1.560576,  -0.065915,   0.001978]
    Dipole moment [D]:                     0.003694
      Cartesian components [D]:          [ -0.001526,   0.002873,   0.001752]
    RMS size of the density [Ang]:         1.214684
      Cartesian components [Ang]:        [  0.804444,   0.787749,   0.455827]
  
  Exciton analysis of the difference density matrix
    <r_h> [Ang]:                  [ -1.560213,  -0.065907,   0.001707]
    <r_e> [Ang]:                  [ -1.560240,  -0.065783,   0.001653]
    |<r_e - r_h>| [Ang]:            0.000138
    Hole size [Ang]:                1.285574
      Cartesian components [Ang]: [  0.728444,   0.712952,   0.783435]
    Electron size [Ang]:            1.463237
      Cartesian components [Ang]: [  0.853987,   0.830631,   0.849601]

  Transition density matrix analysis:
  -----------------------------------
  
  CT numbers (Mulliken)
    omega =     0.9535
    <Phe> =    -0.1606
  
  Exciton analysis of the transition density matrix
    Trans. dipole moment [D]:             1.833915
      Cartesian components [D]:         [  1.328308,  -1.264397,  -0.011878]
    <r_h> [Ang]:                        [ -1.560101,  -0.065897,   0.001765]
    <r_e> [Ang]:                        [ -1.560258,  -0.065802,   0.001610]
    |<r_e - r_h>| [Ang]:                  0.000241
    Hole size [Ang]:                      1.214153
      Cartesian components [Ang]:       [  0.649569,   0.636508,   0.804417]
    Electron size [Ang]:                  1.486093
      Cartesian components [Ang]:       [  0.864435,   0.839524,   0.869727]
    RMS electron-hole separation [Ang]:   1.936689
      Cartesian components [Ang]:       [  1.106729,   1.075152,   1.170454]
    Covariance(r_h, r_e) [Ang^2]:        -0.034061
    Correlation coefficient:             -0.018877
    Center-of-mass size [Ang]:            0.950595
      Cartesian components [Ang]:       [  0.527618,   0.515736,   0.599388]

  Decomposition into state-averaged NTOs
    H- 0 -> L+ 0: -0.6699 ( 89.7%)
    H- 2 -> L+ 5: -0.0836 (  1.4%)
                   omega =  95.3%
  ----------------------------------------------------------------------------


  Excited state 2 (singlet, A)                                     [converged]
  ----------------------------------------------------------------------------
  Term symbol:  3 (1) A                                     R^2 =  3.06320e-13

  Total energy:                                            -77.9872321104 a.u.
  Excitation energy:                                               9.047000 eV

  Osc. strength:                                                      0.000026
  Trans. dip. moment [a.u.]:           [  -0.003876,    0.005118,   -0.008672]
  <i|r^2|0> [a.u.]:                    [   0.040871,    0.087957,   -0.150338]
  Two-photon absorption cross-section (SoS) [a.u.]:                   4.882229
  Two-photon absorption matrix (SoS) [a.u.]:
                                       |    0.051417    0.058415   -0.528967 |
                                       |    0.058415    0.066100   -0.562715 |
                                       |   -0.528967   -0.562715   -0.117523 |
  Two-photon absorption cross-section [a.u.]:                         0.085647
  Two-photon absorption matrix [a.u.]:
                                       |   -0.002654   -0.007249    0.054004 |
                                       |   -0.007249   -0.012746    0.086786 |
                                       |    0.054004    0.086786    0.015514 |

  Dip. moment [a.u.]:                  [   0.007235,    0.011564,    0.002243]
  Total dipole [Debye]:                                               0.035136
  <r^2> [a.u.]:                        [ 174.600248,   34.020251,   13.174857]
  Total <r^2> [a.u.]:                                               221.795357

  V1^2 = 0.9542, V2^2 = 0.0458

  Important amplitudes:
      occ i     occ j     vir a      vir b          v   
    -----------------------------------------------------
     7 (A) A              9 (A) A                 0.6689
     8 (A) A             11 (A) A                -0.1488
     7 (A) A             20 (A) A                -0.0758
     5 (A) A   8 (A) B    9 (A) A    9 (A) B      0.0316
     8 (A) A             16 (A) A                 0.0274
     8 (A) A             21 (A) A                -0.0176
     8 (A) A             10 (A) A                 0.0166
     5 (A) A             28 (A) A                 0.0151
     4 (A) A   7 (A) B    9 (A) A   19 (A) B     -0.0135
     5 (A) A   7 (A) B    9 (A) A   16 (A) B      0.0134
     7 (A) A   8 (A) B   20 (A) A   17 (A) B      0.0105
     7 (A) A   8 (A) A    9 (A) A   28 (A) A      0.0098
     5 (A) A   8 (A) B    9 (A) A   20 (A) B     -0.0095
     4 (A) A   6 (A) B    9 (A) A   16 (A) B      0.0091
     5 (A) A   6 (A) A    9 (A) A   23 (A) A     -0.0091
     5 (A) A   6 (A) A    9 (A) A   14 (A) A     -0.0089
     5 (A) A   6 (A) B    9 (A) A   19 (A) B     -0.0086
     8 (A) A   7 (A) B    9 (A) A   28 (A) B     -0.0085
     4 (A) A   5 (A) A    9 (A) A   10 (A) A      0.0085
     6 (A) A   7 (A) B    9 (A) A   18 (A) B     -0.0083
     5 (A) A   6 (A) B    9 (A) A   23 (A) B     -0.0080
     3 (A) A   7 (A) B    9 (A) A   18 (A) B      0.0080
     5 (A) A   7 (A) A    9 (A) A   16 (A) A      0.0079
     4 (A) A   8 (A) B    9 (A) A   25 (A) B      0.0077
     7 (A) A   8 (A) B   17 (A) A   20 (A) B      0.0074
     4 (A) A   7 (A) B   19 (A) A    9 (A) B     -0.0074
     5 (A) A   5 (A) B    9 (A) A   13 (A) B     -0.0072
     7 (A) A   8 (A) B   19 (A) A   18 (A) B     -0.0072
     5 (A) A   8 (A) A    9 (A) A   20 (A) A     -0.0069
     4 (A) A   5 (A) B    9 (A) A   18 (A) B     -0.0068
     7 (A) A   7 (A) B   20 (A) A   22 (A) B      0.0065
     7 (A) A   8 (A) B   17 (A) A    9 (A) B     -0.0065
     5 (A) A   6 (A) B    9 (A) A   14 (A) B     -0.0063
     4 (A) A   7 (A) A    9 (A) A   19 (A) A     -0.0061
     4 (A) A   5 (A) B   10 (A) A    9 (A) B     -0.0061
     5 (A) A   7 (A) B   11 (A) A   20 (A) B      0.0060
     4 (A) A   7 (A) B    9 (A) A   14 (A) B      0.0060
     4 (A) A   8 (A) A    9 (A) A   25 (A) A      0.0057
     6 (A) A   7 (A) A   19 (A) A   28 (A) A      0.0057
     5 (A) A             38 (A) A                 0.0056
    -----------------------------------------------------

  Density matrix analysis:
  ------------------------
  NOs
    Occupation of frontier NOs:
       0.9571   1.0545
    Number of electrons: 16.000000
    Number of unpaired electrons: n_u =  2.35558, n_u,nl =  2.06340
    NO participation ratio (PR_NO):  3.032805
  
  
  Mulliken Population Analysis
  Atom      Charge (e)              h+              e-           Del q
  --------------------------------------------------------------------
   1 H        0.150393        0.120834       -0.021534        0.099299
   2 C       -0.303450        0.271927       -0.472279       -0.200352
   3 H        0.152855        0.128988       -0.027945        0.101043
   4 C       -0.301493        0.272102       -0.472938       -0.200836
   5 H        0.155345        0.127136       -0.022012        0.105124
   6 H        0.146350        0.122744       -0.027022        0.095721
  --------------------------------------------------------------------
  Sum:        0.000000        1.043730       -1.043730       -0.000000
  
  Multipole moment analysis of the density matrix
    Molecular charge:                      0.000000
    Number of electrons:                   16.000000
      Center of electronic charge [Ang]: [ -1.560816,  -0.066297,   0.001904]
    Total nuclear charge:                  16.000000
      Center of nuclear charge [Ang]:    [ -1.560576,  -0.065915,   0.001978]
    Dipole moment [D]:                     0.035136
      Cartesian components [D]:          [  0.018390,   0.029392,   0.005700]
    RMS size of the density [Ang]:         1.200529
      Cartesian components [Ang]:        [  0.787191,   0.768778,   0.480187]
  
  Exciton analysis of the difference density matrix
    <r_h> [Ang]:                  [ -1.563749,  -0.068699,   0.001733]
    <r_e> [Ang]:                  [ -1.567749,  -0.073862,   0.000891]
    |<r_e - r_h>| [Ang]:            0.006586
    Hole size [Ang]:                1.487086
      Cartesian components [Ang]: [  0.997431,   1.004784,   0.454935]
    Electron size [Ang]:            1.477994
      Cartesian components [Ang]: [  0.880991,   0.861281,   0.816404]

  Transition density matrix analysis:
  -----------------------------------
  
  CT numbers (Mulliken)
    omega =     0.9217
    <Phe> =    -0.0121
  
  Exciton analysis of the transition density matrix
    Trans. dipole moment [D]:             0.013713
      Cartesian components [D]:         [ -0.004926,   0.006504,  -0.011021]
    <r_h> [Ang]:                        [ -1.563909,  -0.068587,   0.001805]
    <r_e> [Ang]:                        [ -1.568034,  -0.074380,   0.000764]
    |<r_e - r_h>| [Ang]:                  0.007188
    Hole size [Ang]:                      1.515730
      Cartesian components [Ang]:       [  1.019823,   1.029387,   0.444702]
    Electron size [Ang]:                  1.474969
      Cartesian components [Ang]:       [  0.871570,   0.850552,   0.832141]
    RMS electron-hole separation [Ang]:   2.095158
      Cartesian components [Ang]:       [  1.325691,   1.320387,   0.942765]
    Covariance(r_h, r_e) [Ang^2]:         0.041667
    Correlation coefficient:              0.018638
    Center-of-mass size [Ang]:            1.067275
      Cartesian components [Ang]:       [  0.678585,   0.675049,   0.472132]

  Decomposition into state-averaged NTOs
    H- 1 -> L+ 0:  0.6613 ( 87.5%)
    H- 0 -> L+ 2:  0.1489 (  4.4%)
                   omega =  92.2%
  ----------------------------------------------------------------------------


  Excited state 3 (singlet, A)                                     [converged]
  ----------------------------------------------------------------------------
  Term symbol:  4 (1) A                                     R^2 =  3.74484e-13

  Total energy:                                            -77.9828298190 a.u.
  Excitation energy:                                               9.166793 eV

  Osc. strength:                                                      0.024982
  Trans. dip. moment [a.u.]:           [   0.015504,    0.019950,   -0.332564]
  <i|r^2|0> [a.u.]:                    [   0.091806,    0.000504,    0.005971]
  Two-photon absorption cross-section (SoS) [a.u.]:                   0.003987
  Two-photon absorption matrix (SoS) [a.u.]:
                                       |    0.016706    0.001887   -0.009963 |
                                       |    0.001887   -0.013337   -0.012463 |
                                       |   -0.009963   -0.012463    0.002511 |
  Two-photon absorption cross-section [a.u.]:                         0.005553
  Two-photon absorption matrix [a.u.]:
                                       |    0.015104    0.001579   -0.018844 |
                                       |    0.001579   -0.007295   -0.013488 |
                                       |   -0.018844   -0.013488   -0.000356 |

  Dip. moment [a.u.]:                  [   0.001673,    0.039933,    0.001734]
  Total dipole [Debye]:                                               0.101685
  <r^2> [a.u.]:                        [ 180.860693,   40.677338,   11.030704]
  Total <r^2> [a.u.]:                                               232.568735

  V1^2 = 0.9587, V2^2 = 0.0413

  Important amplitudes:
      occ i     occ j     vir a      vir b          v   
    -----------------------------------------------------
     8 (A) A             10 (A) A                 0.6888
     8 (A) A             24 (A) A                 0.0507
     8 (A) A             18 (A) A                -0.0314
     4 (A) A              9 (A) A                 0.0239
     8 (A) A   8 (A) B    9 (A) A   12 (A) B     -0.0220
     8 (A) A   8 (A) B   10 (A) A   17 (A) B      0.0173
     7 (A) A              9 (A) A                -0.0172
     8 (A) A             15 (A) A                 0.0168
     5 (A) A   8 (A) B   11 (A) A   10 (A) B      0.0166
     7 (A) A   8 (A) B   13 (A) A   10 (A) B     -0.0141
     4 (A) A   8 (A) B   12 (A) A   10 (A) B     -0.0111
     6 (A) A   8 (A) A   10 (A) A   15 (A) A     -0.0110
     7 (A) A   8 (A) B   22 (A) A   10 (A) B      0.0108
     6 (A) A   8 (A) B   15 (A) A   10 (A) B      0.0108
     4 (A) A   8 (A) A   10 (A) A   12 (A) A      0.0106
     7 (A) A   8 (A) A   10 (A) A   22 (A) A     -0.0099
     7 (A) A   8 (A) A   10 (A) A   13 (A) A      0.0097
     5 (A) A   8 (A) A   10 (A) A   11 (A) A     -0.0094
     5 (A) A   8 (A) B   21 (A) A   10 (A) B      0.0094
     6 (A) A   8 (A) A   10 (A) A   18 (A) A     -0.0088
     6 (A) A   8 (A) B   10 (A) A   10 (A) B     -0.0087
     7 (A) A   8 (A) A   12 (A) A   16 (A) A      0.0082
     5 (A) A   8 (A) A   10 (A) A   21 (A) A     -0.0079
     3 (A) A   4 (A) B   10 (A) A    9 (A) B     -0.0079
     4 (A) A   8 (A) B   19 (A) A   10 (A) B      0.0075
     8 (A) A   8 (A) B    9 (A) A   23 (A) B     -0.0075
     8 (A) A   8 (A) B   10 (A) A   28 (A) B     -0.0073
     3 (A) A   8 (A) B   10 (A) A   10 (A) B      0.0072
     5 (A) A   8 (A) B   10 (A) A   11 (A) B      0.0071
     3 (A) A   8 (A) A   10 (A) A   24 (A) A     -0.0071
     7 (A) A   8 (A) B   16 (A) A   12 (A) B     -0.0071
     3 (A) A   8 (A) B   10 (A) A   18 (A) B     -0.0069
     8 (A) A   8 (A) B    9 (A) A   19 (A) B      0.0068
     6 (A) A   8 (A) B   18 (A) A   10 (A) B      0.0067
     3 (A) A   6 (A) B   10 (A) A   28 (A) B     -0.0062
     7 (A) A   8 (A) B   12 (A) A   11 (A) B      0.0058
     6 (A) A             28 (A) A                 0.0057
     3 (A) A   5 (A) B   10 (A) A   25 (A) B     -0.0056
     5 (A) A   8 (A) A   10 (A) A   16 (A) A      0.0056
     3 (A) A   8 (A) A   10 (A) A   18 (A) A     -0.0055
    -----------------------------------------------------

  Density matrix analysis:
  ------------------------
  NOs
    Occupation of frontier NOs:
       0.9820   0.9844
    Number of electrons: 16.000000
    Number of unpaired electrons: n_u =  2.28675, n_u,nl =  2.02472
    NO participation ratio (PR_NO):  2.695464
  
  
  Mulliken Population Analysis
  Atom      Charge (e)              h+              e-           Del q
  --------------------------------------------------------------------
   1 H       -0.161540        0.054046       -0.266680       -0.212634
   2 C        0.324793        0.539359       -0.111467        0.427891
   3 H       -0.168204        0.053695       -0.273712       -0.220016
   4 C        0.325289        0.535809       -0.109863        0.425946
   5 H       -0.157667        0.054282       -0.262170       -0.207888
   6 H       -0.162671        0.053757       -0.267056       -0.213299
  --------------------------------------------------------------------
  Sum:        0.000000        1.290948       -1.290948        0.000000
  
  Multipole moment analysis of the density matrix
    Molecular charge:                      0.000000
    Number of electrons:                   16.000000
      Center of electronic charge [Ang]: [ -1.560632,  -0.067236,   0.001921]
    Total nuclear charge:                  16.000000
      Center of nuclear charge [Ang]:    [ -1.560576,  -0.065915,   0.001978]
    Dipole moment [D]:                     0.101685
      Cartesian components [D]:          [  0.004253,   0.101500,   0.004408]
    RMS size of the density [Ang]:         1.276821
      Cartesian components [Ang]:        [  0.854291,   0.841074,   0.439378]
  
  Exciton analysis of the difference density matrix
    <r_h> [Ang]:                  [ -1.559180,  -0.067067,   0.001812]
    <r_e> [Ang]:                  [ -1.560134,  -0.082870,   0.001339]
    |<r_e - r_h>| [Ang]:            0.015839
    Hole size [Ang]:                1.410523
      Cartesian components [Ang]: [  0.833984,   0.820431,   0.787996]
    Electron size [Ang]:            2.076074
      Cartesian components [Ang]: [  1.372531,   1.377992,   0.726209]

  Transition density matrix analysis:
  -----------------------------------
  
  CT numbers (Mulliken)
    omega =     0.9258
    <Phe> =    -0.0109
  
  Exciton analysis of the transition density matrix
    Trans. dipole moment [D]:             0.423864
      Cartesian components [D]:         [  0.019703,   0.025354,  -0.422646]
    <r_h> [Ang]:                        [ -1.559081,  -0.065132,   0.001786]
    <r_e> [Ang]:                        [ -1.559870,  -0.088471,   0.001154]
    |<r_e - r_h>| [Ang]:                  0.023361
    Hole size [Ang]:                      1.213106
      Cartesian components [Ang]:       [  0.636802,   0.623769,   0.822814]
    Electron size [Ang]:                  2.295912
      Cartesian components [Ang]:       [  1.516606,   1.525326,   0.802808]
    RMS electron-hole separation [Ang]:   2.586872
      Cartesian components [Ang]:       [  1.637365,   1.641094,   1.147933]
    Covariance(r_h, r_e) [Ang^2]:         0.025741
    Correlation coefficient:              0.009242
    Center-of-mass size [Ang]:            1.303296
      Cartesian components [Ang]:       [  0.826175,   0.827461,   0.575608]

  Decomposition into state-averaged NTOs
    H- 0 -> L+ 1:  0.6795 ( 92.3%)
                   omega =  92.6%
  ----------------------------------------------------------------------------


  Excited state 4 (singlet, A)                                     [converged]
  ----------------------------------------------------------------------------
  Term symbol:  5 (1) A                                     R^2 =  4.72229e-13

  Total energy:                                            -77.9586265650 a.u.
  Excitation energy:                                               9.825397 eV

  Osc. strength:                                                      0.000010
  Trans. dip. moment [a.u.]:           [  -0.001364,    0.002024,   -0.006083]
  <i|r^2|0> [a.u.]:                    [  -0.024560,   -0.018937,    0.036012]
  Two-photon absorption cross-section (SoS) [a.u.]:                 148.200476
  Two-photon absorption matrix (SoS) [a.u.]:
                                       |   -0.283724   -0.322227    2.953298 |
                                       |   -0.322227   -0.363246    3.063277 |
                                       |    2.953298    3.063277    0.647107 |
  Two-photon absorption cross-section [a.u.]:                        90.848645
  Two-photon absorption matrix [a.u.]:
                                       |   -0.222650   -0.252189    2.299937 |
                                       |   -0.252189   -0.284075    2.410223 |
                                       |    2.299937    2.410223    0.506874 |

  Dip. moment [a.u.]:                  [  -0.043951,   -0.028967,   -0.004576]
  Total dipole [Debye]:                                               0.134297
  <r^2> [a.u.]:                        [ 180.832680,   40.776072,   10.767720]
  Total <r^2> [a.u.]:                                               232.376472

  V1^2 = 0.9635, V2^2 = 0.0365

  Important amplitudes:
      occ i     occ j     vir a      vir b          v   
    -----------------------------------------------------
     8 (A) A             11 (A) A                 0.6697
     7 (A) A              9 (A) A                 0.1507
     8 (A) A             21 (A) A                 0.0781
     8 (A) A             16 (A) A                -0.0648
     8 (A) A   8 (A) B    9 (A) A   13 (A) B      0.0167
     5 (A) A   8 (A) B   11 (A) A   11 (A) B      0.0156
     8 (A) A   8 (A) B   11 (A) A   17 (A) B      0.0140
     7 (A) A             20 (A) A                -0.0138
     7 (A) A   8 (A) B   13 (A) A   11 (A) B     -0.0127
     5 (A) A   8 (A) A   11 (A) A   21 (A) A     -0.0110
     4 (A) A   8 (A) B   12 (A) A   11 (A) B     -0.0110
     8 (A) A   8 (A) B    9 (A) A   22 (A) B     -0.0108
     7 (A) A   8 (A) A   11 (A) A   22 (A) A     -0.0096
     6 (A) A   8 (A) B   15 (A) A   11 (A) B      0.0090
     6 (A) A   8 (A) B   10 (A) A   11 (A) B     -0.0090
     7 (A) A   8 (A) B   22 (A) A   11 (A) B      0.0089
     3 (A) A   4 (A) B   11 (A) A    9 (A) B     -0.0083
     3 (A) A   8 (A) B   11 (A) A   18 (A) B     -0.0081
     6 (A) A   8 (A) A   11 (A) A   15 (A) A     -0.0080
     7 (A) A   8 (A) A   13 (A) A   16 (A) A     -0.0078
     7 (A) A   8 (A) A   11 (A) A   13 (A) A      0.0077
     5 (A) A   8 (A) B   21 (A) A   11 (A) B      0.0071
     4 (A) A   8 (A) B   19 (A) A   11 (A) B      0.0070
     5 (A) A   8 (A) B    9 (A) A    9 (A) B      0.0068
     4 (A) A   8 (A) A   11 (A) A   12 (A) A      0.0062
     6 (A) A   8 (A) A   11 (A) A   18 (A) A     -0.0062
     3 (A) A   6 (A) B   11 (A) A   28 (A) B     -0.0060
     6 (A) A   8 (A) B   18 (A) A   11 (A) B      0.0060
     7 (A) A   8 (A) B   16 (A) A   13 (A) B      0.0057
     3 (A) A   8 (A) A   11 (A) A   18 (A) A     -0.0056
     5 (A) A   8 (A) B   10 (A) A   10 (A) B      0.0056
     3 (A) A   8 (A) B   11 (A) A   30 (A) B     -0.0055
     3 (A) A   5 (A) B   11 (A) A   25 (A) B     -0.0055
     6 (A) A   8 (A) B   11 (A) A   10 (A) B     -0.0054
     7 (A) A   8 (A) B   12 (A) A   10 (A) B      0.0054
     8 (A) A   8 (A) B   20 (A) A   22 (A) B      0.0053
     3 (A) A   8 (A) A   11 (A) A   24 (A) A     -0.0053
     5 (A) A   8 (A) A   11 (A) A   16 (A) A      0.0049
     6 (A) A   8 (A) A   10 (A) A   16 (A) A     -0.0048
     8 (A) A             10 (A) A                 0.0045
    -----------------------------------------------------

  Density matrix analysis:
  ------------------------
  NOs
    Occupation of frontier NOs:
       0.9405   1.0280
    Number of electrons: 16.000000
    Number of unpaired electrons: n_u =  2.31943, n_u,nl =  2.04931
    NO participation ratio (PR_NO):  2.916366
  
  
  Mulliken Population Analysis
  Atom      Charge (e)              h+              e-           Del q
  --------------------------------------------------------------------
   1 H       -0.144292        0.046022       -0.241408       -0.195386
   2 C        0.271527        0.497403       -0.122777        0.374626
   3 H       -0.129458        0.046709       -0.227980       -0.181271
   4 C        0.272841        0.496174       -0.122675        0.373499
   5 H       -0.142417        0.046878       -0.239515       -0.192637
   6 H       -0.128202        0.045992       -0.224823       -0.178831
  --------------------------------------------------------------------
  Sum:        0.000000        1.179177       -1.179177        0.000000
  
  Multipole moment analysis of the density matrix
    Molecular charge:                      0.000000
    Number of electrons:                   16.000000
      Center of electronic charge [Ang]: [ -1.559123,  -0.064957,   0.002130]
    Total nuclear charge:                  16.000000
      Center of nuclear charge [Ang]:    [ -1.560576,  -0.065915,   0.001978]
    Dipole moment [D]:                     0.134297
      Cartesian components [D]:          [ -0.111711,  -0.073628,  -0.011632]
    RMS size of the density [Ang]:         1.277464
      Cartesian components [Ang]:        [  0.856756,   0.842279,   0.434108]
  
  Exciton analysis of the difference density matrix
    <r_h> [Ang]:                  [ -1.558957,  -0.065250,   0.001906]
    <r_e> [Ang]:                  [ -1.539527,  -0.051631,   0.004220]
    |<r_e - r_h>| [Ang]:            0.023840
    Hole size [Ang]:                1.394881
      Cartesian components [Ang]: [  0.817970,   0.807316,   0.790479]
    Electron size [Ang]:            2.123235
      Cartesian components [Ang]: [  1.423669,   1.421736,   0.678205]

  Transition density matrix analysis:
  -----------------------------------
  
  CT numbers (Mulliken)
    omega =     0.9297
    <Phe> =    -0.0136
  
  Exciton analysis of the transition density matrix
    Trans. dipole moment [D]:             0.008330
      Cartesian components [D]:         [ -0.001733,   0.002572,  -0.007731]
    <r_h> [Ang]:                        [ -1.560324,  -0.065893,   0.001703]
    <r_e> [Ang]:                        [ -1.535559,  -0.048977,   0.004648]
    |<r_e - r_h>| [Ang]:                  0.030135
    Hole size [Ang]:                      1.228071
      Cartesian components [Ang]:       [  0.658784,   0.649684,   0.807510]
    Electron size [Ang]:                  2.260898
      Cartesian components [Ang]:       [  1.515665,   1.515089,   0.720364]
    RMS electron-hole separation [Ang]:   2.562360
      Cartesian components [Ang]:       [  1.644350,   1.640676,   1.081659]
    Covariance(r_h, r_e) [Ang^2]:         0.027518
    Correlation coefficient:              0.009911
    Center-of-mass size [Ang]:            1.291787
      Cartesian components [Ang]:       [  0.830542,   0.828196,   0.541299]

  Decomposition into state-averaged NTOs
    H- 0 -> L+ 2: -0.6648 ( 88.4%)
    H- 1 -> L+ 0:  0.1487 (  4.4%)
                   omega =  93.0%
  ----------------------------------------------------------------------------


  Excited state 5 (singlet, A)                                     [converged]
  ----------------------------------------------------------------------------
  Term symbol:  6 (1) A                                     R^2 =  2.86345e-13

  Total energy:                                            -77.9445699458 a.u.
  Excitation energy:                                              10.207897 eV

  Osc. strength:                                                      0.000001
  Trans. dip. moment [a.u.]:           [   0.000280,    0.000370,   -0.001643]
  <i|r^2|0> [a.u.]:                    [   0.089409,   -0.102333,    0.014839]
  Two-photon absorption cross-section (SoS) [a.u.]:                 180.921801
  Two-photon absorption matrix (SoS) [a.u.]:
                                       |    0.327748    0.047922   -3.436439 |
                                       |    0.047922   -0.385949    3.267055 |
                                       |   -3.436439    3.267055    0.062821 |
  Two-photon absorption cross-section [a.u.]:                        81.755127
  Two-photon absorption matrix [a.u.]:
                                       |    0.221072    0.032246   -2.301562 |
                                       |    0.032246   -0.258987    2.205045 |
                                       |   -2.301562    2.205045    0.043735 |

  Dip. moment [a.u.]:                  [   0.020113,   -0.016168,    0.000239]
[...]
    16   -1.480372265096e-03
    17   -1.739884557579e-03
    18   -1.950607384937e-04
    19   -3.355317648400e-03
    20    1.143820952375e-02
    21    9.399139090938e-01
    22   -2.688943217134e-04
    23    1.397199726875e-02
    24    8.103880035271e-04
    25    6.988232457124e-02
    26   -5.180082906510e-02
    27   -1.393946541899e+00
    28    9.827715161665e-02
    29   -9.209359064764e-02
    30   -9.772864083008e-04
    31    3.851965708475e-01
    32   -3.598362386077e-01
    33   -3.779090774294e-03
    34    1.555936010734e-02
    35   -1.453360138881e-03
    36   -1.786603425451e-03
    37    7.232478905478e-05
    38   -3.051404072972e-03
    39    9.392253423050e-03
    40    9.240199322979e-01
    41    3.045655078192e-04
    42   -1.385126329688e-02
    43   -8.220722573837e-04
    44    1.043542875631e-02
    45    9.399038943990e-01
    46    1.410121447683e-02
    47    3.644613444972e-04
    48    6.839923380209e-04
Sym=X
Ene= 0.232780
Spin=Alpha
Occup=0
     1    2.548958254609e-02
     2    1.208103855863e+00
     3   -1.397114370362e-02
     4   -3.638113297615e-03
     5   -8.681859521678e-04
     6    8.341007208672e-04
     7   -1.136996040233e-03
     8   -1.568004256036e-02
     9   -1.539312902097e-01
    10   -1.606850120348e-01
    11   -1.667968694386e-02
    12   -5.512995275610e-01
    13   -5.631523728881e-01
    14   -5.892832765136e-02
    15    1.526310543039e-04
    16   -2.186238171978e-05
    17   -1.720947783245e-05
    18   -1.829248927602e-04
    19   -1.419471713182e-04
    20   -2.624182306298e-02
    21   -1.181842936012e+00
    22   -2.682138252010e-03
    23   -1.377333461124e-02
    24   -9.374205175808e-04
    25    2.971249218426e-05
    26    5.657995114964e-04
    27   -9.607287104920e-03
    28   -1.518429319927e-01
    29   -1.607101309459e-01
    30   -1.687511689846e-02
    31   -5.385970097461e-01
    32   -5.626942547627e-01
    33   -5.950596366378e-02
    34    2.198591560910e-04
    35   -2.034024102321e-05
    36   -5.950626809424e-05
    37    1.934238298503e-04
    38   -5.709696426675e-05
    39    2.593247691583e-02
    40    1.191856881574e+00
    41   -2.708801982098e-03
    42   -1.410328936133e-02
    43   -9.767712555444e-04
    44   -2.608381139174e-02
    45   -1.186604130582e+00
    46   -1.366440634718e-02
    47   -3.506090465201e-03
    48   -8.602499396486e-04
Sym=X
Ene= 0.239196
Spin=Alpha
Occup=0
     1   -1.700845179376e-02
     2   -1.081388160157e+00
     3    1.681390209974e-02
     4    9.137045797839e-03
     5    1.347305330761e-03
     6   -8.636876033611e-02
     7    7.981889355145e-02
     8    1.582548208537e+00
     9    5.696159954424e-02
    10   -5.654199997718e-02
    11   -4.790608030487e-04
    12    2.254932584961e-01
    13   -2.194534547245e-01
    14   -1.557259227581e-03
    15   -2.230081367131e-02
    16    2.598203039884e-03
    17    2.916007079687e-03
    18   -4.118774081363e-04
    19    1.280758913870e-02
    20   -1.696858375725e-02
    21   -1.083432003424e+00
    22   -8.456558867142e-03
    23   -1.708889210900e-02
    24   -1.400717721494e-03
    25    8.678493586267e-02
    26   -7.978193754267e-02
    27   -1.600586059071e+00
    28    5.819539363376e-02
    29   -5.658394258187e-02
    30   -8.645562811188e-04
    31    2.300069189305e-01
    32   -2.253773444024e-01
    33   -3.543058831292e-03
    34    2.265820417343e-02
    35   -2.593202145604e-03
    36   -3.014280698564e-03
    37    5.399722572885e-04
    38   -1.283867609779e-02
    39    1.652833495200e-02
    40    1.098740214359e+00
    41   -8.566699740061e-03
    42   -1.747893553297e-02
    43   -1.464051125272e-03
    44    1.604510216080e-02
    45    1.088235436415e+00
    46    1.691583483727e-02
    47    9.360710834110e-03
    48    1.341212170567e-03
Sym=X
Ene= 0.303229
Spin=Alpha
Occup=0
     1   -2.098689380059e-02
     2    1.689668784312e+00
     3   -2.297273136504e-02
     4    1.892552783325e-04
     5   -1.082171466638e-03
     6   -7.116723781123e-05
     7    1.846652134004e-04
     8   -9.505860284306e-03
     9   -1.338070076776e-01
    10   -1.397684687749e-01
    11   -1.454783279750e-02
    12   -1.141274867472e+00
    13   -1.191682703359e+00
    14   -1.244901499933e-01
    15    1.312243144585e-04
    16   -1.684699659906e-03
    17    1.803320817373e-03
    18   -3.260369457276e-02
    19   -1.768939188098e-03
    20    1.937827577763e-02
    21   -1.677582314672e+00
    22    1.443075963903e-03
    23   -2.286716478033e-02
    24   -1.270929957983e-03
    25    3.854792784911e-05
    26    1.060545910934e-04
    27   -5.302825414218e-03
    28    1.348401160803e-01
    29    1.406217337042e-01
    30    1.481475181237e-02
    31    1.141209466527e+00
    32    1.197371194524e+00
    33    1.253877247613e-01
    34    5.167052289272e-05
    35   -1.611826131456e-03
    36    1.907718240458e-03
    37   -3.270381976100e-02
    38   -1.687784117456e-03
    39    1.988621291637e-02
    40   -1.694363442522e+00
    41   -1.608914863891e-03
    42    2.293496651543e-02
    43    1.301504788131e-03
    44   -2.048168910609e-02
    45    1.698674784634e+00
    46    2.306547616905e-02
    47   -3.843819378822e-04
    48    1.065144360204e-03
Sym=X
Ene= 0.462009
Spin=Alpha
Occup=0
     1   -1.153532813147e-01
     2   -7.171312469279e-01
     3   -1.559315027558e-02
     4   -1.032488564499e-02
     5   -1.337814243910e-03
     6    6.094765980509e-02
     7    1.736605112489e-02
     8   -3.598332427773e+00
     9    1.033416775221e-01
    10   -9.915086798309e-02
    11   -9.366571575895e-04
    12    2.428297672101e+00
    13   -2.298304306966e+00
    14   -2.052444778929e-02
    15    5.372295130459e-02
    16   -3.330672324529e-03
    17   -4.637098636147e-03
    18   -5.773179879737e-04
    19    1.823841965514e-02
    20   -1.217327159366e-01
    21   -6.932646773010e-01
    22    8.799827969491e-03
    23    1.634116429930e-02
    24    1.381110469793e-03
    25   -6.095847096499e-02
    26   -1.649876016147e-02
    27    3.592049444825e+00
    28    1.048786279635e-01
    29   -1.000789508813e-01
    30   -1.182028343834e-03
    31    2.422330376257e+00
    32   -2.300311737455e+00
    33   -2.211669753454e-02
    34   -5.273130231692e-02
    35    3.286186081298e-03
    36    4.520323156189e-03
    37    7.188703549498e-04
    38   -1.901858610650e-02
    39    1.154156711732e-01
    40    7.097651908543e-01
    41    8.607447469541e-03
    42    1.622277855136e-02
    43    1.373269941593e-03
    44    1.108768473798e-01
    45    7.163821178618e-01
    46   -1.547928869442e-02
    47   -9.974702027655e-03
    48   -1.340712492130e-03
Sym=X
Ene= 0.577589
Spin=Alpha
Occup=0
     1    2.487884652067e-01
     2    4.268890381198e-02
     3   -1.838931601801e-02
     4    2.559505615360e-02
     5    6.380387701730e-04
     6   -4.642910904253e-03
     7   -1.579871617462e-01
     8   -4.575424650775e-01
     9    2.993736903084e-01
    10   -2.874683837533e-01
    11   -2.865470833534e-03
    12   -7.267972625025e-01
    13    6.940493723332e-01
    14    6.743923239270e-03
    15   -5.856168437448e-03
    16    3.885806534279e-03
    17    3.713344083985e-03
    18   -4.033514167483e-03
    19    6.025304982931e-02
    20    2.524062409842e-01
    21    2.719743714397e-02
    22   -2.705108713954e-02
    23    1.720749733764e-02
    24   -2.671258586586e-04
    25   -5.575245507558e-03
    26   -1.582475590225e-01
    27   -4.143021151731e-01
    28   -2.976930752183e-01
    29    2.856780795900e-01
    30    2.801573103066e-03
    31    7.598167049787e-01
    32   -7.300671151573e-01
    33   -7.586304963119e-03
    34   -5.661478866311e-03
    35    3.853007040071e-03
    36    3.712387701503e-03
    37   -4.294847084179e-03
    38    6.016233316854e-02
    39    2.522887552684e-01
    40    4.793146150968e-02
    41    2.699757216296e-02
    42   -1.685922044291e-02
    43    2.637118429039e-04
    44    2.467627376999e-01
    45    5.676147225797e-02
    46    1.874977860779e-02
    47   -2.599221396491e-02
    48   -6.726976029858e-04
Sym=X
Ene= 0.614837
Spin=Alpha
Occup=0
     1   -5.184214101280e-01
     2    2.017737516115e-01
     3   -6.119123748090e-02
     4    3.790875572440e-02
     5   -6.840203793362e-04
     6   -4.083816235197e-04
     7   -1.437985848308e-03
     8   -1.459294351159e-02
     9   -3.885733873953e-02
    10   -3.795922650646e-02
    11   -4.137092167085e-03
    12    2.992917674722e-01
    13    2.732295388249e-01
    14    3.004616933169e-02
    15    8.051828286965e-04
    16   -7.515220621389e-03
    17    8.370002558469e-03
    18   -1.485271226777e-01
    19   -5.950745790886e-03
    20    5.140640379330e-01
    21   -2.190576537901e-01
    22    4.154644309949e-02
    23   -5.872189000555e-02
    24   -1.500243100292e-03
    25    3.816498743263e-04
    26   -6.103311282553e-04
    27    2.266567297694e-02
    28   -4.065044355253e-02
    29   -3.999372259946e-02
    30   -4.261780390470e-03
    31    3.092871012040e-01
    32    2.868135665563e-01
    33    3.202298569921e-02
    34   -1.654767732164e-03
    35    7.469281532046e-03
    36   -8.484552283738e-03
    37    1.488681157913e-01
    38    6.800186463296e-03
    39   -5.126640021636e-01
    40    2.076972248254e-01
    41    4.105723687888e-02
    42   -5.847309219897e-02
    43   -1.556848635061e-03
    44    5.231075630730e-01
    45   -2.015276925659e-01
    46   -6.131488411818e-02
    47    3.733225495395e-02
    48   -6.387251101389e-04
Sym=X
Ene= 0.689099
Spin=Alpha
Occup=0
     1    3.859833440886e-04
     2    5.584076012716e-05
     3    1.081573405895e-03
     4    1.268275302682e-03
     5   -2.105447356262e-02
     6    2.843999573168e-05
     7    3.821048936165e-04
     8   -1.080116290655e-04
     9    3.149949400792e-02
    10    3.974371286584e-02
    11   -6.705163546311e-01
    12   -2.908403026392e-02
    13   -3.598743098038e-02
    14    6.134219143852e-01
    15   -1.394160235118e-03
    16    8.268586318449e-02
    17   -7.820154202161e-02
    18   -8.613562668129e-03
    19   -1.110366604595e-03
    20    4.476539006985e-04
    21   -2.423084059751e-04
    22    8.864277460084e-04
    23    1.076338005047e-03
    24   -2.008966541773e-02
    25    1.582619435226e-05
    26    5.001843935157e-04
    27   -4.350185907140e-04
    28    3.195188452355e-02
    29    3.985223741979e-02
    30   -6.700334990313e-01
    31   -2.963290041185e-02
    32   -3.623759200547e-02
    33    6.132777842476e-01
    34    1.112831785849e-03
    35   -8.281439665938e-02
    36    7.847143360524e-02
    37    8.526036321705e-03
    38    1.211693650659e-03
    39    2.482607700133e-04
    40   -5.698132422545e-04
    41    1.033355173661e-03
    42    1.391427636053e-03
    43   -2.104481468229e-02
    44    1.800479891644e-04
    45   -2.845886233620e-04
    46    8.866200560293e-04
    47    1.256144292427e-03
    48   -2.104764400851e-02
Sym=X
Ene= 0.708418
Spin=Alpha
Occup=0
     1   -4.808028206827e-01
     2    1.575923673132e-01
     3   -8.116197036322e-02
     4   -4.415167410280e-02
     5   -6.477326540206e-03
     6   -4.820245753496e-02
     7   -3.162310863706e-01
     8    5.073425597520e-01
     9    2.010709657635e-01
    10   -1.937673433974e-01
    11   -2.502362878422e-03
    12   -9.362352907861e-02
    13    9.266062588252e-02
    14    1.439450321626e-03
    15    1.950398529309e-01
    16   -2.052521670991e-02
    17   -2.397412712920e-02
    18    3.046340487610e-03
    19   -7.756384328969e-02
    20   -4.826902866548e-01
    21    1.663492039751e-01
    22    4.108360868807e-02
    23    8.221029343127e-02
    24    6.769481925745e-03
    25   -4.609622288585e-02
    26   -3.216039944851e-01
    27    4.582406223144e-01
    28   -2.044298630141e-01
    29    1.922167518140e-01
    30    1.200858521596e-03
    31    6.149982350852e-02
    32   -4.774926323133e-02
    33    9.436267167821e-04
    34    1.920936252752e-01
    35   -2.024990411689e-02
    36   -2.370563996284e-02
    37    3.152199397219e-03
    38   -7.542245859086e-02
    39   -4.718990304353e-01
    40    1.329964324201e-01
    41   -4.022361851290e-02
    42   -8.063126021795e-02
    43   -6.720855798120e-03
    44   -4.682207581118e-01
    45    1.405163546621e-01
    46    7.935474042507e-02
    47    4.413324767447e-02
    48    6.389622318797e-03
Sym=X
Ene= 0.783809
Spin=Alpha
Occup=0
     1    5.234117323581e-01
     2   -4.593782062223e-01
     3    1.084665937175e-01
     4    2.540140286935e-02
     5    6.633993727801e-03
     6    9.034223747272e-02
     7   -2.220918877907e-01
     8   -6.301345435312e-01
     9    1.156663721913e-01
    10   -1.011765189462e-01
    11    3.794492495625e-04
    12    3.069239504525e-01
    13   -3.086219906918e-01
    14   -5.443188314083e-03
    15   -2.041460290445e-01
    16    1.725516787567e-02
    17    2.145608430044e-02
    18   -2.238873693220e-03
    19    8.824674605691e-03
    20    5.347011101493e-01
    21   -4.858577845610e-01
    22   -2.040611724517e-02
    23   -1.123046821412e-01
    24   -7.574135085711e-03
    25   -9.165376281806e-02
    26    2.088480373894e-01
    27    6.621791882605e-01
    28    1.099244146101e-01
    29   -1.033405233765e-01
    30   -1.719317559356e-03
    31    3.107627749316e-01
    32   -2.903741401779e-01
    33   -8.066974700243e-04
    34    2.090314115647e-01
    35   -1.768634485205e-02
    36   -2.243647592244e-02
    37    1.827448080881e-03
    38   -9.626013618620e-03
    39   -5.422938221444e-01
    40    4.680943137870e-01
    41   -2.130746444063e-02
    42   -1.131629787684e-01
    43   -7.781382811739e-03
    44   -5.369964259053e-01
    45    4.658094517451e-01
    46    1.106597864459e-01
    47    2.663415850658e-02
    48    6.833961993681e-03
Sym=X
Ene= 0.807935
Spin=Alpha
Occup=0
     1    5.365324416848e-04
     2   -1.007296265362e-03
     3    1.811783120855e-03
     4    2.019253848839e-03
     5   -3.389020818621e-02
     6    1.060689040148e-04
     7   -3.180700203828e-04
     8   -9.710114271851e-05
     9    3.624151713154e-02
    10    4.468977511430e-02
    11   -7.631683308465e-01
    12   -5.283224432912e-02
    13   -6.652488347793e-02
    14    1.126703079902e+00
    15    6.921165408913e-04
    16   -6.526694089893e-02
    17    6.189759943327e-02
    18    6.869399360840e-03
    19    8.606663461460e-04
    20    5.342755142720e-04
    21   -2.542908255936e-04
    22    1.641926975595e-03
    23    1.856623457533e-03
    24   -3.352597980423e-02
    25   -9.814209996457e-05
    26    1.125843041442e-04
    27    2.315604216971e-04
    28   -3.608010513824e-02
    29   -4.587873665130e-02
    30    7.632967765274e-01
    31    5.398007753830e-02
    32    6.716496219749e-02
    33   -1.126974299771e+00
    34    1.309259703284e-03
    35   -6.532096894568e-02
    36    6.180279209648e-02
    37    6.658010601522e-03
    38    9.911416420236e-04
    39   -5.350940267453e-04
    40    2.876758016770e-04
    41   -1.552637825146e-03
    42   -2.213152814620e-03
    43    3.425896970357e-02
    44   -5.430850963115e-04
    45    1.064377101342e-03
    46   -1.343651098113e-03
    47   -2.009797672041e-03
    48    3.377219296944e-02
Sym=X
Ene= 0.861917
Spin=Alpha
Occup=0
     1    1.803447052434e-02
     2   -1.099570674890e+00
     3    1.498108310302e-01
     4    5.643537161492e-02
     5    1.042246433987e-02
     6    9.739954982281e-04
     7    2.779014037662e-03
     8    3.669709810364e-04
     9   -4.077828800258e-01
    10   -4.348867635927e-01
    11   -4.468521156570e-02
    12    9.491978790504e-01
    13    1.005945262011e+00
    14    1.036767852587e-01
    15   -3.269250570903e-03
    16    1.193566598179e-02
    17   -1.319724762989e-02
    18    2.351108065104e-01
    19    9.310744164857e-03
    20   -1.257850988100e-02
    21    1.103420752676e+00
    22    5.047632478854e-02
    23    1.512534119484e-01
    24    1.132374909695e-02
    25   -5.771166115076e-04
    26    5.497283370435e-03
    27   -6.982060046082e-03
    28   -4.025231348031e-01
    29   -4.282791494149e-01
    30   -4.491301757898e-02
    31    9.406069849223e-01
    32    9.968079557298e-01
    33    1.046745458476e-01
    34    1.413658866015e-03
    35   -1.177159242540e-02
    36    1.343603286544e-02
    37   -2.353874591192e-01
    38   -9.472559296053e-03
    39    8.024364971419e-03
    40   -1.093669743127e+00
    41    4.922115196720e-02
    42    1.498069331813e-01
    43    1.131447495532e-02
    44   -1.159414209496e-02
    45    1.091308201802e+00
    46    1.482420674820e-01
    47    5.574475699440e-02
    48    1.029908346177e-02
Sym=X
Ene= 0.935270
Spin=Alpha
Occup=0
     1   -1.168208144875e-01
     2    1.256031463061e+00
     3   -1.794078193158e-01
     4    6.663642259332e-03
     5   -8.131336409520e-03
     6   -9.885487404107e-04
     7   -1.313093440304e-02
     8    5.781138466712e-03
     9    4.639654731787e-01
    10    5.040382530861e-01
    11    5.174075285371e-02
    12   -1.435194015051e+00
    13   -1.544502374320e+00
    14   -1.592165100481e-01
    15    2.320147002343e-03
    16   -5.818858514262e-03
    17    6.637553505366e-03
    18   -1.184996784859e-01
    19    7.436256330025e-04
    20    1.172059750906e-01
    21   -1.284291625781e+00
    22    1.063046041381e-02
    23   -1.825722985891e-01
    24   -1.021154920178e-02
    25    5.894008482583e-04
    26   -7.935947145987e-03
    27    2.227592728999e-02
    28   -4.815637447678e-01
    29   -4.946968260751e-01
    30   -5.230445914123e-02
    31    1.481246766472e+00
    32    1.520449796730e+00
    33    1.607803095308e-01
    34   -1.785190957963e-03
    35   -6.075160672009e-03
    36    7.306577146563e-03
    37   -1.229406603102e-01
    38   -7.598457210877e-03
    39    1.201880944380e-01
    40   -1.283403601703e+00
    41   -1.396659016582e-02
    42    1.835044544322e-01
    43    1.032099629176e-02
    44   -1.166570647055e-01
    45    1.292205238942e+00
    46    1.825661623288e-01
    47   -4.663582961787e-03
    48    8.364770525142e-03
Sym=X
Ene= 0.972272
Spin=Alpha
Occup=0
     1   -6.467761077183e-02
     2    9.508286941828e-01
     3   -9.427080192062e-02
     4   -9.892877778680e-02
     5   -1.036030305197e-02
     6    2.564922164068e-02
     7    2.620160315651e-01
     8    5.031406451455e-01
     9    4.890815272725e-01
    10   -4.495204624400e-01
    11   -3.216881222820e-03
    12   -1.519448767090e+00
    13    1.384571628072e+00
    14    9.342511491474e-03
    15   -5.485877260415e-02
    16   -1.294776843773e-02
    17   -9.424453852276e-03
    18    1.086709547804e-02
    19   -3.021998538715e-01
    20   -6.206408760011e-02
    21    8.905884187667e-01
    22    9.519578082173e-02
    23    9.075232699059e-02
    24    9.848197714514e-03
    25   -2.524271646943e-02
    26   -2.293664754102e-01
    27   -5.572666453373e-01
    28    4.721411358217e-01
    29   -4.590244983436e-01
    30   -5.234465019148e-03
    31   -1.461429386184e+00
    32    1.429707171226e+00
    33    1.656402003095e-02
    34    5.299957412526e-02
    35    1.262155692695e-02
    36    9.679194326258e-03
    37   -1.477338770949e-02
    38    2.980890745674e-01
    39    6.148310570243e-02
    40   -9.159180259959e-01
    41    9.361961292923e-02
    42    9.342920492846e-02
    43    1.008195082331e-02
    44    6.464972865111e-02
    45   -8.898284667145e-01
    46   -8.600448478749e-02
    47   -9.741738085184e-02
    48   -9.770032874078e-03
[5D]

======= END OF MOLDEN-FORMATTED INPUT FILE =======


        *************************************************************
        *                                                           *
        *  Thank you very much for using Q-Chem.  Have a nice day.  *
        *                                                           *
        *************************************************************


