                  Welcome to Q-Chem
     A Quantum Leap Into The Future Of Chemistry


 Q-Chem 5.4 (devel), Q-Chem, Inc., Pleasanton, CA (2021)

 E. Epifanovsky,  A. T. B. Gilbert,  Xintian Feng,  Joonho Lee,  Yuezhi Mao,  
 N. Mardirossian,  P. Pokhilko,  A. White,  M. Wormit,  M. P. Coons,  
 A. L. Dempwolff,  Zhengting Gan,  D. Hait,  P. R. Horn,  L. D. Jacobson,  
 I. Kaliman,  J. Kussmann,  A. W. Lange,  Ka Un Lao,  D. S. Levine,  Jie Liu,  
 S. C. McKenzie,  A. F. Morrison,  K. Nanda,  F. Plasser,  D. R. Rehn,  
 M. L. Vidal,  Zhi-Qiang You,  Ying Zhu,  B. Alam,  B. Albrecht,  
 A. Aldossary,  E. Alguire,  J. H. Andersen,  D. Barton,  K. Begam,  A. Behn,  
 Y. A. Bernard,  E. J. Berquist,  H. Burton,  A. Carreras,  K. Carter-Fenk,  
 R. Chakraborty,  A. D. Chien,  K. D. Closser,  V. Cofer-Shabica,  
 S. Dasgupta,  Jia Deng,  M. de Wergifosse,  M. Diedenhofen,  Hainam Do,  
 S. Ehlert,  Po-Tung Fang,  S. Fatehi,  Qingguo Feng,  T. Friedhoff,  
 J. Gayvert,  Qinghui Ge,  G. Gidofalvi,  M. Goldey,  J. Gomes,  
 C. Gonzalez-Espinoza,  S. Gulania,  A. Gunina,  M. W. D. Hanson-Heine,  
 P. H. P. Harbach,  A. W. Hauser,  M. F. Herbst,  M. Hernandez Vera,  
 M. Hodecker,  Z. C. Holden,  S. Houck,  Xunkun Huang,  Kerwin Hui,  
 B. C. Huynh,  M. Ivanov,  Hyunjun Ji,  Hanjie Jiang,  B. Kaduk,  S. Kaehler,  
 K. Khistyaev,  Jaehoon Kim,  P. Klunzinger,  Z. Koczor-Benda,  
 Joong Hoon Koh,  D. Kosenkov,  L. Koulias,  T. Kowalczyk,  C. M. Krauter,  
 K. Kue,  A. Kunitsa,  T. Kus,  A. Landau,  K. V. Lawler,  D. Lefrancois,  
 S. Lehtola,  Rain Li,  Yi-Pei Li,  Jiashu Liang,  M. Liebenthal,  
 Hung-Hsuan Lin,  You-Sheng Lin,  Fenglai Liu,  Kuan-Yu Liu,  
 M. Loipersberger,  A. Luenser,  A. Manjanath,  P. Manohar,  E. Mansoor,  
 S. F. Manzer,  Shan-Ping Mao,  A. V. Marenich,  T. Markovich,  S. Mason,  
 S. A. Maurer,  P. F. McLaughlin,  M. F. S. J. Menger,  J.-M. Mewes,  
 S. A. Mewes,  P. Morgante,  J. W. Mullinax,  K. J. Oosterbaan,  G. Paran,  
 Alexander C. Paul,  Suranjan K. Paul,  F. Pavosevic,  Zheng Pei,  S. Prager,  
 E. I. Proynov,  E. Ramos,  B. Rana,  A. E. Rask,  A. Rettig,  R. M. Richard,  
 F. Rob,  E. Rossomme,  T. Scheele,  M. Scheurer,  M. Schneider,  
 N. Sergueev,  S. M. Sharada,  W. Skomorowski,  D. W. Small,  C. J. Stein,  
 Yu-Chuan Su,  E. J. Sundstrom,  Zhen Tao,  J. Thirman,  T. Tsuchimochi,  
 N. M. Tubman,  S. P. Veccham,  O. Vydrov,  J. Wenzel,  J. Witte,  A. Yamada,  
 Kun Yao,  S. Yeganeh,  S. R. Yost,  A. Zech,  Igor Ying Zhang,  Xing Zhang,  
 Yu Zhang,  D. Zuev,  A. Aspuru-Guzik,  A. T. Bell,  N. A. Besley,  
 K. B. Bravaya,  B. R. Brooks,  D. Casanova,  Jeng-Da Chai,  S. Coriani,  
 C. J. Cramer,  A. E. DePrince, III,  R. A. DiStasio Jr.,  A. Dreuw,  
 B. D. Dunietz,  T. R. Furlani,  W. A. Goddard III,  S. Grimme,  
 S. Hammes-Schiffer,  T. Head-Gordon,  W. J. Hehre,  Chao-Ping Hsu,  
 T.-C. Jagau,  Yousung Jung,  A. Klamt,  Jing Kong,  D. S. Lambrecht,  
 WanZhen Liang,  N. J. Mayhall,  C. W. McCurdy,  J. B. Neaton,  
 C. Ochsenfeld,  J. A. Parkhill,  R. Peverati,  V. A. Rassolov,  Yihan Shao,  
 L. V. Slipchenko,  T. Stauch,  R. P. Steele,  J. E. Subotnik,  
 A. J. W. Thom,  A. Tkatchenko,  D. G. Truhlar,  T. Van Voorhis,  
 T. A. Wesolowski,  K. B. Whaley,  H. L. Woodcock III,  P. M. Zimmerman,  
 S. Faraji,  P. M. W. Gill,  M. Head-Gordon,  J. M. Herbert,  A. I. Krylov

 Additional authors for Version 5.4.1: 
 S. Kotaru,  Shaozhi Li,  Xiangyuan Li,  F. Matz,  A. Molle,  Haisheng Ren,  
 Yingli Su,  Hung-Yi Tsai,  C. Utku,  Fang Wang

 Contributors to earlier versions of Q-Chem not listed above: 
 R. D. Adamson,  B. Austin,  R. Baer,  J. Baker,  G. J. O. Beran,  
 K. Brandhorst,  S. T. Brown,  E. F. C. Byrd,  A. K. Chakraborty,  
 G. K. L. Chan,  Chun-Min Chang,  Yunqing Chen,  C.-L. Cheng,  
 Siu Hung Chien,  D. M. Chipman,  D. L. Crittenden,  H. Dachsel,  
 R. J. Doerksen,  A. D. Dutoi,  R. G. Edgar,  J. Fosso-Tande,  
 L. Fusti-Molnar,  D. Ghosh,  A. Ghysels,  A. Golubeva-Zadorozhnaya,  
 J. Gonthier,  M. S. Gordon,  S. R. Gwaltney,  G. Hawkins,  J. E. Herr,  
 A. Heyden,  S. Hirata,  E. G. Hohenstein,  G. Kedziora,  F. J. Keil,  
 C. Kelley,  Jihan Kim,  R. A. King,  R. Z. Khaliullin,  P. P. Korambath,  
 W. Kurlancheek,  A. Laurent,  A. M. Lee,  M. S. Lee,  S. V. Levchenko,  
 Ching Yeh Lin,  D. Liotard,  E. Livshits,  R. C. Lochan,  I. Lotan,  
 L. A. Martinez-Martinez,  P. E. Maslen,  N. Nair,  D. P. O'Neill,  
 D. Neuhauser,  E. Neuscamman,  C. M. Oana,  R. Olivares-Amaya,  R. Olson,  
 T. M. Perrine,  B. Peters,  P. A. Pieniazek,  A. Prociuk,  Y. M. Rhee,  
 J. Ritchie,  M. A. Rohrdanz,  E. Rosta,  N. J. Russ,  H. F. Schaefer III,  
 M. W. Schmidt,  N. E. Schultz,  S. Sharma,  N. Shenvi,  C. D. Sherrill,  
 A. C. Simmonett,  A. Sodt,  T. Stein,  D. Stuck,  K. S. Thanthiriwatte,  
 V. Vanovschi,  L. Vogt,  Tao Wang,  A. Warshel,  M. A. Watson,  
 C. F. Williams,  Q. Wu,  X. Xu,  Jun Yang,  W. Zhang,  Yan Zhao

 Please cite Q-Chem as follows:
 Y. Shao et al., Mol. Phys. 113, 184-215 (2015)
 DOI: 10.1080/00268976.2014.952696

 Q-Chem 5.4.1 for Intel X86 EM64T Linux

 Parts of Q-Chem use Armadillo 9.800.1 (Horizon Scraper).
 http://arma.sourceforge.net/

 Q-Chem begins on Thu Nov 17 00:22:07 2022  

 Host: cpu316.baobab
0

     Scratch files written to /scratch/fum/qchem15130//
 Processing $rem in /home/share/wesolowski/qc5.aug2021.FDE/config/preferences:
 Processing $rem in /home/fum/.qchemrc:

 Checking the input file for inconsistencies... 	...done.

--------------------------------------------------------------
User input:
--------------------------------------------------------------
$comment
generated from CCJob.Templates
$end

$rem
sym_ignore = true
method = adc(2)
ee_states = 10
basis = cc-pVDZ
mem_static = 1024
mem_total = 30000
adc_davidson_maxiter = 900
adc_davidson_conv = 6
adc_print = 3
adc_prop_es = true
adc_prop_es2es = true
adc_prop_tpa = true
molden_format = True
state_analysis = true
print_orbitals = 15
gen_scfman = false
fde_export_density = true
fde_details = 3
$end

$molecule
0 1
H -0.0348278765 -0.2442097827 0.0636489606
C -1.0765972949 -0.5242748755 -0.0023551776
H -1.313264467 -1.5767591607 -0.0757276926
C -2.038634118 0.3926884087 0.0061254933
H -1.8137616575 1.4459188338 0.0804456828
H -3.085977293 0.114931858 -0.0593381042                     
$end
--------------------------------------------------------------
 ----------------------------------------------------------------
             Standard Nuclear Orientation (Angstroms)
    I     Atom           X                Y                Z
 ----------------------------------------------------------------
    1      H      -0.0348278765    -0.2442097827     0.0636489606
    2      C      -1.0765972949    -0.5242748755    -0.0023551776
    3      H      -1.3132644670    -1.5767591607    -0.0757276926
    4      C      -2.0386341180     0.3926884087     0.0061254933
    5      H      -1.8137616575     1.4459188338     0.0804456828
    6      H      -3.0859772930     0.1149318580    -0.0593381042
 ----------------------------------------------------------------
 Nuclear Repulsion Energy =          33.45709295 hartrees
 There are        8 alpha and        8 beta electrons
 Requested basis set is cc-pVDZ
 There are 24 shells and 48 basis functions
 Total memory of 30000 MB is distributed as follows: 
   MEM_STATIC is set to 1024 MB
   QALLOC/CCMAN JOB total memory use is  28976 MB
 Warning: actual memory use might exceed 30000 MB

 Total QAlloc Memory Limit  30000 MB
 Mega-Array Size      1001 MB
 MEM_STATIC part      1024 MB

                       Distance Matrix (Angstroms)
             H (  1)   C (  2)   H (  3)   C (  4)   H (  5)
   C (  2)  1.080776
   H (  3)  1.851895  1.081258
   C (  4)  2.103375  1.329063  2.100377
   H (  5)  2.453859  2.105215  3.067812  1.079530
   H (  6)  3.074674  2.109370  2.450428  1.085524  1.846510

 A cutoff of  1.0D-11 yielded    300 shell pairs
 There are      1220 function pairs (      1329 Cartesian)
 Smallest overlap matrix eigenvalue = 4.74E-03

 Scale SEOQF with 1.000000e-01/1.000000e-01/1.000000e+00

 Standard Electronic Orientation quadrupole field applied
 Nucleus-field energy     =     0.0000000022 hartrees
 Guess from superposition of atomic densities
 Warning:  Energy on first SCF cycle will be non-variational
 SAD guess density has 16.000000 electrons
 A restricted Hartree-Fock SCF calculation will be
 performed using Pulay DIIS extrapolation
 SCF converges when DIIS error is below 1.0E-08
 using 8 threads for integral computing
 -------------------------------------------------------
 OpenMP Integral computing Module                
 Release: version 1.0, May 2013, Q-Chem Inc. Pittsburgh 
 -------------------------------------------------------
 ---------------------------------------
  Cycle       Energy         DIIS Error
 ---------------------------------------
    1     -78.4434509032      1.01E-01
    2     -78.0177516692      7.23E-03
    3     -78.0384104126      1.85E-03
    4     -78.0398976630      5.79E-04
    5     -78.0400216941      5.79E-05
    6     -78.0400235699      9.21E-06
    7     -78.0400236301      1.94E-06
    8     -78.0400236329      1.74E-07
    9     -78.0400236329      2.46E-08
   10     -78.0400236329      1.46E-08
   11     -78.0400236329      4.38E-09 Convergence criterion met
 ---------------------------------------
 SCF time:  CPU 2.36 s  wall 2.39 s
 SCF   energy in the final basis set = -78.04002363
 Total energy in the final basis set = -78.04002363
Exporting Density Matrix to file 'Densmat_SCF.txt'.
Export successful
================================================================================
|                                                                              |
|                                 A D C  M A N                                 |
|                                                                              |
 ------------------------------------------------------------------------------ 
|                                                                              |
| Components:                                                                  |
|                                                                              |
| - libvmm - 1.3-trunk                                                         |
|   Authors:                                                                   |
|   Evgeny Epifanovsky, Ilya Kaliman                                           |
|                                                                              |
| - libtensor - 2.5-trunk                                                      |
|   Authors:                                                                   |
|   Evgeny Epifanovsky, Michael Wormit, Dmitry Zuev, Sam Manzer,               |
|   Ilya Kaliman                                                               |
|                                                                              |
| - libwfa - 1.1-trunk                                                         |
|   Authors:                                                                   |
|   Felix Plasser, Stefanie Mewes (Baeppler), Benjamin Thomitzni,              |
|   Michael Wormit, Feng Chen, Anna I. Krylov, Pavel Pokhilko                  |
|                                                                              |
| - libadc - 1.1-trunk                                                         |
|   Authors:                                                                   |
|   Michael Wormit, Adrian L. Dempwolff, Philipp H. P. Harbach,                |
|   Caroline Krauter, Dirk Rehn, Matthias Schneider, Jan Wenzel                |
|                                                                              |
| - adcman - 2.6-trunk                                                         |
|   Authors:                                                                   |
|   Michael Wormit, Adrian L. Dempwolff, Philipp H. P. Harbach,                |
|   Caroline Krauter, Daniel Lefrancois, Jan-Michael Mewes, Dirk Rehn,         |
|   Matthias Schneider, Jan Wenzel, Andreas Dreuw                              |
|                                                                              |
| Authors of earlier versions of ADCMAN:                                       |
| Andreas Dreuw, Jan Hendrik Starcke, Dirk Rehn, Michael Wormit                |
|                                                                              |
================================================================================

 Created directory /scratch/fum/qchem15130/plots
  Import QC data ...  CPU 0.00 s  wall 0.00 s

 Alpha MOs, Restricted
 -- Occupied --                  
-11.235 -11.233  -1.033  -0.789  -0.641  -0.583  -0.504  -0.375
  1 A     2 A     3 A     4 A     5 A     6 A     7 A     8 A                  
 -- Virtual --                   
  0.169   0.204   0.233   0.239   0.303   0.463   0.577   0.615
  9 A    10 A    11 A    12 A    13 A    14 A    15 A    16 A                  
  0.688   0.709   0.785   0.808   0.861   0.936   0.974   1.009
 17 A    18 A    19 A    20 A    21 A    22 A    23 A    24 A                  
  1.130   1.236   1.254   1.267   1.294   1.600   1.727   1.751
 25 A    26 A    27 A    28 A    29 A    30 A    31 A    32 A                  
  1.820   1.860   1.868   1.921   1.975   1.979   2.224   2.260
 33 A    34 A    35 A    36 A    37 A    38 A    39 A    40 A                  
  2.376   2.453   2.507   2.637   2.717   2.822   3.139   3.402
 41 A    42 A    43 A    44 A    45 A    46 A    47 A    48 A                  

 Beta MOs, Restricted
 -- Occupied --                  
-11.235 -11.233  -1.033  -0.789  -0.641  -0.583  -0.504  -0.375
  1 A     2 A     3 A     4 A     5 A     6 A     7 A     8 A                  
 -- Virtual --                   
  0.169   0.204   0.233   0.239   0.303   0.463   0.577   0.615
  9 A    10 A    11 A    12 A    13 A    14 A    15 A    16 A                  
  0.688   0.709   0.785   0.808   0.861   0.936   0.974   1.009
 17 A    18 A    19 A    20 A    21 A    22 A    23 A    24 A                  
  1.130   1.236   1.254   1.267   1.294   1.600   1.727   1.751
 25 A    26 A    27 A    28 A    29 A    30 A    31 A    32 A                  
  1.820   1.860   1.868   1.921   1.975   1.979   2.224   2.260
 33 A    34 A    35 A    36 A    37 A    38 A    39 A    40 A                  
  2.376   2.453   2.507   2.637   2.717   2.822   3.139   3.402
 41 A    42 A    43 A    44 A    45 A    46 A    47 A    48 A                  
  Import AO data ...  CPU 0.00 s  wall 0.00 s
  Using point group: C1
  Irreducible representations in point group: A
  Molecular orbitals: 
  Occupied MOs:
  Block   0:   1 (  A) A   2 (  A) A   3 (  A) A   4 (  A) A   5 (  A) A
                  -11.23      -11.23      -1.033     -0.7892      -0.641
               6 (  A) A   7 (  A) A   8 (  A) A
                 -0.5827     -0.5035     -0.3749
  Block   1:   1 (  A) B   2 (  A) B   3 (  A) B   4 (  A) B   5 (  A) B
                  -11.23      -11.23      -1.033     -0.7892      -0.641
               6 (  A) B   7 (  A) B   8 (  A) B
                 -0.5827     -0.5035     -0.3749
  Virtual MOs:
  Block   0:   9 (  A) A  10 (  A) A  11 (  A) A  12 (  A) A  13 (  A) A
                  0.1692      0.2037      0.2327      0.2393      0.3035
              14 (  A) A  15 (  A) A  16 (  A) A  17 (  A) A  18 (  A) A
                  0.4629       0.577       0.615      0.6884      0.7086
              19 (  A) A  20 (  A) A  21 (  A) A  22 (  A) A
                  0.7853      0.8083      0.8615       0.936
  Block   1:  23 (  A) A  24 (  A) A  25 (  A) A  26 (  A) A  27 (  A) A
                  0.9743       1.009        1.13       1.236       1.254
              28 (  A) A  29 (  A) A  30 (  A) A  31 (  A) A  32 (  A) A
                   1.267       1.294         1.6       1.727       1.751
              33 (  A) A  34 (  A) A  35 (  A) A  36 (  A) A
                    1.82        1.86       1.868       1.921
  Block   2:  37 (  A) A  38 (  A) A  39 (  A) A  40 (  A) A  41 (  A) A
                   1.975       1.979       2.224        2.26       2.376
              42 (  A) A  43 (  A) A  44 (  A) A  45 (  A) A  46 (  A) A
                   2.453       2.507       2.637       2.717       2.822
              47 (  A) A  48 (  A) A
                   3.139       3.402
  Block   3:   9 (  A) B  10 (  A) B  11 (  A) B  12 (  A) B  13 (  A) B
                  0.1692      0.2037      0.2327      0.2393      0.3035
              14 (  A) B  15 (  A) B  16 (  A) B  17 (  A) B  18 (  A) B
                  0.4629       0.577       0.615      0.6884      0.7086
              19 (  A) B  20 (  A) B  21 (  A) B  22 (  A) B
                  0.7853      0.8083      0.8615       0.936
  Block   4:  23 (  A) B  24 (  A) B  25 (  A) B  26 (  A) B  27 (  A) B
                  0.9743       1.009        1.13       1.236       1.254
              28 (  A) B  29 (  A) B  30 (  A) B  31 (  A) B  32 (  A) B
                   1.267       1.294         1.6       1.727       1.751
              33 (  A) B  34 (  A) B  35 (  A) B  36 (  A) B
                    1.82        1.86       1.868       1.921
  Block   5:  37 (  A) B  38 (  A) B  39 (  A) B  40 (  A) B  41 (  A) B
                   1.975       1.979       2.224        2.26       2.376
              42 (  A) B  43 (  A) B  44 (  A) B  45 (  A) B  46 (  A) B
                   2.453       2.507       2.637       2.717       2.822
              47 (  A) B  48 (  A) B
                   3.139       3.402
  Import MO data ...  CPU 0.00 s  wall 0.00 s
  Import HF data ...  CPU 1.04 s  wall 0.39 s
  Import 2e integrals ...  CPU 2.51 s  wall 0.50 s

--------------------------------------------------------------------------------
                                   HF Summary                                   
--------------------------------------------------------------------------------
  Energy:                                                  -78.0400236329 a.u.
  Dip. moment [a.u.]:                  [  -0.000218,    0.001329,    0.000654]
  Total dipole [Debye]:                                               0.003804
  <r^2> [a.u.]:                        [ 174.899245,   34.909968,   11.618696]
  Total <r^2> [a.u.]:                                               221.427909
--------------------------------------------------------------------------------
  HF properties ...  CPU 0.01 s  wall 0.01 s
  MP(1) calculation ...  CPU 0.01 s  wall 0.00 s
  N^6 prerequesite intermediates ...  CPU 0.35 s  wall 0.07 s
  Difference density matrix of state mp2_gs printed to ASCII file 'State_mp2_gs_Difference.txt'
Exporting MP density matrix to file 'Densmat_MP.txt'.
Export successful
  Total density matrix of state mp2_gs printed to ASCII file 'State_mp2_gs_Total.txt'
Exporting MP density matrix to file 'Densmat_MP.txt'.
Export successful

--------------------------------------------------------------------------------
                                 MP(2) Summary                                  
--------------------------------------------------------------------------------
  MP energy contribution:                                   -0.2795462834 a.u.
  Total energy:                                            -78.3195699163 a.u.
  Dip. moment [a.u.]:                  [  -0.000309,    0.001069,    0.000626]
  Total dipole [Debye]:                                               0.003247
  <r^2> [a.u.]:                        [ 174.944472,   34.951951,   11.452737]
  Total <r^2> [a.u.]:                                               221.349160

  Density matrix analysis:
  ------------------------
  NOs
    Occupation of frontier NOs:
       0.0450   1.9385
    Number of electrons: 16.000000
    Number of unpaired electrons: n_u =  0.40274, n_u,nl =  0.04483
    NO participation ratio (PR_NO): 13.890987
  
  
  Mulliken Population Analysis
  Atom      Charge (e)              h+              e-           Del q
  --------------------------------------------------------------------
   1 H        0.050585        0.014045       -0.011193        0.002852
   2 C       -0.099079        0.092865       -0.098483       -0.005618
   3 H        0.050468        0.014059       -0.011190        0.002870
   4 C       -0.102832        0.092799       -0.098706       -0.005908
   5 H        0.049760        0.014131       -0.011189        0.002942
   6 H        0.051098        0.014059       -0.011197        0.002862
  --------------------------------------------------------------------
  Sum:        0.000000        0.241958       -0.241958       -0.000000
  
  Multipole moment analysis of the density matrix
    Molecular charge:                      0.000000
    Number of electrons:                   16.000000
      Center of electronic charge [Ang]: [ -1.558691,  -0.065638,   0.001957]
    Total nuclear charge:                  16.000000
      Center of nuclear charge [Ang]:    [ -1.558701,  -0.065602,   0.001978]
    Dipole moment [D]:                     0.003247
      Cartesian components [D]:          [ -0.000786,   0.002718,   0.001592]
    RMS size of the density [Ang]:         1.200073
      Cartesian components [Ang]:        [  0.795187,   0.779367,   0.447705]
  
  Exciton analysis of the difference density matrix
    <r_h> [Ang]:                  [ -1.559209,  -0.065961,   0.001820]
    <r_e> [Ang]:                  [ -1.559010,  -0.065394,   0.001880]
    |<r_e - r_h>| [Ang]:            0.000604
    Hole size [Ang]:                1.392609
      Cartesian components [Ang]: [  0.846616,   0.833730,   0.726288]
    Electron size [Ang]:            1.359749
      Cartesian components [Ang]: [  0.877339,   0.862421,   0.579157]
--------------------------------------------------------------------------------
  MP(2) calculation ...  CPU 0.16 s  wall 0.10 s
  Start ADC(2)-s ...  CPU 0.01 s  wall 0.00 s
  ADC(2) intermediates ...  CPU 0.02 s  wall 0.01 s
  Starting Davidson for singlet states of irrep A ... 
--------------------------------------------------------------------------------
   It NVec Conv  Avg. Norm  Max. Norm  Conv. states           Remark
--------------------------------------------------------------------------------
        10    0  1.330e-01  4.692e-01  0.4126 n n n n n n n n Guess.
    1   20    0  2.296e-02  1.106e-01  0.3274 n n n n n n n n 
    2   30    0  5.784e-03  2.427e-02  0.3227 n n n n n n n n 
    3   40    0  1.744e-03  1.017e-02  0.3223 n n n n n n n n 
    4   50    0  5.090e-04  3.435e-03  0.3222 n n n n n n n n 
    5   20    0  2.460e-04  1.590e-03  0.3222 n n n n n n n n Subspace collapsed.
    6   30    0  1.099e-04  7.897e-04  0.3222 n n n n n n n n 
    7   40    0  8.347e-05  7.601e-04  0.3222 n n n n n n n n 
    8   50    0  4.407e-05  3.268e-04  0.3222 n n n n n n n n 
    9   20    1  2.623e-05  1.822e-04  0.3222 n n n y n n n n Subspace collapsed.
   10   30    3  2.210e-05  1.697e-04  0.3222 n y y y n n n n 
   11   40    5  1.496e-05  1.000e-04  0.3222 n y y y y y n n 
   12   50    6  9.286e-06  8.108e-05  0.3222 y y y y y y n n 
   13   20    6  4.735e-06  3.998e-05  0.3222 y y y y y y n n Subspace collapsed.
   14   30    6  3.719e-06  3.169e-05  0.3222 y y y y y y n n 
   15   40    6  2.163e-06  1.914e-05  0.3222 y y y y y y n n 
   16   50    6  2.045e-06  1.933e-05  0.3222 y y y y y y n n 
   17   20    6  1.259e-06  1.200e-05  0.3222 y y y y y y n n Subspace collapsed.
   18   30    6  1.906e-06  1.835e-05  0.3222 y y y y y y n n 
   19   40    7  1.957e-06  1.917e-05  0.3222 y y y y y y y n 
   20   50    8  1.454e-06  1.437e-05  0.3222 y y y y y y y y 
   21   20    9  6.706e-07  6.632e-06  0.3222 y y y y y y y y Subspace collapsed.
   22   30    9  3.708e-07  3.665e-06  0.3222 y y y y y y y y 
   23   39    9  2.719e-07  2.693e-06  0.3222 y y y y y y y y 
   24   48    9  1.829e-07  1.816e-06  0.3222 y y y y y y y y 
   25   50    9  1.772e-07  1.760e-06  0.3222 y y y y y y y y 
   26   16    9  1.445e-07  1.436e-06  0.3222 y y y y y y y y Subspace collapsed.
   27   21    9  2.044e-07  2.034e-06  0.3222 y y y y y y y y 
   28   26    9  2.221e-07  2.213e-06  0.3222 y y y y y y y y 
   29   31    9  1.881e-07  1.877e-06  0.3222 y y y y y y y y 
   30   35    9  1.007e-07  1.005e-06  0.3222 y y y y y y y y 
   31   39   10  5.304e-08  5.297e-07  0.3222 y y y y y y y y Converged.
--------------------------------------------------------------------------------
  Davidson Summary: 
 ------------------------------------------------------------
  State  0: excitation energy =   0.3222 a.u.   (converged)
  State  1: excitation energy =   0.3327 a.u.   (converged)
  State  2: excitation energy =   0.3376 a.u.   (converged)
  State  3: excitation energy =   0.3614 a.u.   (converged)
  State  4: excitation energy =   0.3762 a.u.   (converged)
  State  5: excitation energy =   0.3882 a.u.   (converged)
  State  6: excitation energy =   0.4239 a.u.   (converged)
  State  7: excitation energy =   0.4478 a.u.   (converged)
  State  8: excitation energy =   0.4570 a.u.   (converged)
  State  9: excitation energy =   0.4636 a.u.   (converged)
 ------------------------------------------------------------

  Singlet states of irrep A ...  CPU 81.26 s  wall 26.01 s
  TDMs ...  CPU 0.93 s  wall 0.32 s
  SDMs ...  CPU 2.56 s  wall 0.70 s
  Starting TPA DIIS iterations ... 
------------------------------------ 
   It     Res. Norm  Remark
------------------------------------
                       Guess.
    1     4.347e+00  
    2     5.750e+00  
    3     1.071e+00  
    4     2.554e-01  
    5     6.466e-02  
    6     2.663e-02  
    7     8.183e-03  
    8     1.459e-03  
    9     5.411e-04  
   10     9.074e-05  
   11     2.870e-05  
   12     4.419e-06  
   13     1.456e-06  
   14     4.413e-07  Converged.
   ... Converged in 14 steps (norm: 4.41319e-07)
------------------------------------
  Starting TPA DIIS iterations ... 
------------------------------------ 
   It     Res. Norm  Remark
------------------------------------
                       Guess.
    1     4.155e+00  
    2     5.487e+00  
    3     1.024e+00  
    4     2.522e-01  
    5     6.422e-02  
    6     2.634e-02  
    7     8.034e-03  
    8     1.448e-03  
    9     5.374e-04  
   10     8.953e-05  
   11     2.834e-05  
   12     4.330e-06  
   13     1.437e-06  
   14     4.291e-07  Converged.
   ... Converged in 14 steps (norm: 4.29083e-07)
------------------------------------
  Starting TPA DIIS iterations ... 
------------------------------------ 
   It     Res. Norm  Remark
------------------------------------
                       Guess.
    1     6.876e-01  
    2     4.824e-01  
    3     1.702e-01  
    4     5.852e-02  
    5     1.835e-02  
    6     6.670e-03  
    7     1.043e-03  
    8     4.504e-04  
    9     1.269e-04  
   10     2.781e-05  
   11     6.639e-06  
   12     1.973e-06  
   13     1.351e-06  
   14     5.547e-07  Converged.
   ... Converged in 14 steps (norm: 5.54698e-07)
------------------------------------
  Starting TPA DIIS iterations ... 
------------------------------------ 
   It     Res. Norm  Remark
------------------------------------
                       Guess.
    1     4.598e+00  
    2     6.200e+00  
    3     1.142e+00  
    4     2.805e-01  
    5     7.192e-02  
    6     2.986e-02  
    7     9.161e-03  
    8     1.631e-03  
    9     6.089e-04  
   10     1.026e-04  
   11     3.274e-05  
   12     5.081e-06  
   13     1.687e-06  
   14     5.115e-07  Converged.
   ... Converged in 14 steps (norm: 5.1145e-07)
------------------------------------
  Starting TPA DIIS iterations ... 
------------------------------------ 
   It     Res. Norm  Remark
------------------------------------
                       Guess.
    1     4.395e+00  
    2     5.915e+00  
    3     1.092e+00  
    4     2.768e-01  
    5     7.143e-02  
    6     2.955e-02  
    7     8.994e-03  
    8     1.620e-03  
    9     6.048e-04  
   10     1.013e-04  
   11     3.232e-05  
   12     4.978e-06  
   13     1.663e-06  
   14     4.973e-07  Converged.
   ... Converged in 14 steps (norm: 4.973e-07)
------------------------------------
  Starting TPA DIIS iterations ... 
------------------------------------ 
   It     Res. Norm  Remark
------------------------------------
                       Guess.
    1     6.984e-01  
    2     4.979e-01  
    3     1.789e-01  
    4     6.526e-02  
    5     1.962e-02  
    6     7.217e-03  
    7     1.163e-03  
    8     5.213e-04  
    9     1.499e-04  
   10     3.101e-05  
   11     7.530e-06  
   12     2.298e-06  
   13     1.658e-06  
   14     6.841e-07  Converged.
   ... Converged in 14 steps (norm: 6.84149e-07)
------------------------------------
  Starting TPA DIIS iterations ... 
------------------------------------ 
   It     Res. Norm  Remark
------------------------------------
                       Guess.
    1     4.724e+00  
    2     6.428e+00  
    3     1.178e+00  
    4     2.935e-01  
    5     7.567e-02  
    6     3.154e-02  
    7     9.666e-03  
    8     1.720e-03  
    9     6.441e-04  
   10     1.088e-04  
   11     3.487e-05  
   12     5.429e-06  
   13     1.809e-06  
   14     5.486e-07  Converged.
   ... Converged in 14 steps (norm: 5.48601e-07)
------------------------------------
  Starting TPA DIIS iterations ... 
------------------------------------ 
   It     Res. Norm  Remark
------------------------------------
                       Guess.
    1     4.515e+00  
    2     6.133e+00  
    3     1.126e+00  
    4     2.895e-01  
    5     7.517e-02  
    6     3.121e-02  
    7     9.491e-03  
    8     1.708e-03  
    9     6.397e-04  
   10     1.074e-04  
   11     3.441e-05  
   12     5.318e-06  
   13     1.782e-06  
   14     5.335e-07  Converged.
   ... Converged in 14 steps (norm: 5.33491e-07)
------------------------------------
  Starting TPA DIIS iterations ... 
------------------------------------ 
   It     Res. Norm  Remark
------------------------------------
                       Guess.
    1     7.036e-01  
    2     5.054e-01  
    3     1.833e-01  
    4     6.880e-02  
    5     2.025e-02  
    6     7.500e-03  
    7     1.226e-03  
    8     5.590e-04  
    9     1.620e-04  
   10     3.236e-05  
   11     7.996e-06  
   12     2.472e-06  
   13     1.827e-06  
   14     7.571e-07  Converged.
   ... Converged in 14 steps (norm: 7.57061e-07)
------------------------------------
  Starting TPA DIIS iterations ... 
------------------------------------ 
   It     Res. Norm  Remark
------------------------------------
                       Guess.
    1     5.428e+00  
    2     7.737e+00  
    3     1.377e+00  
    4     3.703e-01  
    5     9.784e-02  
    6     4.155e-02  
    7     1.266e-02  
    8     2.245e-03  
    9     8.542e-04  
   10     1.458e-04  
   11     4.781e-05  
   12     7.553e-06  
   13     2.575e-06  
   14     7.803e-07  Converged.
   ... Converged in 14 steps (norm: 7.80273e-07)
------------------------------------
  Starting TPA DIIS iterations ... 
------------------------------------ 
   It     Res. Norm  Remark
------------------------------------
                       Guess.
    1     5.186e+00  
    2     7.381e+00  
    3     1.316e+00  
    4     3.646e-01  
    5     9.722e-02  
    6     4.116e-02  
    7     1.243e-02  
    8     2.231e-03  
    9     8.484e-04  
   10     1.439e-04  
   11     4.712e-05  
   12     7.401e-06  
   13     2.527e-06  
   14     7.602e-07  Converged.
   ... Converged in 14 steps (norm: 7.60204e-07)
------------------------------------
  Starting TPA DIIS iterations ... 
------------------------------------ 
   It     Res. Norm  Remark
------------------------------------
                       Guess.
    1     7.298e-01  
    2     5.456e-01  
    3     2.069e-01  
    4     9.038e-02  
    5     2.372e-02  
    6     9.178e-03  
    7     1.612e-03  
    8     7.878e-04  
    9     2.347e-04  
   10     3.682e-05  
   11     1.086e-05  
   12     3.580e-06  
   13     2.974e-06  
   14     1.266e-06  
   15     4.938e-07  Converged.
   ... Converged in 15 steps (norm: 4.93783e-07)
------------------------------------
  Starting TPA DIIS iterations ... 
------------------------------------ 
   It     Res. Norm  Remark
------------------------------------
                       Guess.
    1     5.954e+00  
    2     8.748e+00  
    3     1.525e+00  
    4     4.320e-01  
    5     1.156e-01  
    6     4.970e-02  
    7     1.506e-02  
    8     2.665e-03  
    9     1.025e-03  
   10     1.759e-04  
   11     5.856e-05  
   12     9.320e-06  
   13     3.231e-06  
   14     9.813e-07  Converged.
   ... Converged in 14 steps (norm: 9.8131e-07)
------------------------------------
  Starting TPA DIIS iterations ... 
------------------------------------ 
   It     Res. Norm  Remark
------------------------------------
                       Guess.
    1     5.687e+00  
    2     8.345e+00  
    3     1.456e+00  
    4     4.247e-01  
    5     1.149e-01  
    6     4.926e-02  
    7     1.480e-02  
    8     2.649e-03  
    9     1.018e-03  
   10     1.736e-04  
   11     5.766e-05  
   12     9.137e-06  
   13     3.163e-06  
   14     9.586e-07  Converged.
   ... Converged in 14 steps (norm: 9.586e-07)
------------------------------------
  Starting TPA DIIS iterations ... 
------------------------------------ 
   It     Res. Norm  Remark
------------------------------------
                       Guess.
    1     7.470e-01  
    2     5.735e-01  
    3     2.240e-01  
    4     1.084e-01  
    5     2.633e-02  
    6     1.054e-02  
    7     1.939e-03  
    8     9.667e-04  
    9     2.906e-04  
   10     3.812e-05  
   11     1.332e-05  
   12     4.561e-06  
   13     4.054e-06  
   14     1.762e-06  
   15     6.624e-07  Converged.
   ... Converged in 15 steps (norm: 6.62424e-07)
------------------------------------
  Starting TPA DIIS iterations ... 
------------------------------------ 
   It     Res. Norm  Remark
------------------------------------
                       Guess.
    1     6.449e+00  
    2     9.726e+00  
    3     1.663e+00  
    4     4.934e-01  
    5     1.333e-01  
    6     5.787e-02  
    7     1.745e-02  
    8     3.081e-03  
    9     1.196e-03  
   10     2.060e-04  
   11     6.943e-05  
   12     1.111e-05  
   13     3.911e-06  
   14     1.195e-06  
   15     4.652e-07  Converged.
   ... Converged in 15 steps (norm: 4.65248e-07)
------------------------------------
  Starting TPA DIIS iterations ... 
------------------------------------ 
   It     Res. Norm  Remark
------------------------------------
                       Guess.
    1     6.159e+00  
    2     9.277e+00  
    3     1.588e+00  
    4     4.845e-01  
    5     1.325e-01  
    6     5.738e-02  
    7     1.714e-02  
    8     3.063e-03  
    9     1.187e-03  
   10     2.033e-04  
   11     6.831e-05  
   12     1.090e-05  
   13     3.816e-06  
   14     1.171e-06  
   15     3.590e-07  Converged.
   ... Converged in 15 steps (norm: 3.58976e-07)
------------------------------------
  Starting TPA DIIS iterations ... 
------------------------------------ 
   It     Res. Norm  Remark
------------------------------------
                       Guess.
    1     7.617e-01  
    2     5.985e-01  
    3     2.396e-01  
    4     1.267e-01  
    5     2.884e-02  
    6     1.189e-02  
    7     2.278e-03  
    8     1.131e-03  
    9     3.426e-04  
   10     3.926e-05  
   11     1.591e-05  
   12     5.608e-06  
   13     5.247e-06  
   14     2.323e-06  
   15     8.625e-07  Converged.
   ... Converged in 15 steps (norm: 8.62456e-07)
------------------------------------
  Starting TPA DIIS iterations ... 
------------------------------------ 
   It     Res. Norm  Remark
------------------------------------
                       Guess.
    1     8.381e+00  
    2     1.375e+01  
    3     2.194e+00  
    4     7.571e-01  
    5     2.094e-01  
    6     9.372e-02  
    7     2.775e-02  
    8     4.862e-03  
    9     1.942e-03  
   10     3.375e-04  
   11     1.168e-04  
   12     1.900e-05  
   13     6.982e-06  
   14     2.277e-06  
   15     9.773e-07  Converged.
   ... Converged in 15 steps (norm: 9.77346e-07)
------------------------------------
  Starting TPA DIIS iterations ... 
------------------------------------ 
   It     Res. Norm  Remark
------------------------------------
                       Guess.
    1     8.000e+00  
    2     1.311e+01  
    3     2.093e+00  
    4     7.405e-01  
    5     2.083e-01  
    6     9.308e-02  
    7     2.726e-02  
    8     4.838e-03  
    9     1.928e-03  
   10     3.330e-04  
   11     1.148e-04  
   12     1.877e-05  
   13     6.726e-06  
   14     2.272e-06  
   15     6.574e-07  Converged.
   ... Converged in 15 steps (norm: 6.57363e-07)
------------------------------------
  Starting TPA DIIS iterations ... 
------------------------------------ 
   It     Res. Norm  Remark
------------------------------------
                       Guess.
    1     8.091e-01  
    2     6.862e-01  
    3     2.972e-01  
    4     2.072e-01  
    5     3.937e-02  
    6     1.771e-02  
    7     3.834e-03  
    8     1.623e-03  
    9     5.306e-04  
   10     5.364e-05  
   11     2.860e-05  
   12     1.085e-05  
   13     1.132e-05  
   14     5.366e-06  
   15     2.256e-06  
   16     1.046e-06  
   17     2.829e-07  Converged.
   ... Converged in 17 steps (norm: 2.82862e-07)
------------------------------------
  Starting TPA DIIS iterations ... 
------------------------------------ 
   It     Res. Norm  Remark
------------------------------------
                       Guess.
    1     1.025e+01  
    2     1.791e+01  
    3     2.693e+00  
    4     1.041e+00  
    5     2.920e-01  
    6     1.336e-01  
    7     3.894e-02  
    8     6.786e-03  
    9     2.769e-03  
   10     4.817e-04  
   11     1.668e-04  
   12     2.782e-05  
   13     1.042e-05  
   14     3.755e-06  
   15     1.735e-06  
   16     6.880e-07  Converged.
   ... Converged in 16 steps (norm: 6.88015e-07)
------------------------------------
  Starting TPA DIIS iterations ... 
------------------------------------ 
   It     Res. Norm  Remark
------------------------------------
                       Guess.
    1     9.780e+00  
    2     1.708e+01  
    3     2.569e+00  
    4     1.015e+00  
    5     2.906e-01  
    6     1.328e-01  
    7     3.825e-02  
    8     6.754e-03  
    9     2.748e-03  
   10     4.753e-04  
   11     1.642e-04  
   12     2.776e-05  
   13     9.882e-06  
   14     3.803e-06  
   15     1.083e-06  
   16     7.560e-07  Converged.
   ... Converged in 16 steps (norm: 7.56009e-07)
------------------------------------
  Starting TPA DIIS iterations ... 
------------------------------------ 
   It     Res. Norm  Remark
------------------------------------
                       Guess.
    1     8.446e-01  
    2     7.604e-01  
    3     3.487e-01  
    4     2.917e-01  
    5     5.050e-02  
    6     2.370e-02  
    7     5.594e-03  
    8     1.858e-03  
    9     6.945e-04  
   10     7.958e-05  
   11     4.454e-05  
   12     1.782e-05  
   13     1.873e-05  
   14     9.513e-06  
   15     4.580e-06  
   16     2.021e-06  
   17     6.765e-07  Converged.
   ... Converged in 17 steps (norm: 6.76534e-07)
------------------------------------
  Starting TPA DIIS iterations ... 
------------------------------------ 
   It     Res. Norm  Remark
------------------------------------
                       Guess.
    1     1.116e+01  
    2     2.003e+01  
    3     2.932e+00  
    4     1.188e+00  
    5     3.350e-01  
    6     1.547e-01  
    7     4.475e-02  
    8     7.782e-03  
    9     3.202e-03  
   10     5.569e-04  
   11     1.919e-04  
   12     3.255e-05  
   13     1.230e-05  
   14     4.639e-06  
   15     2.234e-06  
   16     8.998e-07  Converged.
   ... Converged in 16 steps (norm: 8.99803e-07)
------------------------------------
  Starting TPA DIIS iterations ... 
------------------------------------ 
   It     Res. Norm  Remark
------------------------------------
                       Guess.
    1     1.065e+01  
    2     1.910e+01  
    3     2.797e+00  
    4     1.156e+00  
    5     3.333e-01  
    6     1.538e-01  
    7     4.396e-02  
    8     7.745e-03  
    9     3.178e-03  
   10     5.495e-04  
   11     1.891e-04  
   12     3.266e-05  
   13     1.154e-05  
   14     4.715e-06  
   15     1.390e-06  
   16     1.020e-06  
   17     5.871e-07  Converged.
   ... Converged in 17 steps (norm: 5.87091e-07)
------------------------------------
  Starting TPA DIIS iterations ... 
------------------------------------ 
   It     Res. Norm  Remark
------------------------------------
                       Guess.
    1     8.594e-01  
    2     7.938e-01  
    3     3.725e-01  
    4     3.324e-01  
    5     5.616e-02  
    6     2.658e-02  
    7     6.506e-03  
    8     1.919e-03  
    9     7.703e-04  
   10     9.379e-05  
   11     5.349e-05  
   12     2.200e-05  
   13     2.273e-05  
   14     1.191e-05  
   15     6.013e-06  
   16     2.625e-06  
   17     9.644e-07  Converged.
   ... Converged in 17 steps (norm: 9.64448e-07)
------------------------------------
  Starting TPA DIIS iterations ... 
------------------------------------ 
   It     Res. Norm  Remark
------------------------------------
                       Guess.
    1     1.187e+01  
    2     2.175e+01  
    3     3.119e+00  
    4     1.306e+00  
    5     3.700e-01  
    6     1.720e-01  
    7     4.950e-02  
    8     8.595e-03  
    9     3.558e-03  
   10     6.183e-04  
   11     2.121e-04  
   12     3.651e-05  
   13     1.391e-05  
   14     5.421e-06  
   15     2.703e-06  
   16     1.096e-06  
   17     7.086e-07  Converged.
   ... Converged in 17 steps (norm: 7.08643e-07)
------------------------------------
  Starting TPA DIIS iterations ... 
------------------------------------ 
   It     Res. Norm  Remark
------------------------------------
                       Guess.
    1     1.133e+01  
    2     2.074e+01  
    3     2.975e+00  
    4     1.271e+00  
    5     3.682e-01  
    6     1.711e-01  
    7     4.862e-02  
    8     8.555e-03  
    9     3.531e-03  
   10     6.101e-04  
   11     2.092e-04  
   12     3.679e-05  
   13     1.294e-05  
   14     5.513e-06  
   15     1.696e-06  
   16     1.266e-06  
   17     7.305e-07  Converged.
   ... Converged in 17 steps (norm: 7.30525e-07)
------------------------------------
  Starting TPA DIIS iterations ... 
------------------------------------ 
   It     Res. Norm  Remark
------------------------------------
                       Guess.
    1     8.702e-01  
    2     8.192e-01  
    3     3.908e-01  
    4     3.636e-01  
    5     6.072e-02  
    6     2.881e-02  
    7     7.244e-03  
    8     1.955e-03  
    9     8.291e-04  
   10     1.053e-04  
   11     6.110e-05  
   12     2.574e-05  
   13     2.610e-05  
   14     1.397e-05  
   15     7.277e-06  
   16     3.159e-06  
   17     1.233e-06  
   18     4.664e-07  Converged.
   ... Converged in 18 steps (norm: 4.66441e-07)
------------------------------------
  Two-photon absorbption ...  CPU 82.86 s  wall 21.01 s
  Transition density matrix of state singlet_A_1 printed to ASCII file 'State_singlet_A_1_Transition.txt'
  Transition density matrix of state singlet_A_2 printed to ASCII file 'State_singlet_A_2_Transition.txt'
  Transition density matrix of state singlet_A_3 printed to ASCII file 'State_singlet_A_3_Transition.txt'
  Transition density matrix of state singlet_A_4 printed to ASCII file 'State_singlet_A_4_Transition.txt'
  Transition density matrix of state singlet_A_5 printed to ASCII file 'State_singlet_A_5_Transition.txt'
  Transition density matrix of state singlet_A_6 printed to ASCII file 'State_singlet_A_6_Transition.txt'
  Transition density matrix of state singlet_A_7 printed to ASCII file 'State_singlet_A_7_Transition.txt'
  Transition density matrix of state singlet_A_8 printed to ASCII file 'State_singlet_A_8_Transition.txt'
  Transition density matrix of state singlet_A_9 printed to ASCII file 'State_singlet_A_9_Transition.txt'
  Transition density matrix of state singlet_A_10 printed to ASCII file 'State_singlet_A_10_Transition.txt'
  Transition properties ...  CPU 0.13 s  wall 0.36 s
  Difference density matrix of state singlet_A_1 printed to ASCII file 'State_singlet_A_1_Difference.txt'
  Total density matrix of state singlet_A_1 printed to ASCII file 'State_singlet_A_1_Total.txt'
  Difference density matrix of state singlet_A_2 printed to ASCII file 'State_singlet_A_2_Difference.txt'
  Total density matrix of state singlet_A_2 printed to ASCII file 'State_singlet_A_2_Total.txt'
  Difference density matrix of state singlet_A_3 printed to ASCII file 'State_singlet_A_3_Difference.txt'
  Total density matrix of state singlet_A_3 printed to ASCII file 'State_singlet_A_3_Total.txt'
  Difference density matrix of state singlet_A_4 printed to ASCII file 'State_singlet_A_4_Difference.txt'
  Total density matrix of state singlet_A_4 printed to ASCII file 'State_singlet_A_4_Total.txt'
  Difference density matrix of state singlet_A_5 printed to ASCII file 'State_singlet_A_5_Difference.txt'
  Total density matrix of state singlet_A_5 printed to ASCII file 'State_singlet_A_5_Total.txt'
  Difference density matrix of state singlet_A_6 printed to ASCII file 'State_singlet_A_6_Difference.txt'
  Total density matrix of state singlet_A_6 printed to ASCII file 'State_singlet_A_6_Total.txt'
  Difference density matrix of state singlet_A_7 printed to ASCII file 'State_singlet_A_7_Difference.txt'
  Total density matrix of state singlet_A_7 printed to ASCII file 'State_singlet_A_7_Total.txt'
  Difference density matrix of state singlet_A_8 printed to ASCII file 'State_singlet_A_8_Difference.txt'
  Total density matrix of state singlet_A_8 printed to ASCII file 'State_singlet_A_8_Total.txt'
  Difference density matrix of state singlet_A_9 printed to ASCII file 'State_singlet_A_9_Difference.txt'
  Total density matrix of state singlet_A_9 printed to ASCII file 'State_singlet_A_9_Total.txt'
  Difference density matrix of state singlet_A_10 printed to ASCII file 'State_singlet_A_10_Difference.txt'
  Total density matrix of state singlet_A_10 printed to ASCII file 'State_singlet_A_10_Total.txt'
  Properties ...  CPU 0.24 s  wall 0.45 s
  ISR TDMS ...  CPU 17.38 s  wall 4.59 s
  ISR transition properties ...  CPU 0.25 s  wall 0.10 s
  Sum-over-states TPA ...  CPU 0.00 s  wall 0.00 s

--------------------------------------------------------------------------------
                   State-averaged natural transition orbitals
--------------------------------------------------------------------------------
--------------------------------------------------------------------------------
  SA-NTO decomposition ...  CPU 0.01 s  wall 0.02 s

--------------------------------------------------------------------------------
                             Excited State Summary
--------------------------------------------------------------------------------
--------------------------------------------------------------------------------

  Excited state 1 (singlet, A)                                     [converged]
  ----------------------------------------------------------------------------
  Term symbol:  2 (1) A                                     R^2 =  4.18554e-13

  Total energy:                                            -77.9973246014 a.u.
  Excitation energy:                                               8.768741 eV

  Osc. strength:                                                      0.447237
  Trans. dip. moment [a.u.]:           [   1.044730,   -0.995123,   -0.009079]
  <i|r^2|0> [a.u.]:                    [   6.156650,   -0.250624,   -0.000087]
  Two-photon absorption cross-section (SoS) [a.u.]:                   0.001560
  Two-photon absorption matrix (SoS) [a.u.]:
                                       |    0.013894    0.003123    0.000075 |
                                       |    0.003123    0.002073    0.000346 |
                                       |    0.000075    0.000346    0.002328 |
  Two-photon absorption cross-section [a.u.]:                         0.000925
  Two-photon absorption matrix [a.u.]:
                                       |    0.003212   -0.000860    0.000729 |
                                       |   -0.000860   -0.012964    0.001720 |
                                       |    0.000729    0.001720    0.000340 |

  Dip. moment [a.u.]:                  [  -0.000267,    0.000704,    0.000742]
  Total dipole [Debye]:                                               0.002688
  <r^2> [a.u.]:                        [ 175.696068,   35.647290,   11.867947]
  Total <r^2> [a.u.]:                                               223.211305

  V1^2 = 0.9715, V2^2 = 0.0285

  Important amplitudes:
      occ i     occ j     vir a      vir b          v   
    -----------------------------------------------------
     8 (A) A              9 (A) A                 0.6811
     6 (A) A             14 (A) A                -0.0615
     4 (A) A             10 (A) A                 0.0610
     7 (A) A             16 (A) A                -0.0572
     5 (A) A             13 (A) A                 0.0516
     6 (A) A             23 (A) A                -0.0485
     8 (A) A             20 (A) A                 0.0348
     6 (A) A             19 (A) A                 0.0302
     3 (A) A             12 (A) A                 0.0281
     5 (A) A             22 (A) A                 0.0216
     7 (A) A             11 (A) A                -0.0205
     4 (A) A             24 (A) A                 0.0188
     3 (A) A             26 (A) A                -0.0186
     8 (A) A   8 (A) B   17 (A) A   20 (A) B     -0.0183
     8 (A) A   8 (A) B    9 (A) A   28 (A) B     -0.0168
     6 (A) A             26 (A) A                -0.0164
     7 (A) A             21 (A) A                -0.0149
     6 (A) A             12 (A) A                -0.0139
     3 (A) A             14 (A) A                -0.0139
     3 (A) A   4 (A) B    9 (A) A    9 (A) B     -0.0129
     3 (A) A             19 (A) A                 0.0118
     8 (A) A   8 (A) B   18 (A) A   19 (A) B     -0.0112
     7 (A) A             32 (A) A                -0.0096
     7 (A) A             36 (A) A                -0.0086
     3 (A) A             23 (A) A                -0.0080
     8 (A) A   8 (A) B   25 (A) A   29 (A) B      0.0076
     6 (A) A             35 (A) A                -0.0071
     6 (A) A             40 (A) A                -0.0068
     3 (A) A   6 (A) B    9 (A) A   28 (A) B     -0.0065
     6 (A) A   8 (A) A   19 (A) A   28 (A) A      0.0060
     5 (A) A   7 (A) B    9 (A) A    9 (A) B      0.0060
     5 (A) A   8 (A) B   11 (A) A    9 (A) B      0.0060
     5 (A) A   8 (A) B   11 (A) A   20 (A) B     -0.0059
     7 (A) A   8 (A) B   13 (A) A   20 (A) B      0.0059
     5 (A) A   8 (A) B   16 (A) A    9 (A) B     -0.0059
     3 (A) A   5 (A) B    9 (A) A   25 (A) B     -0.0058
     3 (A) A             40 (A) A                -0.0057
     7 (A) A   8 (A) B   22 (A) A   20 (A) B      0.0057
     6 (A) A   8 (A) A    9 (A) A   18 (A) A     -0.0056
     8 (A) A   8 (A) B   19 (A) A   30 (A) B     -0.0056
    -----------------------------------------------------

  Density matrix analysis:
  ------------------------
  NOs
    Occupation of frontier NOs:
       0.9495   1.0217
    Number of electrons: 16.000000
    Number of unpaired electrons: n_u =  2.31327, n_u,nl =  2.03253
    NO participation ratio (PR_NO):  2.863561
  
  
  Mulliken Population Analysis
  Atom      Charge (e)              h+              e-           Del q
  --------------------------------------------------------------------
   1 H        0.058403        0.020395       -0.012578        0.007817
   2 C       -0.114449        0.491173       -0.506543       -0.015370
   3 H        0.058226        0.020352       -0.012594        0.007758
   4 C       -0.118840        0.490929       -0.506937       -0.016008
   5 H        0.057600        0.020371       -0.012531        0.007840
   6 H        0.059061        0.020483       -0.012521        0.007963
  --------------------------------------------------------------------
  Sum:        0.000000        1.063704       -1.063704       -0.000000
  
  Multipole moment analysis of the density matrix
    Molecular charge:                      0.000000
    Number of electrons:                   16.000000
      Center of electronic charge [Ang]: [ -1.558692,  -0.065626,   0.001954]
    Total nuclear charge:                  16.000000
      Center of nuclear charge [Ang]:    [ -1.558701,  -0.065602,   0.001978]
    Dipole moment [D]:                     0.002688
      Cartesian components [D]:          [ -0.000679,   0.001789,   0.001887]
    RMS size of the density [Ang]:         1.213575
      Cartesian components [Ang]:        [  0.803413,   0.787137,   0.455748]
  
  Exciton analysis of the difference density matrix
    <r_h> [Ang]:                  [ -1.557939,  -0.065825,   0.001693]
    <r_e> [Ang]:                  [ -1.557960,  -0.065643,   0.001635]
    |<r_e - r_h>| [Ang]:            0.000192
    Hole size [Ang]:                1.284977
      Cartesian components [Ang]: [  0.727649,   0.713043,   0.783111]
    Electron size [Ang]:            1.463335
      Cartesian components [Ang]: [  0.852802,   0.831569,   0.850042]

  Transition density matrix analysis:
  -----------------------------------
  
  CT numbers (Mulliken)
    omega =     0.9535
    <Phe> =    -0.1597
  
  Exciton analysis of the transition density matrix
    Trans. dipole moment [D]:             1.833679
      Cartesian components [D]:         [  1.327720,  -1.264676,  -0.011539]
    <r_h> [Ang]:                        [ -1.557567,  -0.066023,   0.001753]
    <r_e> [Ang]:                        [ -1.558021,  -0.065634,   0.001586]
    |<r_e - r_h>| [Ang]:                  0.000620
    Hole size [Ang]:                      1.212771
      Cartesian components [Ang]:       [  0.648002,   0.636040,   0.803966]
    Electron size [Ang]:                  1.486652
      Cartesian components [Ang]:       [  0.863424,   0.840745,   0.870507]
    RMS electron-hole separation [Ang]:   1.935694
      Cartesian components [Ang]:       [  1.104139,   1.075808,   1.170652]
    Covariance(r_h, r_e) [Ang^2]:        -0.032982
    Correlation coefficient:             -0.018293
    Center-of-mass size [Ang]:            0.950656
      Cartesian components [Ang]:       [  0.527183,   0.516099,   0.599554]

  Decomposition into state-averaged NTOs
    H- 0 -> L+ 0: -0.6700 ( 89.8%)
    H- 2 -> L+ 5:  0.0829 (  1.4%)
                   omega =  95.4%
  ----------------------------------------------------------------------------


  Excited state 2 (singlet, A)                                     [converged]
  ----------------------------------------------------------------------------
  Term symbol:  3 (1) A                                     R^2 =  5.22001e-13

  Total energy:                                            -77.9868847751 a.u.
  Excitation energy:                                               9.052823 eV

  Osc. strength:                                                      0.000031
  Trans. dip. moment [a.u.]:           [  -0.002850,    0.004391,   -0.010549]
  <i|r^2|0> [a.u.]:                    [   0.049658,    0.084910,   -0.150195]
  Two-photon absorption cross-section (SoS) [a.u.]:                   4.828954
  Two-photon absorption matrix (SoS) [a.u.]:
                                       |    0.054099    0.058421   -0.543527 |
                                       |    0.058421    0.062946   -0.542722 |
                                       |   -0.543527   -0.542722   -0.116560 |
  Two-photon absorption cross-section [a.u.]:                         0.080475
  Two-photon absorption matrix [a.u.]:
                                       |   -0.001633   -0.007316    0.075101 |
                                       |   -0.007316   -0.013036    0.064557 |
                                       |    0.075101    0.064557    0.014949 |

  Dip. moment [a.u.]:                  [  -0.004213,    0.025331,    0.002620]
  Total dipole [Debye]:                                               0.065607
  <r^2> [a.u.]:                        [ 174.035138,   34.029803,   13.168880]
  Total <r^2> [a.u.]:                                               221.233821

  V1^2 = 0.9543, V2^2 = 0.0457

  Important amplitudes:
      occ i     occ j     vir a      vir b          v   
    -----------------------------------------------------
     7 (A) A              9 (A) A                 0.6690
     8 (A) A             11 (A) A                -0.1482
     7 (A) A             20 (A) A                 0.0759
     5 (A) A   8 (A) B    9 (A) A    9 (A) B      0.0315
     8 (A) A             16 (A) A                 0.0274
     8 (A) A             10 (A) A                 0.0204
     8 (A) A             21 (A) A                -0.0175
     5 (A) A             28 (A) A                 0.0151
     4 (A) A   7 (A) B    9 (A) A   19 (A) B     -0.0135
     5 (A) A   7 (A) B    9 (A) A   16 (A) B      0.0134
     7 (A) A   8 (A) B   20 (A) A   17 (A) B     -0.0105
     7 (A) A   8 (A) A    9 (A) A   28 (A) A      0.0098
     5 (A) A   8 (A) B    9 (A) A   20 (A) B      0.0095
     4 (A) A   6 (A) B    9 (A) A   16 (A) B      0.0091
     5 (A) A   6 (A) A    9 (A) A   23 (A) A      0.0091
     5 (A) A   6 (A) A    9 (A) A   14 (A) A      0.0088
     5 (A) A   6 (A) B    9 (A) A   19 (A) B     -0.0086
     8 (A) A   7 (A) B    9 (A) A   28 (A) B     -0.0085
     4 (A) A   5 (A) A    9 (A) A   10 (A) A      0.0084
     6 (A) A   7 (A) B    9 (A) A   18 (A) B     -0.0084
     5 (A) A   6 (A) B    9 (A) A   23 (A) B      0.0080
     3 (A) A   7 (A) B    9 (A) A   18 (A) B      0.0080
     5 (A) A   7 (A) A    9 (A) A   16 (A) A      0.0079
     4 (A) A   8 (A) B    9 (A) A   25 (A) B      0.0077
     4 (A) A   7 (A) B   19 (A) A    9 (A) B     -0.0074
     7 (A) A   8 (A) B   17 (A) A   20 (A) B     -0.0074
     5 (A) A   5 (A) B    9 (A) A   13 (A) B     -0.0072
     7 (A) A   8 (A) B   19 (A) A   18 (A) B     -0.0072
     5 (A) A   8 (A) A    9 (A) A   20 (A) A      0.0069
     4 (A) A   5 (A) B    9 (A) A   18 (A) B     -0.0068
     7 (A) A   7 (A) B   20 (A) A   22 (A) B      0.0065
     7 (A) A   8 (A) B   17 (A) A    9 (A) B     -0.0064
     5 (A) A   6 (A) B    9 (A) A   14 (A) B      0.0062
     4 (A) A   7 (A) A    9 (A) A   19 (A) A     -0.0061
     4 (A) A   5 (A) B   10 (A) A    9 (A) B     -0.0061
     5 (A) A   7 (A) B   11 (A) A   20 (A) B     -0.0060
     4 (A) A   7 (A) B    9 (A) A   14 (A) B     -0.0060
     5 (A) A             38 (A) A                 0.0059
     4 (A) A   8 (A) A    9 (A) A   25 (A) A      0.0057
     6 (A) A   7 (A) A   19 (A) A   28 (A) A      0.0056
    -----------------------------------------------------

  Density matrix analysis:
  ------------------------
  NOs
    Occupation of frontier NOs:
       0.9571   1.0543
    Number of electrons: 16.000000
    Number of unpaired electrons: n_u =  2.35491, n_u,nl =  2.06316
    NO participation ratio (PR_NO):  3.030822
  
  
  Mulliken Population Analysis
  Atom      Charge (e)              h+              e-           Del q
  --------------------------------------------------------------------
   1 H        0.151690        0.122542       -0.021437        0.101105
   2 C       -0.300421        0.269066       -0.470408       -0.201342
   3 H        0.146904        0.124329       -0.027892        0.096436
   4 C       -0.303491        0.274424       -0.475083       -0.200659
   5 H        0.154193        0.125243       -0.020809        0.104434
   6 H        0.151124        0.128245       -0.028218        0.100026
  --------------------------------------------------------------------
  Sum:        0.000000        1.043848       -1.043848        0.000000
  
  Multipole moment analysis of the density matrix
    Molecular charge:                      0.000000
    Number of electrons:                   16.000000
      Center of electronic charge [Ang]: [ -1.558562,  -0.066440,   0.001892]
    Total nuclear charge:                  16.000000
      Center of nuclear charge [Ang]:    [ -1.558701,  -0.065602,   0.001978]
    Dipole moment [D]:                     0.065607
      Cartesian components [D]:          [ -0.010708,   0.064384,   0.006660]
    RMS size of the density [Ang]:         1.199355
      Cartesian components [Ang]:        [  0.785372,   0.768874,   0.480078]
  
  Exciton analysis of the difference density matrix
    <r_h> [Ang]:                  [ -1.571061,  -0.061282,   0.001714]
    <r_e> [Ang]:                  [ -1.569082,  -0.073581,   0.000703]
    |<r_e - r_h>| [Ang]:            0.012498
    Hole size [Ang]:                1.486588
      Cartesian components [Ang]: [  1.007849,   0.993602,   0.454907]
    Electron size [Ang]:            1.477688
      Cartesian components [Ang]: [  0.882061,   0.859189,   0.816900]

  Transition density matrix analysis:
  -----------------------------------
  
  CT numbers (Mulliken)
    omega =     0.9220
    <Phe> =    -0.0120
  
  Exciton analysis of the transition density matrix
    Trans. dipole moment [D]:             0.014966
      Cartesian components [D]:         [ -0.003623,   0.005580,  -0.013406]
    <r_h> [Ang]:                        [ -1.572572,  -0.060007,   0.001800]
    <r_e> [Ang]:                        [ -1.568349,  -0.075094,   0.000561]
    |<r_e - r_h>| [Ang]:                  0.015715
    Hole size [Ang]:                      1.515203
      Cartesian components [Ang]:       [  1.031417,   1.017013,   0.444640]
    Electron size [Ang]:                  1.474764
      Cartesian components [Ang]:       [  0.872465,   0.848769,   0.832661]
    RMS electron-hole separation [Ang]:   2.094695
      Cartesian components [Ang]:       [  1.335152,   1.309771,   0.943195]
    Covariance(r_h, r_e) [Ang^2]:         0.041633
    Correlation coefficient:              0.018631
    Center-of-mass size [Ang]:            1.067009
      Cartesian components [Ang]:       [  0.683268,   0.669734,   0.472345]

  Decomposition into state-averaged NTOs
    H- 1 -> L+ 0:  0.6614 ( 87.5%)
    H- 0 -> L+ 2: -0.1482 (  4.4%)
                   omega =  92.2%
  ----------------------------------------------------------------------------


  Excited state 3 (singlet, A)                                     [converged]
  ----------------------------------------------------------------------------
  Term symbol:  4 (1) A                                     R^2 =  5.43770e-13

  Total energy:                                            -77.9819888297 a.u.
  Excitation energy:                                               9.186049 eV

  Osc. strength:                                                      0.025047
  Trans. dip. moment [a.u.]:           [  -0.014986,   -0.020499,    0.332640]
  <i|r^2|0> [a.u.]:                    [  -0.087940,   -0.000597,   -0.006667]
  Two-photon absorption cross-section (SoS) [a.u.]:                   0.011334
  Two-photon absorption matrix (SoS) [a.u.]:
                                       |   -0.015008   -0.003206    0.029995 |
                                       |   -0.003206    0.008599    0.018597 |
                                       |    0.029995    0.018597   -0.000324 |
  Two-photon absorption cross-section [a.u.]:                         0.014225
  Two-photon absorption matrix [a.u.]:
                                       |   -0.014307   -0.002600    0.036335 |
                                       |   -0.002600    0.003665    0.017946 |
                                       |    0.036335    0.017946    0.002287 |

  Dip. moment [a.u.]:                  [   0.037175,    0.030192,    0.002775]
  Total dipole [Debye]:                                               0.121930
  <r^2> [a.u.]:                        [ 180.668091,   40.586063,   11.026664]
  Total <r^2> [a.u.]:                                               232.280818

  V1^2 = 0.9587, V2^2 = 0.0413

  Important amplitudes:
      occ i     occ j     vir a      vir b          v   
    -----------------------------------------------------
     8 (A) A             10 (A) A                -0.6887
     8 (A) A             24 (A) A                -0.0507
     8 (A) A             18 (A) A                 0.0313
     4 (A) A              9 (A) A                -0.0238
     8 (A) A   8 (A) B    9 (A) A   12 (A) B     -0.0218
     7 (A) A              9 (A) A                 0.0212
     8 (A) A   8 (A) B   10 (A) A   17 (A) B     -0.0173
     8 (A) A             15 (A) A                -0.0166
     5 (A) A   8 (A) B   11 (A) A   10 (A) B     -0.0166
     7 (A) A   8 (A) B   13 (A) A   10 (A) B      0.0141
     4 (A) A   8 (A) B   12 (A) A   10 (A) B     -0.0111
     6 (A) A   8 (A) A   10 (A) A   15 (A) A      0.0111
     7 (A) A   8 (A) B   22 (A) A   10 (A) B      0.0108
     6 (A) A   8 (A) B   15 (A) A   10 (A) B     -0.0108
     4 (A) A   8 (A) A   10 (A) A   12 (A) A      0.0106
     7 (A) A   8 (A) A   10 (A) A   22 (A) A     -0.0099
     7 (A) A   8 (A) A   10 (A) A   13 (A) A     -0.0098
     5 (A) A   8 (A) A   10 (A) A   11 (A) A      0.0095
     5 (A) A   8 (A) B   21 (A) A   10 (A) B     -0.0094
     6 (A) A   8 (A) B   10 (A) A   10 (A) B      0.0087
     6 (A) A   8 (A) A   10 (A) A   18 (A) A      0.0087
     7 (A) A   8 (A) A   12 (A) A   16 (A) A      0.0082
     5 (A) A   8 (A) A   10 (A) A   21 (A) A      0.0080
     3 (A) A   4 (A) B   10 (A) A    9 (A) B      0.0079
     4 (A) A   8 (A) B   19 (A) A   10 (A) B     -0.0075
     8 (A) A   8 (A) B    9 (A) A   23 (A) B     -0.0074
     8 (A) A   8 (A) B   10 (A) A   28 (A) B      0.0073
     3 (A) A   8 (A) B   10 (A) A   10 (A) B     -0.0072
     5 (A) A   8 (A) B   10 (A) A   11 (A) B     -0.0071
     3 (A) A   8 (A) A   10 (A) A   24 (A) A      0.0071
     7 (A) A   8 (A) B   16 (A) A   12 (A) B     -0.0071
     3 (A) A   8 (A) B   10 (A) A   18 (A) B      0.0069
     8 (A) A   8 (A) B    9 (A) A   19 (A) B     -0.0068
     6 (A) A   8 (A) B   18 (A) A   10 (A) B     -0.0066
     3 (A) A   6 (A) B   10 (A) A   28 (A) B      0.0062
     7 (A) A   8 (A) B   12 (A) A   11 (A) B      0.0058
     6 (A) A             28 (A) A                -0.0057
     3 (A) A   5 (A) B   10 (A) A   25 (A) B      0.0056
     5 (A) A   8 (A) A   10 (A) A   16 (A) A     -0.0056
     3 (A) A   8 (A) A   10 (A) A   18 (A) A      0.0056
    -----------------------------------------------------

  Density matrix analysis:
  ------------------------
  NOs
    Occupation of frontier NOs:
       0.9824   0.9841
    Number of electrons: 16.000000
    Number of unpaired electrons: n_u =  2.28710, n_u,nl =  2.02480
    NO participation ratio (PR_NO):  2.695907
  
  
  Mulliken Population Analysis
  Atom      Charge (e)              h+              e-           Del q
  --------------------------------------------------------------------
   1 H       -0.157409        0.054355       -0.262349       -0.207994
   2 C        0.327515        0.537322       -0.110729        0.426593
   3 H       -0.168070        0.053667       -0.272205       -0.218538
   4 C        0.324837        0.537353       -0.109684        0.427669
   5 H       -0.158966        0.054336       -0.263061       -0.208726
   6 H       -0.167907        0.053954       -0.272958       -0.219005
  --------------------------------------------------------------------
  Sum:        0.000000        1.290987       -1.290987       -0.000000
  
  Multipole moment analysis of the density matrix
    Molecular charge:                      0.000000
    Number of electrons:                   16.000000
      Center of electronic charge [Ang]: [ -1.559931,  -0.066601,   0.001886]
    Total nuclear charge:                  16.000000
      Center of nuclear charge [Ang]:    [ -1.558701,  -0.065602,   0.001978]
    Dipole moment [D]:                     0.121930
      Cartesian components [D]:          [  0.094489,   0.076740,   0.007052]
    RMS size of the density [Ang]:         1.275737
      Cartesian components [Ang]:        [  0.853598,   0.840174,   0.439298]
  
  Exciton analysis of the difference density matrix
    <r_h> [Ang]:                  [ -1.558730,  -0.065647,   0.001795]
    <r_e> [Ang]:                  [ -1.574095,  -0.077585,   0.000915]
    |<r_e - r_h>| [Ang]:            0.019477
    Hole size [Ang]:                1.409667
      Cartesian components [Ang]: [  0.833446,   0.819954,   0.787530]
    Electron size [Ang]:            2.075695
      Cartesian components [Ang]: [  1.374049,   1.375759,   0.726489]

  Transition density matrix analysis:
  -----------------------------------
  
  CT numbers (Mulliken)
    omega =     0.9260
    <Phe> =    -0.0109
  
  Exciton analysis of the transition density matrix
    Trans. dipole moment [D]:             0.423974
      Cartesian components [D]:         [ -0.019045,  -0.026051,   0.422744]
    <r_h> [Ang]:                        [ -1.556474,  -0.064898,   0.001789]
    <r_e> [Ang]:                        [ -1.579040,  -0.081678,   0.000584]
    |<r_e - r_h>| [Ang]:                  0.028146
    Hole size [Ang]:                      1.211735
      Cartesian components [Ang]:       [  0.635150,   0.623607,   0.822192]
    Electron size [Ang]:                  2.295571
      Cartesian components [Ang]:       [  1.518668,   1.522540,   0.803223]
    RMS electron-hole separation [Ang]:   2.586044
      Cartesian components [Ang]:       [  1.638858,   1.638408,   1.147774]
    Covariance(r_h, r_e) [Ang^2]:         0.025560
    Correlation coefficient:              0.009189
    Center-of-mass size [Ang]:            1.302792
      Cartesian components [Ang]:       [  0.826769,   0.826125,   0.575532]

  Decomposition into state-averaged NTOs
    H- 0 -> L+ 1:  0.6794 ( 92.3%)
                   omega =  92.6%
  ----------------------------------------------------------------------------


  Excited state 4 (singlet, A)                                     [converged]
  ----------------------------------------------------------------------------
  Term symbol:  5 (1) A                                     R^2 =  5.75301e-13

  Total energy:                                            -77.9581462979 a.u.
  Excitation energy:                                               9.834837 eV

  Osc. strength:                                                      0.000017
  Trans. dip. moment [a.u.]:           [   0.000821,   -0.001705,    0.008080]
  <i|r^2|0> [a.u.]:                    [   0.021789,    0.018595,   -0.035993]
  Two-photon absorption cross-section (SoS) [a.u.]:                 147.169847
  Two-photon absorption matrix (SoS) [a.u.]:
                                       |    0.291491    0.322148   -2.990815 |
                                       |    0.322148    0.353472   -3.005792 |
                                       |   -2.990815   -3.005792   -0.644572 |
  Two-photon absorption cross-section [a.u.]:                        89.756192
  Two-photon absorption matrix [a.u.]:
                                       |    0.232278    0.251975   -2.342694 |
                                       |    0.251975    0.271266   -2.340393 |
                                       |   -2.342694   -2.340393   -0.503207 |

  Dip. moment [a.u.]:                  [  -0.050979,   -0.051905,   -0.006332]
  Total dipole [Debye]:                                               0.185619
  <r^2> [a.u.]:                        [ 180.633089,   40.432080,   10.758647]
  Total <r^2> [a.u.]:                                               231.823816

  V1^2 = 0.9635, V2^2 = 0.0365

  Important amplitudes:
      occ i     occ j     vir a      vir b          v   
    -----------------------------------------------------
     8 (A) A             11 (A) A                -0.6697
     7 (A) A              9 (A) A                -0.1501
     8 (A) A             21 (A) A                -0.0781
     8 (A) A             16 (A) A                 0.0649
     8 (A) A   8 (A) B    9 (A) A   13 (A) B     -0.0166
     5 (A) A   8 (A) B   11 (A) A   11 (A) B     -0.0156
     8 (A) A   8 (A) B   11 (A) A   17 (A) B     -0.0140
     7 (A) A             20 (A) A                -0.0137
     7 (A) A   8 (A) B   13 (A) A   11 (A) B      0.0128
     8 (A) A             12 (A) A                -0.0112
     5 (A) A   8 (A) A   11 (A) A   21 (A) A      0.0110
     4 (A) A   8 (A) B   12 (A) A   11 (A) B     -0.0110
     8 (A) A   8 (A) B    9 (A) A   22 (A) B     -0.0107
     7 (A) A   8 (A) A   11 (A) A   22 (A) A     -0.0096
     6 (A) A   8 (A) B   15 (A) A   11 (A) B     -0.0090
     6 (A) A   8 (A) B   10 (A) A   11 (A) B      0.0090
     7 (A) A   8 (A) B   22 (A) A   11 (A) B      0.0089
     3 (A) A   4 (A) B   11 (A) A    9 (A) B      0.0083
     3 (A) A   8 (A) B   11 (A) A   18 (A) B      0.0081
     6 (A) A   8 (A) A   11 (A) A   15 (A) A      0.0081
     7 (A) A   8 (A) A   13 (A) A   16 (A) A      0.0078
     7 (A) A   8 (A) A   11 (A) A   13 (A) A     -0.0077
     5 (A) A   8 (A) B   21 (A) A   11 (A) B     -0.0071
     4 (A) A   8 (A) B   19 (A) A   11 (A) B     -0.0070
     5 (A) A   8 (A) B    9 (A) A    9 (A) B     -0.0067
     8 (A) A             10 (A) A                -0.0063
     4 (A) A   8 (A) A   11 (A) A   12 (A) A      0.0062
     6 (A) A   8 (A) A   11 (A) A   18 (A) A      0.0061
     3 (A) A   6 (A) B   11 (A) A   28 (A) B      0.0060
     6 (A) A   8 (A) B   18 (A) A   11 (A) B     -0.0059
     7 (A) A   8 (A) B   16 (A) A   13 (A) B     -0.0057
     3 (A) A   8 (A) A   11 (A) A   18 (A) A      0.0056
     5 (A) A   8 (A) B   10 (A) A   10 (A) B     -0.0056
     3 (A) A   8 (A) B   11 (A) A   30 (A) B      0.0055
     3 (A) A   5 (A) B   11 (A) A   25 (A) B      0.0055
     6 (A) A   8 (A) B   11 (A) A   10 (A) B      0.0054
     7 (A) A   8 (A) B   12 (A) A   10 (A) B      0.0054
     8 (A) A   8 (A) B   20 (A) A   22 (A) B     -0.0053
     3 (A) A   8 (A) A   11 (A) A   24 (A) A      0.0053
     5 (A) A   8 (A) A   11 (A) A   16 (A) A     -0.0049
    -----------------------------------------------------

  Density matrix analysis:
  ------------------------
  NOs
    Occupation of frontier NOs:
       0.9409   1.0277
    Number of electrons: 16.000000
    Number of unpaired electrons: n_u =  2.31889, n_u,nl =  2.04893
    NO participation ratio (PR_NO):  2.912977
  
  
  Mulliken Population Analysis
  Atom      Charge (e)              h+              e-           Del q
  --------------------------------------------------------------------
   1 H       -0.156912        0.046052       -0.253549       -0.207497
   2 C        0.276056        0.497060       -0.121925        0.375135
   3 H       -0.117929        0.046553       -0.214950       -0.168397
   4 C        0.270457        0.497211       -0.123922        0.373289
   5 H       -0.136544        0.046867       -0.233170       -0.186304
   6 H       -0.135129        0.046076       -0.232303       -0.186226
  --------------------------------------------------------------------
  Sum:        0.000000        1.179819       -1.179819       -0.000000
  
  Multipole moment analysis of the density matrix
    Molecular charge:                      0.000000
    Number of electrons:                   16.000000
      Center of electronic charge [Ang]: [ -1.557015,  -0.063886,   0.002188]
    Total nuclear charge:                  16.000000
      Center of nuclear charge [Ang]:    [ -1.558701,  -0.065602,   0.001978]
    Dipole moment [D]:                     0.185619
      Cartesian components [D]:          [ -0.129576,  -0.131930,  -0.016094]
    RMS size of the density [Ang]:         1.276302
      Cartesian components [Ang]:        [  0.858548,   0.838780,   0.433925]
  
  Exciton analysis of the difference density matrix
    <r_h> [Ang]:                  [ -1.557104,  -0.063967,   0.001945]
    <r_e> [Ang]:                  [ -1.534378,  -0.040207,   0.005066]
    |<r_e - r_h>| [Ang]:            0.033027
    Hole size [Ang]:                1.393612
      Cartesian components [Ang]: [  0.818132,   0.805330,   0.790101]
    Electron size [Ang]:            2.121559
      Cartesian components [Ang]: [  1.445609,   1.397044,   0.677861]

  Transition density matrix analysis:
  -----------------------------------
  
  CT numbers (Mulliken)
    omega =     0.9299
    <Phe> =    -0.0137
  
  Exciton analysis of the transition density matrix
    Trans. dipole moment [D]:             0.010547
      Cartesian components [D]:         [  0.001044,  -0.002167,   0.010269]
    <r_h> [Ang]:                        [ -1.558360,  -0.065544,   0.001684]
    <r_e> [Ang]:                        [ -1.530155,  -0.035077,   0.005659]
    |<r_e - r_h>| [Ang]:                  0.041709
    Hole size [Ang]:                      1.226506
      Cartesian components [Ang]:       [  0.657507,   0.648512,   0.807115]
    Electron size [Ang]:                  2.259530
      Cartesian components [Ang]:       [  1.540645,   1.487753,   0.720056]
    RMS electron-hole separation [Ang]:   2.560615
      Cartesian components [Ang]:       [  1.666726,   1.615509,   1.081160]
    Covariance(r_h, r_e) [Ang^2]:         0.027392
    Correlation coefficient:              0.009884
    Center-of-mass size [Ang]:            1.290792
      Cartesian components [Ang]:       [  0.841817,   0.815324,   0.541049]

  Decomposition into state-averaged NTOs
    H- 0 -> L+ 2: -0.6649 ( 88.4%)
    H- 1 -> L+ 0: -0.1481 (  4.4%)
                   omega =  93.0%
  ----------------------------------------------------------------------------


  Excited state 5 (singlet, A)                                     [converged]
  ----------------------------------------------------------------------------
  Term symbol:  6 (1) A                                     R^2 =  7.60532e-13

  Total energy:                                            -77.9434111976 a.u.
  Excitation energy:                                              10.235799 eV

  Osc. strength:                                                      0.000001
  Trans. dip. moment [a.u.]:           [  -0.000022,   -0.000136,   -0.001985]
  <i|r^2|0> [a.u.]:                    [  -0.085742,    0.103301,   -0.018104]
  Two-photon absorption cross-section (SoS) [a.u.]:                 192.404509
  Two-photon absorption matrix (SoS) [a.u.]:
                                       |   -0.333485   -0.038475    3.460283 |
                                       |   -0.038475    0.405567   -3.454596 |
                                       |    3.460283   -3.454596   -0.082630 |
  Two-photon absorption cross-section [a.u.]:                        90.476125
  Two-photon absorption matrix [a.u.]:
                                       |   -0.231496   -0.027965    2.366443 |
                                       |   -0.027965    0.275044   -2.375369 |
                                       |    2.366443   -2.375369   -0.057177 |

  Dip. moment [a.u.]:                  [   0.007389,   -0.006137,    0.000196]
  Total dipole [Debye]:                                               0.024420
  <r^2> [a.u.]:                        [ 178.325074,   38.640608,   11.834875]
  Total <r^2> [a.u.]:                                               228.800557

  V1^2 = 0.9569, V2^2 = 0.0431

  Important amplitudes:
      occ i     occ j     vir a      vir b          v   
    -----------------------------------------------------
     8 (A) A             12 (A) A                -0.5138
[...]
    16   -1.463237868388e-03
    17   -1.752218545557e-03
    18   -1.065251543712e-04
    19   -3.279837637196e-03
    20    1.131733621175e-02
    21    9.401894702126e-01
    22   -2.713566052113e-04
    23    1.406138854771e-02
    24    8.228512095502e-04
    25    7.048971701926e-02
    26   -5.244314471194e-02
    27   -1.399660444584e+00
    28    1.000055999429e-01
    29   -9.139069646490e-02
    30   -9.810992081944e-04
    31    3.915883873029e-01
    32   -3.624643544136e-01
    33   -4.134087238101e-03
    34    1.558904277535e-02
    35   -1.434747956890e-03
    36   -1.812272524113e-03
    37    2.610405999680e-04
    38   -3.066903686564e-03
    39    9.382513209959e-03
    40    9.307425373420e-01
    41    2.913354023001e-04
    42   -1.394481343110e-02
    43   -8.343774301888e-04
    44    1.049876323146e-02
    45    9.461732747963e-01
    46    1.405061705519e-02
    47    4.992550394043e-04
    48    6.829184099802e-04
Sym=X
Ene= 0.232667
Spin=Alpha
Occup=0
     1    2.689338799638e-02
     2    1.246672562475e+00
     3   -1.453859923460e-02
     4   -3.805804353263e-03
     5   -9.063459112417e-04
     6    3.932940097234e-03
     7   -3.813197673808e-03
     8   -7.164939152152e-02
     9   -1.561609339464e-01
    10   -1.571493397846e-01
    11   -1.663815533731e-02
    12   -5.584985202585e-01
    13   -5.552046400650e-01
    14   -5.904299840113e-02
    15    9.173659181601e-04
    16   -7.928901335071e-05
    17   -1.257278878527e-04
    18    2.382022929553e-04
    19   -4.994392695871e-04
    20   -2.556163657712e-02
    21   -1.147024695440e+00
    22   -2.464444771270e-03
    23   -1.321425941901e-02
    24   -8.996314524048e-04
    25   -2.659724464920e-03
    26    2.908012428052e-03
    27    3.550297503481e-02
    28   -1.545891835156e-01
    29   -1.593767790616e-01
    30   -1.689323504040e-02
    31   -5.405575628937e-01
    32   -5.569541984525e-01
    33   -5.912110981399e-02
    34   -4.609383078829e-04
    35    4.303493595069e-05
    36    1.873394758022e-05
    37    1.900958155921e-04
    38    2.836739227438e-04
    39    2.499092530336e-02
    40    1.157905074984e+00
    41   -2.488175284591e-03
    42   -1.359653249829e-02
    43   -9.366398108979e-04
    44   -2.733253376053e-02
    45   -1.212312766743e+00
    46   -1.406050489152e-02
    47   -3.634708897802e-03
    48   -8.821521602349e-04
Sym=X
Ene= 0.239315
Spin=Alpha
Occup=0
     1   -1.601489157114e-02
     2   -1.048579851365e+00
     3    1.651626659339e-02
     4    9.063964453128e-03
     5    1.328623202628e-03
     6   -8.660026390726e-02
     7    8.005734941582e-02
     8    1.592502066795e+00
     9    5.269844794098e-02
    10   -6.188364155131e-02
    11   -1.023149376464e-03
    12    2.125875628887e-01
    13   -2.412211502909e-01
    14   -3.511947981696e-03
    15   -2.261120640790e-02
    16    2.629054593693e-03
    17    2.963062770476e-03
    18   -5.511709115353e-04
    19    1.289002621810e-02
    20   -1.685046879019e-02
    21   -1.133380213564e+00
    22   -8.548142322497e-03
    23   -1.786989950836e-02
    24   -1.456023542457e-03
    25    8.610150007264e-02
    26   -7.904090129720e-02
    27   -1.585335947386e+00
    28    5.345172760583e-02
    29   -6.181025362539e-02
    30   -1.474421091376e-03
    31    2.110791870294e-01
    32   -2.466889467520e-01
    33   -5.967241525315e-03
    34    2.247625668855e-02
    35   -2.551535743646e-03
    36   -3.015674702354e-03
    37    9.154050666222e-04
    38   -1.268905722615e-02
    39    1.714663697052e-02
    40    1.137257559506e+00
    41   -8.613372471185e-03
    42   -1.798514589774e-02
    43   -1.503160969143e-03
    44    1.557271302114e-02
    45    1.035030370820e+00
    46    1.610695509698e-02
    47    9.318875297270e-03
    48    1.296018955155e-03
Sym=X
Ene= 0.303470
Spin=Alpha
Occup=0
     1    2.116238666690e-02
     2   -1.690722731998e+00
     3    2.293439083984e-02
     4   -3.916639165395e-04
     5    1.073713127072e-03
     6    2.745516791155e-04
     7   -1.197542108241e-04
     8   -7.718409443970e-03
     9    1.335944556837e-01
    10    1.396699118044e-01
    11    1.456944908465e-02
    12    1.148915223712e+00
    13    1.195640816328e+00
    14    1.252946567017e-01
    15    1.738870473155e-04
    16    1.652768109212e-03
    17   -1.874877311992e-03
    18    3.289696684881e-02
    19    1.438801795063e-03
    20   -2.087684970760e-02
    21    1.693326079985e+00
    22   -1.412041323093e-03
    23    2.299998518052e-02
    24    1.280624666375e-03
    25   -1.498821517544e-04
    26   -1.369846234383e-04
    27   -6.496947155752e-04
    28   -1.347646421402e-01
    29   -1.404869535131e-01
    30   -1.479597689675e-02
    31   -1.138520957872e+00
    32   -1.200071041588e+00
    33   -1.254774916407e-01
    34    5.882629991377e-05
    35    1.566236139174e-03
    36   -1.928019474782e-03
    37    3.245085783722e-02
    38    1.440705726563e-03
    39   -2.026907449949e-02
    40    1.695277935895e+00
    41    1.621447935666e-03
    42   -2.288908785042e-02
    43   -1.297225579762e-03
    44    1.924301220493e-02
    45   -1.689508194037e+00
    46   -2.305914334931e-02
    47    5.358373426197e-04
    48   -1.055674609101e-03
Sym=X
Ene= 0.462880
Spin=Alpha
Occup=0
     1   -1.191200358071e-01
     2   -7.129167037893e-01
     3   -1.614214190547e-02
     4   -1.012389941522e-02
     5   -1.357360171314e-03
     6    6.067923299233e-02
     7    1.841137677826e-02
     8   -3.638478042064e+00
     9    1.011138797933e-01
    10   -9.728280959385e-02
    11   -1.016888169069e-03
    12    2.439679168523e+00
    13   -2.324959133082e+00
    14   -2.100140996310e-02
    15    5.446685626175e-02
    16   -3.433053167153e-03
    17   -4.714886387145e-03
    18   -9.680242361233e-04
    19    1.801984495296e-02
    20   -1.211060311748e-01
    21   -7.056773318318e-01
    22    8.995656404602e-03
    23    1.658029509457e-02
    24    1.406749617134e-03
    25   -6.101547775856e-02
    26   -1.642765453514e-02
    27    3.642604904156e+00
    28    1.051418774184e-01
    29   -9.989780665039e-02
    30   -1.267131311555e-03
    31    2.428179000078e+00
    32   -2.320332118033e+00
    33   -2.257526965095e-02
    34   -5.299873415480e-02
    35    3.267783561527e-03
    36    4.489570728127e-03
    37    9.737217412552e-04
    38   -1.985062777111e-02
    39    1.110398735801e-01
    40    7.224669348834e-01
    41    8.794924683301e-03
    42    1.631942037551e-02
    43    1.384690519296e-03
    44    1.122371707225e-01
    45    7.084522385534e-01
    46   -1.576710987923e-02
    47   -9.494348177884e-03
    48   -1.326996307742e-03
Sym=X
Ene= 0.577029
Spin=Alpha
Occup=0
     1    2.461438664879e-01
     2    3.306011263193e-02
     3   -1.845379985309e-02
     4    2.550526565625e-02
     5    6.327589172184e-04
     6   -4.384341586457e-03
     7   -1.601455239940e-01
     8   -4.847206636222e-01
     9    3.007696608499e-01
    10   -2.886901631069e-01
    11   -2.818015575540e-03
    12   -7.091884665285e-01
    13    6.829240118552e-01
    14    7.006075344856e-03
    15   -5.355831305155e-03
    16    3.839888777787e-03
    17    3.565884699217e-03
    18   -3.098327143667e-03
    19    5.933205737802e-02
    20    2.504463447905e-01
    21    2.840742062244e-02
    22   -2.604608563331e-02
    23    1.694930047892e-02
    24   -2.336173428839e-04
    25   -6.477204052033e-03
    26   -1.616172157367e-01
    27   -3.826556927491e-01
    28   -2.980418362574e-01
    29    2.843843436483e-01
    30    2.635380356451e-03
    31    7.786392363848e-01
    32   -7.496667254305e-01
    33   -7.942043588299e-03
    34   -5.486404443975e-03
    35    3.865692925843e-03
    36    3.554642682717e-03
    37   -2.633622575611e-03
    38    5.925696016814e-02
    39    2.453767933591e-01
    40    6.410793536654e-02
    41    2.718354946449e-02
    42   -1.755712430522e-02
    43    2.265445294449e-04
    44    2.468836872343e-01
    45    5.514696379883e-02
    46    1.910519381400e-02
    47   -2.638127084998e-02
    48   -6.833463067603e-04
Sym=X
Ene= 0.615013
Spin=Alpha
Occup=0
     1   -5.171529257550e-01
     2    2.039772980471e-01
     3   -6.097211340958e-02
     4    3.801360570897e-02
     5   -6.634829532999e-04
     6   -2.958464429460e-04
     7   -1.912359632940e-04
     8    2.696807774835e-03
     9   -3.897205762223e-02
    10   -3.871465430979e-02
    11   -4.179711043419e-03
    12    2.872654378963e-01
    13    2.910798201171e-01
    14    3.064971786315e-02
    15    6.422633598392e-04
    16   -7.481460493998e-03
    17    8.331755682062e-03
    18   -1.475533713234e-01
    19   -6.443353187131e-03
    20    5.113448774950e-01
    21   -2.029738444152e-01
    22    4.144889732034e-02
    23   -5.892738961399e-02
    24   -1.518594339779e-03
    25    1.168533421075e-04
    26   -2.632820938672e-03
    27    1.470045682026e-02
    28   -3.732902782777e-02
    29   -4.027674455980e-02
    30   -4.136688742605e-03
    31    2.798559489123e-01
    32    3.008932953036e-01
    33    3.141601511650e-02
    34   -1.177101009149e-03
    35    7.481181720862e-03
    36   -8.622797828775e-03
    37    1.499928334426e-01
    38    7.227150619351e-03
    39   -5.179341245387e-01
    40    2.085411042268e-01
    41    4.044485320134e-02
    42   -5.902231040579e-02
    43   -1.631420596133e-03
    44    5.231089218872e-01
    45   -2.240406382996e-01
    46   -6.158203152655e-02
    47    3.779120981331e-02
    48   -6.178731219447e-04
Sym=X
Ene= 0.688363
Spin=Alpha
Occup=0
     1    5.456813345490e-04
     2    2.264739312006e-04
     3    1.070431794814e-03
     4    1.283553833037e-03
     5   -2.085558067660e-02
     6    3.729561648584e-05
     7    3.574596355780e-04
     8    1.248880898061e-04
     9    3.150755892155e-02
    10    3.977266788129e-02
    11   -6.694160118409e-01
    12   -2.961173210722e-02
    13   -3.566664989644e-02
    14    6.136103921062e-01
    15   -1.429347127393e-03
    16    8.253104447114e-02
    17   -7.861008568184e-02
    18   -8.629074974314e-03
    19   -1.026419181035e-03
    20    5.892986682178e-04
    21    1.450326018588e-05
    22    9.081698319783e-04
    23    1.128752692228e-03
    24   -2.079996389094e-02
    25    1.230341806303e-05
    26    6.152473898763e-04
    27   -7.263715493472e-04
    28    3.192192910345e-02
    29    3.979725364162e-02
    30   -6.692594531246e-01
    31   -3.006092065489e-02
    32   -3.575205144080e-02
    33    6.129085275189e-01
    34    1.118209480551e-03
    35   -8.253301705470e-02
    36    7.878573003868e-02
    37    8.555375419139e-03
    38    1.137011816770e-03
    39    1.517871526915e-04
    40   -7.974146111265e-04
    41    1.019215076160e-03
    42    1.425209475933e-03
    43   -2.117511791615e-02
    44    1.058990907698e-04
    45   -5.866585136405e-04
    46    8.101794157422e-04
    47    1.207347862067e-03
    48   -2.008797889211e-02
Sym=X
Ene= 0.708593
Spin=Alpha
Occup=0
     1   -4.777406607024e-01
     2    1.548763186473e-01
     3   -7.980553925830e-02
     4   -4.415178276402e-02
     5   -6.445926401062e-03
     6   -4.762511065528e-02
     7   -3.200983963952e-01
     8    5.250658045774e-01
     9    2.003433179129e-01
    10   -1.914795834030e-01
    11   -2.441447940151e-03
    12   -9.478559884815e-02
    13    8.719114420533e-02
    14    7.931770471338e-04
    15    1.928377481739e-01
    16   -2.043820261781e-02
    17   -2.381893750574e-02
    18    3.129930168996e-03
    19   -7.835199559878e-02
    20   -4.761352817696e-01
    21    1.517196293160e-01
    22    4.126548471757e-02
    23    8.110416056913e-02
    24    6.705098242016e-03
    25   -4.670076090564e-02
    26   -3.183309124097e-01
    27    4.527575523263e-01
    28   -2.028798105290e-01
    29    1.877060611467e-01
    30    9.376046092772e-04
    31    5.732993552343e-02
    32   -3.690668670221e-02
    33    1.778825595872e-03
    34    1.942030759029e-01
    35   -2.047388843327e-02
    36   -2.390144632430e-02
    37    2.719763099287e-03
    38   -7.558072196373e-02
    39   -4.758864539743e-01
    40    1.298580153825e-01
    41   -4.038842642100e-02
    42   -8.129645180815e-02
    43   -6.753756638684e-03
    44   -4.796116746995e-01
    45    1.534599331420e-01
    46    8.013694294332e-02
    47    4.437551521749e-02
    48    6.459321275509e-03
Sym=X
Ene= 0.785303
Spin=Alpha
Occup=0
     1   -5.296140514073e-01
     2    4.776837949167e-01
     3   -1.118711694214e-01
     4   -2.663675821041e-02
     5   -6.892720907947e-03
     6   -9.116464882357e-02
     7    2.128055242019e-01
     8    6.628210338996e-01
     9   -1.042142487983e-01
    10    1.020981709187e-01
    11    3.999918565432e-06
    12   -3.330374047816e-01
    13    3.107203793975e-01
    14    4.531185992341e-03
    15    2.072315145798e-01
    16   -1.780642900735e-02
    17   -2.178937058294e-02
    18   -2.690552270724e-04
    19   -1.108890615745e-02
    20   -5.361863467674e-01
    21    4.732010277779e-01
    22    2.074607047411e-02
    23    1.126154472061e-01
    24    7.616313976769e-03
    25    9.108162153926e-02
    26   -2.170647336771e-01
    27   -6.705613580203e-01
    28   -1.032129551639e-01
    29    1.078590839045e-01
    30    2.359651791793e-03
    31   -3.336498098953e-01
    32    2.907149595142e-01
    33   -5.405950760851e-04
    34   -2.065188390711e-01
    35    1.751852771402e-02
    36    2.209600553693e-02
    37    5.928375361903e-05
    38    9.630079484884e-03
    39    5.373354678255e-01
    40   -4.595315318826e-01
    41    2.071441705530e-02
    42    1.114947728935e-01
    43    7.653241117135e-03
    44    5.366528237803e-01
    45   -4.870996831304e-01
    46   -1.113400785224e-01
    47   -2.739893174787e-02
    48   -6.909487554738e-03
Sym=X
Ene= 0.808349
Spin=Alpha
Occup=0
     1    6.291588388330e-04
     2   -1.006792981095e-03
     3    1.815718081570e-03
     4    2.035848523083e-03
     5   -3.409335012569e-02
     6    1.285867309970e-04
     7   -4.639739815860e-04
     8   -1.544377051003e-04
     9    3.640227331458e-02
    10    4.471754959737e-02
    11   -7.630112433802e-01
    12   -5.310033038427e-02
    13   -6.679544285012e-02
    14    1.128878075395e+00
    15    6.794620660587e-04
    16   -6.604086746457e-02
    17    6.302549410976e-02
    18    6.960033203087e-03
    19    8.257106465502e-04
    20    6.303140601235e-04
    21   -3.944061088423e-04
    22    1.672304807710e-03
    23    1.906076011021e-03
    24   -3.442287053030e-02
    25   -1.076746899210e-04
    26    3.200713356157e-05
    27    3.946716332717e-04
    28   -3.608231611691e-02
    29   -4.586617769722e-02
    30    7.634041735173e-01
    31    5.420068167273e-02
    32    6.710301081918e-02
    33   -1.128746437196e+00
    34    1.384356900778e-03
    35   -6.607705587843e-02
    36    6.292422215620e-02
    37    6.790671696452e-03
    38    9.636818252356e-04
    39   -6.193199171079e-04
    40    4.958379714091e-04
    41   -1.544448079842e-03
    42   -2.270307952512e-03
    43    3.418254236949e-02
    44   -6.273340019842e-04
    45    1.139298808792e-03
    46   -1.265947217335e-03
    47   -1.986266364819e-03
    48    3.310869101685e-02
Sym=X
Ene= 0.861466
Spin=Alpha
Occup=0
     1    9.206957970897e-03
     2   -1.091668257589e+00
     3    1.466183878586e-01
     4    5.657837281383e-02
     5    1.027483680393e-02
     6   -4.384621832664e-04
     7    5.368064752664e-03
     8   -5.314973736590e-03
     9   -4.076903276379e-01
    10   -4.231452171765e-01
    11   -4.413790002009e-02
    12    9.483161425916e-01
    13    9.886752422210e-01
    14    1.029709632266e-01
    15    6.055941597991e-04
    16    1.162215447077e-02
    17   -1.348831082130e-02
    18    2.337040945046e-01
    19    1.070838722860e-02
    20   -1.360980968204e-02
    21    1.098758114686e+00
    22    5.030339459275e-02
    23    1.506753365801e-01
    24    1.132941991438e-02
    25    9.676585622055e-04
    26    5.048113006642e-03
    27   -2.478332877074e-03
    28   -4.130631370334e-01
    29   -4.285218457934e-01
    30   -4.536890185105e-02
    31    9.564292784045e-01
    32    1.001725900138e+00
    33    1.055787090700e-01
    34   -3.017541910750e-03
    35   -1.155251790750e-02
    36    1.387751783436e-02
    37   -2.360875280719e-01
    38   -1.166515149883e-02
    39    1.482276719185e-02
    40   -1.102941643551e+00
    41    4.778797891902e-02
    42    1.526041700046e-01
    43    1.144947560842e-02
    44   -7.909446483231e-03
    45    1.097279764238e+00
    46    1.484647332390e-01
    47    5.549064019981e-02
    48    1.026215466949e-02
Sym=X
Ene= 0.936041
Spin=Alpha
Occup=0
     1   -1.160696689439e-01
     2    1.278453189299e+00
     3   -1.828254472943e-01
     4    5.901328142026e-03
     5   -8.389607999521e-03
     6   -6.505915861819e-04
     7    5.792067588325e-03
     8   -2.499559153001e-02
     9    4.695433222805e-01
    10    5.066906280222e-01
    11    5.225402253572e-02
    12   -1.453682659149e+00
    13   -1.559957013984e+00
    14   -1.612778128596e-01
    15    9.031096905767e-04
    16   -5.944480596354e-03
    17    6.944103853726e-03
    18   -1.217501468745e-01
    19    2.036559185608e-04
    20    1.166707170268e-01
    21   -1.295245886334e+00
    22    1.091692931307e-02
    23   -1.832344102922e-01
    24   -1.023081516729e-02
    25    1.152244096138e-03
    26    1.329154768757e-02
    27   -5.863633486829e-03
    28   -4.832005844780e-01
    29   -4.868281827173e-01
    30   -5.192312767893e-02
    31    1.485710634876e+00
    32    1.502227896865e+00
    33    1.599501246103e-01
    34   -3.332098681732e-03
    35   -5.929836242762e-03
    36    7.008293905067e-03
    37   -1.183598011868e-01
    38   -1.095664648447e-02
    39    1.179155258287e-01
    40   -1.256190184669e+00
    41   -1.631344899814e-02
    42    1.791813134854e-01
    43    9.925903768277e-03
    44   -1.160059125153e-01
    45    1.292022780427e+00
    46    1.828410378409e-01
    47   -3.897299137073e-03
    48    8.438333925275e-03
Sym=X
Ene= 0.974300
Spin=Alpha
Occup=0
     1   -5.764593922993e-02
     2    9.382809698916e-01
     3   -9.213748918283e-02
     4   -9.879252002782e-02
     5   -1.023460428283e-02
     6    2.653991463031e-02
     7    2.580932335870e-01
     8    4.956469610652e-01
     9    4.858306003230e-01
    10   -4.483753796329e-01
    11   -3.277470327356e-03
    12   -1.505638104578e+00
    13    1.374216156148e+00
    14    9.239124794861e-03
    15   -5.592621182686e-02
    16   -1.267941751125e-02
    17   -9.463863450572e-03
    18    1.245644403254e-02
    19   -3.014681815799e-01
    20   -5.873015326438e-02
    21    8.895881369281e-01
    22    9.543513560251e-02
    23    9.037295797742e-02
    24    9.886788938575e-03
    25   -2.643353111585e-02
    26   -2.449705272652e-01
    27   -5.175106271580e-01
    28    4.692575415844e-01
    29   -4.651603660784e-01
    30   -5.770319464181e-03
    31   -1.441207918914e+00
    32    1.446222340388e+00
    33    1.854781747869e-02
    34    5.488781357824e-02
    35    1.226501294155e-02
    36    9.744504352672e-03
    37   -1.759406212124e-02
    38    2.981763582358e-01
    39    5.868348899241e-02
    40   -9.398746023668e-01
    41    9.395700142931e-02
    42    9.685992680426e-02
    43    1.035594053151e-02
    44    6.049130138106e-02
    45   -8.763025035227e-01
    46   -8.446906900969e-02
    47   -9.800004867613e-02
    48   -9.689839999982e-03
[5D]

======= END OF MOLDEN-FORMATTED INPUT FILE =======


        *************************************************************
        *                                                           *
        *  Thank you very much for using Q-Chem.  Have a nice day.  *
        *                                                           *
        *************************************************************


