                  Welcome to Q-Chem
     A Quantum Leap Into The Future Of Chemistry


 Q-Chem 5.4 (devel), Q-Chem, Inc., Pleasanton, CA (2021)

 E. Epifanovsky,  A. T. B. Gilbert,  Xintian Feng,  Joonho Lee,  Yuezhi Mao,  
 N. Mardirossian,  P. Pokhilko,  A. White,  M. Wormit,  M. P. Coons,  
 A. L. Dempwolff,  Zhengting Gan,  D. Hait,  P. R. Horn,  L. D. Jacobson,  
 I. Kaliman,  J. Kussmann,  A. W. Lange,  Ka Un Lao,  D. S. Levine,  Jie Liu,  
 S. C. McKenzie,  A. F. Morrison,  K. Nanda,  F. Plasser,  D. R. Rehn,  
 M. L. Vidal,  Zhi-Qiang You,  Ying Zhu,  B. Alam,  B. Albrecht,  
 A. Aldossary,  E. Alguire,  J. H. Andersen,  D. Barton,  K. Begam,  A. Behn,  
 Y. A. Bernard,  E. J. Berquist,  H. Burton,  A. Carreras,  K. Carter-Fenk,  
 R. Chakraborty,  A. D. Chien,  K. D. Closser,  V. Cofer-Shabica,  
 S. Dasgupta,  Jia Deng,  M. de Wergifosse,  M. Diedenhofen,  Hainam Do,  
 S. Ehlert,  Po-Tung Fang,  S. Fatehi,  Qingguo Feng,  T. Friedhoff,  
 J. Gayvert,  Qinghui Ge,  G. Gidofalvi,  M. Goldey,  J. Gomes,  
 C. Gonzalez-Espinoza,  S. Gulania,  A. Gunina,  M. W. D. Hanson-Heine,  
 P. H. P. Harbach,  A. W. Hauser,  M. F. Herbst,  M. Hernandez Vera,  
 M. Hodecker,  Z. C. Holden,  S. Houck,  Xunkun Huang,  Kerwin Hui,  
 B. C. Huynh,  M. Ivanov,  Hyunjun Ji,  Hanjie Jiang,  B. Kaduk,  S. Kaehler,  
 K. Khistyaev,  Jaehoon Kim,  P. Klunzinger,  Z. Koczor-Benda,  
 Joong Hoon Koh,  D. Kosenkov,  L. Koulias,  T. Kowalczyk,  C. M. Krauter,  
 K. Kue,  A. Kunitsa,  T. Kus,  A. Landau,  K. V. Lawler,  D. Lefrancois,  
 S. Lehtola,  Rain Li,  Yi-Pei Li,  Jiashu Liang,  M. Liebenthal,  
 Hung-Hsuan Lin,  You-Sheng Lin,  Fenglai Liu,  Kuan-Yu Liu,  
 M. Loipersberger,  A. Luenser,  A. Manjanath,  P. Manohar,  E. Mansoor,  
 S. F. Manzer,  Shan-Ping Mao,  A. V. Marenich,  T. Markovich,  S. Mason,  
 S. A. Maurer,  P. F. McLaughlin,  M. F. S. J. Menger,  J.-M. Mewes,  
 S. A. Mewes,  P. Morgante,  J. W. Mullinax,  K. J. Oosterbaan,  G. Paran,  
 Alexander C. Paul,  Suranjan K. Paul,  F. Pavosevic,  Zheng Pei,  S. Prager,  
 E. I. Proynov,  E. Ramos,  B. Rana,  A. E. Rask,  A. Rettig,  R. M. Richard,  
 F. Rob,  E. Rossomme,  T. Scheele,  M. Scheurer,  M. Schneider,  
 N. Sergueev,  S. M. Sharada,  W. Skomorowski,  D. W. Small,  C. J. Stein,  
 Yu-Chuan Su,  E. J. Sundstrom,  Zhen Tao,  J. Thirman,  T. Tsuchimochi,  
 N. M. Tubman,  S. P. Veccham,  O. Vydrov,  J. Wenzel,  J. Witte,  A. Yamada,  
 Kun Yao,  S. Yeganeh,  S. R. Yost,  A. Zech,  Igor Ying Zhang,  Xing Zhang,  
 Yu Zhang,  D. Zuev,  A. Aspuru-Guzik,  A. T. Bell,  N. A. Besley,  
 K. B. Bravaya,  B. R. Brooks,  D. Casanova,  Jeng-Da Chai,  S. Coriani,  
 C. J. Cramer,  A. E. DePrince, III,  R. A. DiStasio Jr.,  A. Dreuw,  
 B. D. Dunietz,  T. R. Furlani,  W. A. Goddard III,  S. Grimme,  
 S. Hammes-Schiffer,  T. Head-Gordon,  W. J. Hehre,  Chao-Ping Hsu,  
 T.-C. Jagau,  Yousung Jung,  A. Klamt,  Jing Kong,  D. S. Lambrecht,  
 WanZhen Liang,  N. J. Mayhall,  C. W. McCurdy,  J. B. Neaton,  
 C. Ochsenfeld,  J. A. Parkhill,  R. Peverati,  V. A. Rassolov,  Yihan Shao,  
 L. V. Slipchenko,  T. Stauch,  R. P. Steele,  J. E. Subotnik,  
 A. J. W. Thom,  A. Tkatchenko,  D. G. Truhlar,  T. Van Voorhis,  
 T. A. Wesolowski,  K. B. Whaley,  H. L. Woodcock III,  P. M. Zimmerman,  
 S. Faraji,  P. M. W. Gill,  M. Head-Gordon,  J. M. Herbert,  A. I. Krylov

 Additional authors for Version 5.4.1: 
 S. Kotaru,  Shaozhi Li,  Xiangyuan Li,  F. Matz,  A. Molle,  Haisheng Ren,  
 Yingli Su,  Hung-Yi Tsai,  C. Utku,  Fang Wang

 Contributors to earlier versions of Q-Chem not listed above: 
 R. D. Adamson,  B. Austin,  R. Baer,  J. Baker,  G. J. O. Beran,  
 K. Brandhorst,  S. T. Brown,  E. F. C. Byrd,  A. K. Chakraborty,  
 G. K. L. Chan,  Chun-Min Chang,  Yunqing Chen,  C.-L. Cheng,  
 Siu Hung Chien,  D. M. Chipman,  D. L. Crittenden,  H. Dachsel,  
 R. J. Doerksen,  A. D. Dutoi,  R. G. Edgar,  J. Fosso-Tande,  
 L. Fusti-Molnar,  D. Ghosh,  A. Ghysels,  A. Golubeva-Zadorozhnaya,  
 J. Gonthier,  M. S. Gordon,  S. R. Gwaltney,  G. Hawkins,  J. E. Herr,  
 A. Heyden,  S. Hirata,  E. G. Hohenstein,  G. Kedziora,  F. J. Keil,  
 C. Kelley,  Jihan Kim,  R. A. King,  R. Z. Khaliullin,  P. P. Korambath,  
 W. Kurlancheek,  A. Laurent,  A. M. Lee,  M. S. Lee,  S. V. Levchenko,  
 Ching Yeh Lin,  D. Liotard,  E. Livshits,  R. C. Lochan,  I. Lotan,  
 L. A. Martinez-Martinez,  P. E. Maslen,  N. Nair,  D. P. O'Neill,  
 D. Neuhauser,  E. Neuscamman,  C. M. Oana,  R. Olivares-Amaya,  R. Olson,  
 T. M. Perrine,  B. Peters,  P. A. Pieniazek,  A. Prociuk,  Y. M. Rhee,  
 J. Ritchie,  M. A. Rohrdanz,  E. Rosta,  N. J. Russ,  H. F. Schaefer III,  
 M. W. Schmidt,  N. E. Schultz,  S. Sharma,  N. Shenvi,  C. D. Sherrill,  
 A. C. Simmonett,  A. Sodt,  T. Stein,  D. Stuck,  K. S. Thanthiriwatte,  
 V. Vanovschi,  L. Vogt,  Tao Wang,  A. Warshel,  M. A. Watson,  
 C. F. Williams,  Q. Wu,  X. Xu,  Jun Yang,  W. Zhang,  Yan Zhao

 Please cite Q-Chem as follows:
 Y. Shao et al., Mol. Phys. 113, 184-215 (2015)
 DOI: 10.1080/00268976.2014.952696

 Q-Chem 5.4.1 for Intel X86 EM64T Linux

 Parts of Q-Chem use Armadillo 9.800.1 (Horizon Scraper).
 http://arma.sourceforge.net/

 Q-Chem begins on Mon Mar 20 18:35:23 2023  

 Host: cpu186.baobab
0

     Scratch files written to /scratch/fum/qchem79757//
 Processing $rem in /home/share/wesolowski/qc5.aug2021.FDE/config/preferences:
 Processing $rem in /home/fum/.qchemrc:

 Checking the input file for inconsistencies... 	...done.

--------------------------------------------------------------
User input:
--------------------------------------------------------------
$comment
generated from CCJob.Templates
$end

$rem
sym_ignore = true
method = adc(2)
ee_states = 10
basis = cc-pVDZ
mem_static = 1024
mem_total = 40000
adc_davidson_maxiter = 900
adc_davidson_conv = 6
adc_print = 3
adc_prop_es = true
adc_prop_es2es = true
adc_prop_tpa = true
molden_format = True
state_analysis = true
print_orbitals = 15
gen_scfman = false
fde_export_density = true
fde_details = 3
$end

$molecule
0 1
H 0.01597353352820177 -0.23616970903138554 0.0675827445884047
C -1.086203784397201 -0.5165181775892608 -0.002286780422091026
H -1.3101054981202411 -1.6311138611683953 -0.0804148177121872
C -2.053059798394999 0.401750236108792 0.006686759877746711
H -1.830415525318966 1.4243818523385587 0.07920300478804461
H -3.063589405978938 0.1272255922666673 -0.05834670871127076                     
$end
--------------------------------------------------------------
 ----------------------------------------------------------------
             Standard Nuclear Orientation (Angstroms)
    I     Atom           X                Y                Z
 ----------------------------------------------------------------
    1      H       0.0159735335    -0.2361697090     0.0675827446
    2      C      -1.0862037844    -0.5165181776    -0.0022867804
    3      H      -1.3101054981    -1.6311138612    -0.0804148177
    4      C      -2.0530597984     0.4017502361     0.0066867599
    5      H      -1.8304155253     1.4243818523     0.0792030048
    6      H      -3.0635894060     0.1272255923    -0.0583467087
 ----------------------------------------------------------------
 Nuclear Repulsion Energy =          33.23231418 hartrees
 There are        8 alpha and        8 beta electrons
 Requested basis set is cc-pVDZ
 There are 24 shells and 48 basis functions
 Total memory of 40000 MB is distributed as follows: 
   MEM_STATIC is set to 1024 MB
   QALLOC/CCMAN JOB total memory use is  38976 MB
 Warning: actual memory use might exceed 40000 MB

 Total QAlloc Memory Limit  40000 MB
 Mega-Array Size      1001 MB
 MEM_STATIC part      1024 MB

                       Distance Matrix (Angstroms)
             H (  1)   C (  2)   H (  3)   C (  4)   H (  5)
   C (  2)  1.139417
   H (  3)  1.930352  1.139544
   C (  4)  2.165998  1.333457  2.166127
   H (  5)  2.483288  2.080285  3.103587  1.049097
   H (  6)  3.103486  2.080289  2.483335  1.049173  1.795063

 A cutoff of  1.0D-11 yielded    300 shell pairs
 There are      1220 function pairs (      1329 Cartesian)
 Smallest overlap matrix eigenvalue = 4.81E-03

 Scale SEOQF with 1.000000e-01/1.000000e-01/1.000000e+00

 Standard Electronic Orientation quadrupole field applied
 Nucleus-field energy     =     0.0000000022 hartrees
 Guess from superposition of atomic densities
 Warning:  Energy on first SCF cycle will be non-variational
 SAD guess density has 16.000000 electrons
 A restricted Hartree-Fock SCF calculation will be
 performed using Pulay DIIS extrapolation
 SCF converges when DIIS error is below 1.0E-08
 using 10 threads for integral computing
 -------------------------------------------------------
 OpenMP Integral computing Module                
 Release: version 1.0, May 2013, Q-Chem Inc. Pittsburgh 
 -------------------------------------------------------
 ---------------------------------------
  Cycle       Energy         DIIS Error
 ---------------------------------------
    1     -78.3991247312      9.97E-02
    2     -78.0115534441      7.24E-03
    3     -78.0324275786      1.99E-03
    4     -78.0340073101      7.42E-04
    5     -78.0342042363      1.33E-04
    6     -78.0342102688      3.46E-05
    7     -78.0342111826      1.43E-05
    8     -78.0342113291      4.37E-06
    9     -78.0342113474      7.52E-07
   10     -78.0342113478      6.66E-08
   11     -78.0342113478      5.60E-09 Convergence criterion met
 ---------------------------------------
 SCF time:  CPU 2.46 s  wall 2.42 s
 SCF   energy in the final basis set = -78.03421135
 Total energy in the final basis set = -78.03421135
Exporting Density Matrix to file 'Densmat_SCF.txt'.
Export successful
================================================================================
|                                                                              |
|                                 A D C  M A N                                 |
|                                                                              |
 ------------------------------------------------------------------------------ 
|                                                                              |
| Components:                                                                  |
|                                                                              |
| - libvmm - 1.3-trunk                                                         |
|   Authors:                                                                   |
|   Evgeny Epifanovsky, Ilya Kaliman                                           |
|                                                                              |
| - libtensor - 2.5-trunk                                                      |
|   Authors:                                                                   |
|   Evgeny Epifanovsky, Michael Wormit, Dmitry Zuev, Sam Manzer,               |
|   Ilya Kaliman                                                               |
|                                                                              |
| - libwfa - 1.1-trunk                                                         |
|   Authors:                                                                   |
|   Felix Plasser, Stefanie Mewes (Baeppler), Benjamin Thomitzni,              |
|   Michael Wormit, Feng Chen, Anna I. Krylov, Pavel Pokhilko                  |
|                                                                              |
| - libadc - 1.1-trunk                                                         |
|   Authors:                                                                   |
|   Michael Wormit, Adrian L. Dempwolff, Philipp H. P. Harbach,                |
|   Caroline Krauter, Dirk Rehn, Matthias Schneider, Jan Wenzel                |
|                                                                              |
| - adcman - 2.6-trunk                                                         |
|   Authors:                                                                   |
|   Michael Wormit, Adrian L. Dempwolff, Philipp H. P. Harbach,                |
|   Caroline Krauter, Daniel Lefrancois, Jan-Michael Mewes, Dirk Rehn,         |
|   Matthias Schneider, Jan Wenzel, Andreas Dreuw                              |
|                                                                              |
| Authors of earlier versions of ADCMAN:                                       |
| Andreas Dreuw, Jan Hendrik Starcke, Dirk Rehn, Michael Wormit                |
|                                                                              |
================================================================================

 Created directory /scratch/fum/qchem79757/plots
  Import QC data ...  CPU 0.00 s  wall 0.00 s

 Alpha MOs, Restricted
 -- Occupied --                  
-11.247 -11.229  -1.031  -0.786  -0.638  -0.582  -0.498  -0.375
  1 A     2 A     3 A     4 A     5 A     6 A     7 A     8 A                  
 -- Virtual --                   
  0.168   0.201   0.231   0.237   0.302   0.463   0.580   0.609
  9 A    10 A    11 A    12 A    13 A    14 A    15 A    16 A                  
  0.688   0.701   0.780   0.807   0.856   0.933   0.968   1.010
 17 A    18 A    19 A    20 A    21 A    22 A    23 A    24 A                  
  1.130   1.236   1.240   1.263   1.292   1.591   1.706   1.769
 25 A    26 A    27 A    28 A    29 A    30 A    31 A    32 A                  
  1.808   1.847   1.861   1.901   1.960   1.976   2.224   2.243
 33 A    34 A    35 A    36 A    37 A    38 A    39 A    40 A                  
  2.360   2.416   2.480   2.608   2.707   2.811   3.133   3.384
 41 A    42 A    43 A    44 A    45 A    46 A    47 A    48 A                  

 Beta MOs, Restricted
 -- Occupied --                  
-11.247 -11.229  -1.031  -0.786  -0.638  -0.582  -0.498  -0.375
  1 A     2 A     3 A     4 A     5 A     6 A     7 A     8 A                  
 -- Virtual --                   
  0.168   0.201   0.231   0.237   0.302   0.463   0.580   0.609
  9 A    10 A    11 A    12 A    13 A    14 A    15 A    16 A                  
  0.688   0.701   0.780   0.807   0.856   0.933   0.968   1.010
 17 A    18 A    19 A    20 A    21 A    22 A    23 A    24 A                  
  1.130   1.236   1.240   1.263   1.292   1.591   1.706   1.769
 25 A    26 A    27 A    28 A    29 A    30 A    31 A    32 A                  
  1.808   1.847   1.861   1.901   1.960   1.976   2.224   2.243
 33 A    34 A    35 A    36 A    37 A    38 A    39 A    40 A                  
  2.360   2.416   2.480   2.608   2.707   2.811   3.133   3.384
 41 A    42 A    43 A    44 A    45 A    46 A    47 A    48 A                  
  Import AO data ...  CPU 0.00 s  wall 0.00 s
  Using point group: C1
  Irreducible representations in point group: A
  Molecular orbitals: 
  Occupied MOs:
  Block   0:   1 (  A) A   2 (  A) A   3 (  A) A   4 (  A) A   5 (  A) A
                  -11.25      -11.23      -1.031     -0.7863     -0.6377
               6 (  A) A   7 (  A) A   8 (  A) A
                 -0.5817     -0.4979     -0.3746
  Block   1:   1 (  A) B   2 (  A) B   3 (  A) B   4 (  A) B   5 (  A) B
                  -11.25      -11.23      -1.031     -0.7863     -0.6377
               6 (  A) B   7 (  A) B   8 (  A) B
                 -0.5817     -0.4979     -0.3746
  Virtual MOs:
  Block   0:   9 (  A) A  10 (  A) A  11 (  A) A  12 (  A) A  13 (  A) A
                  0.1678      0.2015      0.2308      0.2366      0.3024
              14 (  A) A  15 (  A) A  16 (  A) A  17 (  A) A  18 (  A) A
                  0.4627      0.5799      0.6087      0.6883      0.7006
              19 (  A) A  20 (  A) A  21 (  A) A  22 (  A) A
                  0.7801       0.807      0.8561      0.9329
  Block   1:  23 (  A) A  24 (  A) A  25 (  A) A  26 (  A) A  27 (  A) A
                  0.9682        1.01        1.13       1.236        1.24
              28 (  A) A  29 (  A) A  30 (  A) A  31 (  A) A  32 (  A) A
                   1.263       1.292       1.591       1.706       1.769
              33 (  A) A  34 (  A) A  35 (  A) A  36 (  A) A
                   1.808       1.847       1.861       1.901
  Block   2:  37 (  A) A  38 (  A) A  39 (  A) A  40 (  A) A  41 (  A) A
                    1.96       1.976       2.224       2.243        2.36
              42 (  A) A  43 (  A) A  44 (  A) A  45 (  A) A  46 (  A) A
                   2.416        2.48       2.608       2.707       2.811
              47 (  A) A  48 (  A) A
                   3.133       3.384
  Block   3:   9 (  A) B  10 (  A) B  11 (  A) B  12 (  A) B  13 (  A) B
                  0.1678      0.2015      0.2308      0.2366      0.3024
              14 (  A) B  15 (  A) B  16 (  A) B  17 (  A) B  18 (  A) B
                  0.4627      0.5799      0.6087      0.6883      0.7006
              19 (  A) B  20 (  A) B  21 (  A) B  22 (  A) B
                  0.7801       0.807      0.8561      0.9329
  Block   4:  23 (  A) B  24 (  A) B  25 (  A) B  26 (  A) B  27 (  A) B
                  0.9682        1.01        1.13       1.236        1.24
              28 (  A) B  29 (  A) B  30 (  A) B  31 (  A) B  32 (  A) B
                   1.263       1.292       1.591       1.706       1.769
              33 (  A) B  34 (  A) B  35 (  A) B  36 (  A) B
                   1.808       1.847       1.861       1.901
  Block   5:  37 (  A) B  38 (  A) B  39 (  A) B  40 (  A) B  41 (  A) B
                    1.96       1.976       2.224       2.243        2.36
              42 (  A) B  43 (  A) B  44 (  A) B  45 (  A) B  46 (  A) B
                   2.416        2.48       2.608       2.707       2.811
              47 (  A) B  48 (  A) B
                   3.133       3.384
  Import MO data ...  CPU 0.02 s  wall 0.01 s
  Import HF data ...  CPU 0.33 s  wall 0.11 s
  Import 2e integrals ...  CPU 1.30 s  wall 0.23 s

--------------------------------------------------------------------------------
                                   HF Summary                                   
--------------------------------------------------------------------------------
  Energy:                                                  -78.0342113478 a.u.
  Dip. moment [a.u.]:                  [  -0.015187,    0.014462,    0.000167]
  Total dipole [Debye]:                                               0.053305
  <r^2> [a.u.]:                        [ 176.219861,   35.296875,   11.679199]
  Total <r^2> [a.u.]:                                               223.195936
--------------------------------------------------------------------------------
  HF properties ...  CPU 0.03 s  wall 0.02 s
  MP(1) calculation ...  CPU 0.01 s  wall 0.01 s
  N^6 prerequesite intermediates ...  CPU 0.85 s  wall 0.14 s
  Difference density matrix of state mp2_gs printed to ASCII file 'State_mp2_gs_Difference.txt'
Exporting MP density matrix to file 'Densmat_MP.txt'.
Export successful
  Total density matrix of state mp2_gs printed to ASCII file 'State_mp2_gs_Total.txt'
Exporting MP density matrix to file 'Densmat_MP.txt'.
Export successful

--------------------------------------------------------------------------------
                                 MP(2) Summary                                  
--------------------------------------------------------------------------------
  MP energy contribution:                                   -0.2805065331 a.u.
  Total energy:                                            -78.3147178809 a.u.
  Dip. moment [a.u.]:                  [  -0.014735,    0.014024,    0.000163]
  Total dipole [Debye]:                                               0.051704
  <r^2> [a.u.]:                        [ 176.261700,   35.331501,   11.506129]
  Total <r^2> [a.u.]:                                               223.099331

  Density matrix analysis:
  ------------------------
  NOs
    Occupation of frontier NOs:
       0.0455   1.9380
    Number of electrons: 16.000000
    Number of unpaired electrons: n_u =  0.40760, n_u,nl =  0.04593
    NO participation ratio (PR_NO): 13.881331
  
  
  Mulliken Population Analysis
  Atom      Charge (e)              h+              e-           Del q
  --------------------------------------------------------------------
   1 H        0.064459        0.013248       -0.011647        0.001601
   2 C       -0.162211        0.101493       -0.103052       -0.001559
   3 H        0.064479        0.013247       -0.011648        0.001599
   4 C       -0.051536        0.087877       -0.096966       -0.009089
   5 H        0.042395        0.014725       -0.011001        0.003724
   6 H        0.042414        0.014725       -0.011001        0.003723
  --------------------------------------------------------------------
  Sum:        0.000000        0.245315       -0.245315        0.000000
  
  Multipole moment analysis of the density matrix
    Molecular charge:                      0.000000
    Number of electrons:                   16.000000
      Center of electronic charge [Ang]: [ -1.563495,  -0.063232,   0.002146]
    Total nuclear charge:                  16.000000
      Center of nuclear charge [Ang]:    [ -1.563982,  -0.062768,   0.002152]
    Dipole moment [D]:                     0.051704
      Cartesian components [D]:          [ -0.037452,   0.035644,   0.000413]
    RMS size of the density [Ang]:         1.206696
      Cartesian components [Ang]:        [  0.800236,   0.783815,   0.448746]
  
  Exciton analysis of the difference density matrix
    <r_h> [Ang]:                  [ -1.544795,  -0.081016,   0.001967]
    <r_e> [Ang]:                  [ -1.545771,  -0.080071,   0.001978]
    |<r_e - r_h>| [Ang]:            0.001358
    Hole size [Ang]:                1.402893
      Cartesian components [Ang]: [  0.853908,   0.841204,   0.728919]
    Electron size [Ang]:            1.361972
      Cartesian components [Ang]: [  0.879717,   0.864467,   0.577722]
--------------------------------------------------------------------------------
  MP(2) calculation ...  CPU 0.44 s  wall 0.23 s
  Start ADC(2)-s ...  CPU 0.02 s  wall 0.01 s
  ADC(2) intermediates ...  CPU 0.04 s  wall 0.01 s
  Starting Davidson for singlet states of irrep A ... 
--------------------------------------------------------------------------------
   It NVec Conv  Avg. Norm  Max. Norm  Conv. states           Remark
--------------------------------------------------------------------------------
        10    0  1.328e-01  4.685e-01  0.4108 n n n n n n n n Guess.
    1   20    0  2.374e-02  1.211e-01  0.3262 n n n n n n n n 
    2   30    0  6.034e-03  2.758e-02  0.3214 n n n n n n n n 
    3   40    0  2.341e-03  1.586e-02  0.3210 n n n n n n n n 
    4   50    0  8.881e-04  7.474e-03  0.3210 n n n n n n n n 
    5   20    0  4.603e-04  3.382e-03  0.3210 n n n n n n n n Subspace collapsed.
    6   30    0  3.171e-04  2.684e-03  0.3210 n n n n n n n n 
    7   40    0  2.725e-04  2.571e-03  0.3210 n n n n n n n n 
    8   50    0  1.177e-04  9.933e-04  0.3210 n n n n n n n n 
    9   20    1  8.823e-05  8.241e-04  0.3210 n n n y n n n n Subspace collapsed.
   10   30    2  8.535e-05  7.819e-04  0.3210 n n y y n n n n 
   11   40    5  4.567e-05  4.005e-04  0.3210 n y y y y y n n 
   12   50    6  1.997e-05  1.649e-04  0.3210 y y y y y y n n 
   13   20    6  9.356e-06  7.785e-05  0.3210 y y y y y y n n Subspace collapsed.
   14   30    6  7.398e-06  6.221e-05  0.3210 y y y y y y n n 
   15   40    7  4.886e-06  4.339e-05  0.3210 y y y y y y n y 
   16   50    7  2.808e-06  2.439e-05  0.3210 y y y y y y n y 
   17   20    8  2.045e-06  1.839e-05  0.3210 y y y y y y n y Subspace collapsed.
   18   30    7  1.820e-06  1.642e-05  0.3210 y y y y y y n y 
   19   40    8  1.299e-06  1.215e-05  0.3210 y y y y y y n y 
   20   50    8  1.044e-06  1.015e-05  0.3210 y y y y y y n y 
   21   20    9  5.537e-07  5.454e-06  0.3210 y y y y y y y y Subspace collapsed.
   22   30    9  3.929e-07  3.844e-06  0.3210 y y y y y y y y 
   23   32    9  3.792e-07  3.716e-06  0.3210 y y y y y y y y 
   24   34    9  3.787e-07  3.705e-06  0.3210 y y y y y y y y 
   25   36    9  3.790e-07  3.714e-06  0.3210 y y y y y y y y 
   26   37    9  3.816e-07  3.741e-06  0.3210 y y y y y y y y 
   27   37    9  3.816e-07  3.741e-06  0.3210 y y y y y y y y 
   28   47    9  2.477e-07  2.426e-06  0.3210 y y y y y y y y 
   29   50    9  2.208e-07  2.152e-06  0.3210 y y y y y y y y 
   30   16    9  1.609e-07  1.549e-06  0.3210 y y y y y y y y Subspace collapsed.
   31   16    9  1.609e-07  1.549e-06  0.3210 y y y y y y y y 
   32   25    9  1.653e-07  1.628e-06  0.3210 y y y y y y y y 
   33   30    9  1.739e-07  1.727e-06  0.3210 y y y y y y y y 
   34   34    9  1.378e-07  1.373e-06  0.3210 y y y y y y y y 
   35   38   10  7.046e-08  7.029e-07  0.3210 y y y y y y y y Converged.
--------------------------------------------------------------------------------
  Davidson Summary: 
 ------------------------------------------------------------
  State  0: excitation energy =   0.3210 a.u.   (converged)
  State  1: excitation energy =   0.3282 a.u.   (converged)
  State  2: excitation energy =   0.3344 a.u.   (converged)
  State  3: excitation energy =   0.3572 a.u.   (converged)
  State  4: excitation energy =   0.3738 a.u.   (converged)
  State  5: excitation energy =   0.3865 a.u.   (converged)
  State  6: excitation energy =   0.4179 a.u.   (converged)
  State  7: excitation energy =   0.4444 a.u.   (converged)
  State  8: excitation energy =   0.4540 a.u.   (converged)
  State  9: excitation energy =   0.4576 a.u.   (converged)
 ------------------------------------------------------------

  Singlet states of irrep A ...  CPU 212.54 s  wall 68.09 s
  TDMs ...  CPU 2.27 s  wall 0.80 s
  SDMs ...  CPU 4.54 s  wall 1.39 s
  Starting TPA DIIS iterations ... 
------------------------------------ 
   It     Res. Norm  Remark
------------------------------------
                       Guess.
    1     4.396e+00  
    2     5.833e+00  
    3     1.087e+00  
    4     2.649e-01  
    5     6.516e-02  
    6     2.816e-02  
    7     8.513e-03  
    8     1.607e-03  
    9     6.171e-04  
   10     9.863e-05  
   11     3.548e-05  
   12     5.824e-06  
   13     2.072e-06  
   14     6.041e-07  Converged.
   ... Converged in 14 steps (norm: 6.04079e-07)
------------------------------------
  Starting TPA DIIS iterations ... 
------------------------------------ 
   It     Res. Norm  Remark
------------------------------------
                       Guess.
    1     4.186e+00  
    2     5.544e+00  
    3     1.038e+00  
    4     2.627e-01  
    5     6.484e-02  
    6     2.817e-02  
    7     8.374e-03  
    8     1.631e-03  
    9     6.268e-04  
   10     9.796e-05  
   11     3.576e-05  
   12     5.827e-06  
   13     2.139e-06  
   14     6.076e-07  Converged.
   ... Converged in 14 steps (norm: 6.07617e-07)
------------------------------------
  Starting TPA DIIS iterations ... 
------------------------------------ 
   It     Res. Norm  Remark
------------------------------------
                       Guess.
    1     6.863e-01  
    2     4.812e-01  
    3     1.693e-01  
    4     6.362e-02  
    5     1.919e-02  
    6     7.143e-03  
    7     1.325e-03  
    8     4.820e-04  
    9     1.885e-04  
   10     3.636e-05  
   11     1.414e-05  
   12     4.857e-06  
   13     2.394e-06  
   14     8.743e-07  Converged.
   ... Converged in 14 steps (norm: 8.74253e-07)
------------------------------------
  Starting TPA DIIS iterations ... 
------------------------------------ 
   It     Res. Norm  Remark
------------------------------------
                       Guess.
    1     4.571e+00  
    2     6.146e+00  
    3     1.137e+00  
    4     2.829e-01  
    5     7.019e-02  
    6     3.053e-02  
    7     9.217e-03  
    8     1.740e-03  
    9     6.716e-04  
   10     1.077e-04  
   11     3.901e-05  
   12     6.447e-06  
   13     2.306e-06  
   14     6.732e-07  Converged.
   ... Converged in 14 steps (norm: 6.73196e-07)
------------------------------------
  Starting TPA DIIS iterations ... 
------------------------------------ 
   It     Res. Norm  Remark
------------------------------------
                       Guess.
    1     4.352e+00  
    2     5.842e+00  
    3     1.086e+00  
    4     2.804e-01  
    5     6.985e-02  
    6     3.055e-02  
    7     9.067e-03  
    8     1.768e-03  
    9     6.825e-04  
   10     1.070e-04  
   11     3.931e-05  
   12     6.451e-06  
   13     2.382e-06  
   14     6.777e-07  Converged.
   ... Converged in 14 steps (norm: 6.77688e-07)
------------------------------------
  Starting TPA DIIS iterations ... 
------------------------------------ 
   It     Res. Norm  Remark
------------------------------------
                       Guess.
    1     6.938e-01  
    2     4.919e-01  
    3     1.752e-01  
    4     6.864e-02  
    5     2.012e-02  
    6     7.531e-03  
    7     1.424e-03  
    8     5.167e-04  
    9     2.040e-04  
   10     4.014e-05  
   11     1.569e-05  
   12     5.375e-06  
   13     2.739e-06  
   14     1.011e-06  
   15     3.291e-07  Converged.
   ... Converged in 15 steps (norm: 3.29075e-07)
------------------------------------
  Starting TPA DIIS iterations ... 
------------------------------------ 
   It     Res. Norm  Remark
------------------------------------
                       Guess.
    1     4.728e+00  
    2     6.430e+00  
    3     1.182e+00  
    4     2.994e-01  
    5     7.481e-02  
    6     3.271e-02  
    7     9.863e-03  
    8     1.863e-03  
    9     7.221e-04  
   10     1.160e-04  
   11     4.230e-05  
   12     7.030e-06  
   13     2.526e-06  
   14     7.384e-07  Converged.
   ... Converged in 14 steps (norm: 7.38418e-07)
------------------------------------
  Starting TPA DIIS iterations ... 
------------------------------------ 
   It     Res. Norm  Remark
------------------------------------
                       Guess.
    1     4.501e+00  
    2     6.112e+00  
    3     1.128e+00  
    4     2.966e-01  
    5     7.445e-02  
    6     3.274e-02  
    7     9.704e-03  
    8     1.894e-03  
    9     7.340e-04  
   10     1.153e-04  
   11     4.261e-05  
   12     7.034e-06  
   13     2.612e-06  
   14     7.439e-07  Converged.
   ... Converged in 14 steps (norm: 7.43915e-07)
------------------------------------
  Starting TPA DIIS iterations ... 
------------------------------------ 
   It     Res. Norm  Remark
------------------------------------
                       Guess.
    1     7.003e-01  
    2     5.012e-01  
    3     1.805e-01  
    4     7.330e-02  
    5     2.095e-02  
    6     7.882e-03  
    7     1.515e-03  
    8     5.483e-04  
    9     2.182e-04  
   10     4.372e-05  
   11     1.715e-05  
   12     5.859e-06  
   13     3.073e-06  
   14     1.147e-06  
   15     3.727e-07  Converged.
   ... Converged in 15 steps (norm: 3.72675e-07)
------------------------------------
  Starting TPA DIIS iterations ... 
------------------------------------ 
   It     Res. Norm  Remark
------------------------------------
                       Guess.
    1     5.398e+00  
    2     7.675e+00  
    3     1.372e+00  
    4     3.742e-01  
    5     9.574e-02  
    6     4.271e-02  
    7     1.280e-02  
    8     2.423e-03  
    9     9.540e-04  
   10     1.544e-04  
   11     5.773e-05  
   12     9.777e-06  
   13     3.591e-06  
   14     1.054e-06  
   15     3.261e-07  Converged.
   ... Converged in 15 steps (norm: 3.26055e-07)
------------------------------------
  Starting TPA DIIS iterations ... 
------------------------------------ 
   It     Res. Norm  Remark
------------------------------------
                       Guess.
    1     5.137e+00  
    2     7.293e+00  
    3     1.308e+00  
    4     3.700e-01  
    5     9.530e-02  
    6     4.281e-02  
    7     1.260e-02  
    8     2.468e-03  
    9     9.707e-04  
   10     1.536e-04  
   11     5.813e-05  
   12     9.784e-06  
   13     3.723e-06  
   14     1.066e-06  
   15     3.344e-07  Converged.
   ... Converged in 15 steps (norm: 3.34426e-07)
------------------------------------
  Starting TPA DIIS iterations ... 
------------------------------------ 
   It     Res. Norm  Remark
------------------------------------
                       Guess.
    1     7.256e-01  
    2     5.389e-01  
    3     2.025e-01  
    4     9.498e-02  
    5     2.443e-02  
    6     9.439e-03  
    7     1.927e-03  
    8     6.874e-04  
    9     2.823e-04  
   10     6.096e-05  
   11     2.420e-05  
   12     8.147e-06  
   13     4.778e-06  
   14     1.876e-06  
   15     5.743e-07  Converged.
   ... Converged in 15 steps (norm: 5.74286e-07)
------------------------------------
  Starting TPA DIIS iterations ... 
------------------------------------ 
   It     Res. Norm  Remark
------------------------------------
                       Guess.
    1     5.986e+00  
    2     8.808e+00  
    3     1.537e+00  
    4     4.453e-01  
    5     1.156e-01  
    6     5.234e-02  
    7     1.559e-02  
    8     2.956e-03  
    9     1.178e-03  
   10     1.916e-04  
   11     7.299e-05  
   12     1.250e-05  
   13     4.686e-06  
   14     1.385e-06  
   15     4.354e-07  Converged.
   ... Converged in 15 steps (norm: 4.35443e-07)
------------------------------------
  Starting TPA DIIS iterations ... 
------------------------------------ 
   It     Res. Norm  Remark
------------------------------------
                       Guess.
    1     5.696e+00  
    2     8.369e+00  
    3     1.466e+00  
    4     4.395e-01  
    5     1.151e-01  
    6     5.251e-02  
    7     1.535e-02  
    8     3.017e-03  
    9     1.200e-03  
   10     1.906e-04  
   11     7.345e-05  
   12     1.251e-05  
   13     4.865e-06  
   14     1.404e-06  
   15     4.476e-07  Converged.
   ... Converged in 15 steps (norm: 4.4765e-07)
------------------------------------
  Starting TPA DIIS iterations ... 
------------------------------------ 
   It     Res. Norm  Remark
------------------------------------
                       Guess.
    1     7.452e-01  
    2     5.697e-01  
    3     2.211e-01  
    4     1.162e-01  
    5     2.746e-02  
    6     1.087e-02  
    7     2.319e-03  
    8     8.138e-04  
    9     3.431e-04  
   10     7.859e-05  
   11     3.144e-05  
   12     1.043e-05  
   13     6.658e-06  
   14     2.696e-06  
   15     7.565e-07  Converged.
   ... Converged in 15 steps (norm: 7.56518e-07)
------------------------------------
  Starting TPA DIIS iterations ... 
------------------------------------ 
   It     Res. Norm  Remark
------------------------------------
                       Guess.
    1     6.513e+00  
    2     9.850e+00  
    3     1.684e+00  
    4     5.127e-01  
    5     1.344e-01  
    6     6.157e-02  
    7     1.824e-02  
    8     3.463e-03  
    9     1.394e-03  
   10     2.273e-04  
   11     8.781e-05  
   12     1.516e-05  
   13     5.778e-06  
   14     1.724e-06  
   15     5.476e-07  Converged.
   ... Converged in 15 steps (norm: 5.47598e-07)
------------------------------------
  Starting TPA DIIS iterations ... 
------------------------------------ 
   It     Res. Norm  Remark
------------------------------------
                       Guess.
    1     6.196e+00  
    2     9.359e+00  
    3     1.606e+00  
    4     5.055e-01  
    5     1.338e-01  
    6     6.182e-02  
    7     1.796e-02  
    8     3.540e-03  
    9     1.420e-03  
   10     2.263e-04  
   11     8.832e-05  
   12     1.517e-05  
   13     6.006e-06  
   14     1.754e-06  
   15     5.639e-07  Converged.
   ... Converged in 15 steps (norm: 5.63896e-07)
------------------------------------
  Starting TPA DIIS iterations ... 
------------------------------------ 
   It     Res. Norm  Remark
------------------------------------
                       Guess.
    1     7.609e-01  
    2     5.958e-01  
    3     2.373e-01  
    4     1.366e-01  
    5     3.022e-02  
    6     1.221e-02  
    7     2.693e-03  
    8     9.292e-04  
    9     4.006e-04  
   10     9.612e-05  
   11     3.871e-05  
   12     1.267e-05  
   13     8.652e-06  
   14     3.548e-06  
   15     9.237e-07  Converged.
   ... Converged in 15 steps (norm: 9.23693e-07)
------------------------------------
  Starting TPA DIIS iterations ... 
------------------------------------ 
   It     Res. Norm  Remark
------------------------------------
                       Guess.
    1     8.186e+00  
    2     1.332e+01  
    3     2.145e+00  
    4     7.474e-01  
    5     1.999e-01  
    6     9.434e-02  
    7     2.747e-02  
    8     5.245e-03  
    9     2.164e-03  
   10     3.540e-04  
   11     1.404e-04  
   12     2.476e-05  
   13     9.775e-06  
   14     3.096e-06  
   15     9.966e-07  Converged.
   ... Converged in 15 steps (norm: 9.96614e-07)
------------------------------------
  Starting TPA DIIS iterations ... 
------------------------------------ 
   It     Res. Norm  Remark
------------------------------------
                       Guess.
    1     7.783e+00  
    2     1.266e+01  
    3     2.043e+00  
    4     7.342e-01  
    5     1.991e-01  
    6     9.489e-02  
    7     2.708e-02  
    8     5.378e-03  
    9     2.206e-03  
   10     3.529e-04  
   11     1.410e-04  
   12     2.482e-05  
   13     1.018e-05  
   14     3.170e-06  
   15     1.030e-06  
   16     3.348e-07  Converged.
   ... Converged in 16 steps (norm: 3.34847e-07)
------------------------------------
  Starting TPA DIIS iterations ... 
------------------------------------ 
   It     Res. Norm  Remark
------------------------------------
                       Guess.
    1     8.029e-01  
    2     6.710e-01  
    3     2.860e-01  
    4     2.076e-01  
    5     3.939e-02  
    6     1.665e-02  
    7     4.004e-03  
    8     1.304e-03  
    9     6.013e-04  
   10     1.604e-04  
   11     6.621e-05  
   12     2.057e-05  
   13     1.679e-05  
   14     6.844e-06  
   15     1.611e-06  
   16     8.081e-07  Converged.
   ... Converged in 16 steps (norm: 8.08092e-07)
------------------------------------
  Starting TPA DIIS iterations ... 
------------------------------------ 
   It     Res. Norm  Remark
------------------------------------
                       Guess.
    1     1.021e+01  
    2     1.782e+01  
    3     2.688e+00  
    4     1.064e+00  
    5     2.889e-01  
    6     1.401e-01  
    7     4.006e-02  
    8     7.701e-03  
    9     3.246e-03  
   10     5.303e-04  
   11     2.108e-04  
   12     3.873e-05  
   13     1.527e-05  
   14     5.338e-06  
   15     1.806e-06  
   16     5.557e-07  Converged.
   ... Converged in 16 steps (norm: 5.55652e-07)
------------------------------------
  Starting TPA DIIS iterations ... 
------------------------------------ 
   It     Res. Norm  Remark
------------------------------------
                       Guess.
    1     9.704e+00  
    2     1.693e+01  
    3     2.559e+00  
    4     1.042e+00  
    5     2.879e-01  
    6     1.411e-01  
    7     3.952e-02  
    8     7.918e-03  
    9     3.309e-03  
   10     5.292e-04  
   11     2.120e-04  
   12     3.890e-05  
   13     1.595e-05  
   14     5.491e-06  
   15     1.864e-06  
   16     5.970e-07  Converged.
   ... Converged in 16 steps (norm: 5.97016e-07)
------------------------------------
  Starting TPA DIIS iterations ... 
------------------------------------ 
   It     Res. Norm  Remark
------------------------------------
                       Guess.
    1     8.428e-01  
    2     7.511e-01  
    3     3.406e-01  
    4     2.973e-01  
    5     5.130e-02  
    6     2.220e-02  
    7     5.800e-03  
    8     1.772e-03  
    9     8.760e-04  
   10     2.483e-04  
   11     1.067e-04  
   12     3.028e-05  
   13     2.810e-05  
   14     1.182e-05  
   15     3.019e-06  
   16     1.600e-06  
   17     5.030e-07  Converged.
   ... Converged in 17 steps (norm: 5.02994e-07)
------------------------------------
  Starting TPA DIIS iterations ... 
------------------------------------ 
   It     Res. Norm  Remark
------------------------------------
                       Guess.
    1     1.114e+01  
    2     2.000e+01  
    3     2.933e+00  
    4     1.220e+00  
    5     3.331e-01  
    6     1.631e-01  
    7     4.632e-02  
    8     8.932e-03  
    9     3.794e-03  
   10     6.188e-04  
   11     2.451e-04  
   12     4.618e-05  
   13     1.804e-05  
   14     6.552e-06  
   15     2.321e-06  
   16     6.956e-07  Converged.
   ... Converged in 16 steps (norm: 6.9562e-07)
------------------------------------
  Starting TPA DIIS iterations ... 
------------------------------------ 
   It     Res. Norm  Remark
------------------------------------
                       Guess.
    1     1.059e+01  
    2     1.900e+01  
    3     2.792e+00  
    4     1.192e+00  
    5     3.320e-01  
    6     1.645e-01  
    7     4.570e-02  
    8     9.194e-03  
    9     3.867e-03  
   10     6.177e-04  
   11     2.467e-04  
   12     4.641e-05  
   13     1.885e-05  
   14     6.752e-06  
   15     2.387e-06  
   16     7.470e-07  Converged.
   ... Converged in 16 steps (norm: 7.47041e-07)
------------------------------------
  Starting TPA DIIS iterations ... 
------------------------------------ 
   It     Res. Norm  Remark
------------------------------------
                       Guess.
    1     8.584e-01  
    2     7.853e-01  
    3     3.645e-01  
    4     3.370e-01  
    5     5.703e-02  
    6     2.473e-02  
    7     6.690e-03  
    8     1.996e-03  
    9     1.013e-03  
   10     2.899e-04  
   11     1.274e-04  
   12     3.427e-05  
   13     3.261e-05  
   14     1.446e-05  
   15     3.892e-06  
   16     2.085e-06  
   17     6.405e-07  Converged.
   ... Converged in 17 steps (norm: 6.40528e-07)
------------------------------------
  Starting TPA DIIS iterations ... 
------------------------------------ 
   It     Res. Norm  Remark
------------------------------------
                       Guess.
    1     1.154e+01  
    2     2.093e+01  
    3     3.036e+00  
    4     1.286e+00  
    5     3.523e-01  
    6     1.732e-01  
    7     4.902e-02  
    8     9.467e-03  
    9     4.032e-03  
   10     6.572e-04  
   11     2.598e-04  
   12     4.952e-05  
   13     1.926e-05  
   14     7.091e-06  
   15     2.566e-06  
   16     7.601e-07  Converged.
   ... Converged in 16 steps (norm: 7.60057e-07)
------------------------------------
  Starting TPA DIIS iterations ... 
------------------------------------ 
   It     Res. Norm  Remark
------------------------------------
                       Guess.
    1     1.096e+01  
    2     1.989e+01  
    3     2.890e+00  
    4     1.257e+00  
    5     3.510e-01  
    6     1.746e-01  
    7     4.838e-02  
    8     9.748e-03  
    9     4.110e-03  
   10     6.561e-04  
   11     2.617e-04  
   12     4.976e-05  
   13     2.012e-05  
   14     7.312e-06  
   15     2.634e-06  
   16     8.158e-07  Converged.
   ... Converged in 16 steps (norm: 8.1581e-07)
------------------------------------
  Starting TPA DIIS iterations ... 
------------------------------------ 
   It     Res. Norm  Remark
------------------------------------
                       Guess.
    1     8.646e-01  
    2     7.992e-01  
    3     3.743e-01  
    4     3.531e-01  
    5     5.947e-02  
    6     2.578e-02  
    7     7.074e-03  
    8     2.092e-03  
    9     1.073e-03  
   10     3.074e-04  
   11     1.363e-04  
   12     3.580e-05  
   13     3.421e-05  
   14     1.562e-05  
   15     4.299e-06  
   16     2.316e-06  
   17     7.053e-07  Converged.
   ... Converged in 17 steps (norm: 7.05294e-07)
------------------------------------
  Two-photon absorbption ...  CPU 159.75 s  wall 43.23 s
  Transition density matrix of state singlet_A_1 printed to ASCII file 'State_singlet_A_1_Transition.txt'
  Transition density matrix of state singlet_A_2 printed to ASCII file 'State_singlet_A_2_Transition.txt'
  Transition density matrix of state singlet_A_3 printed to ASCII file 'State_singlet_A_3_Transition.txt'
  Transition density matrix of state singlet_A_4 printed to ASCII file 'State_singlet_A_4_Transition.txt'
  Transition density matrix of state singlet_A_5 printed to ASCII file 'State_singlet_A_5_Transition.txt'
  Transition density matrix of state singlet_A_6 printed to ASCII file 'State_singlet_A_6_Transition.txt'
  Transition density matrix of state singlet_A_7 printed to ASCII file 'State_singlet_A_7_Transition.txt'
  Transition density matrix of state singlet_A_8 printed to ASCII file 'State_singlet_A_8_Transition.txt'
  Transition density matrix of state singlet_A_9 printed to ASCII file 'State_singlet_A_9_Transition.txt'
  Transition density matrix of state singlet_A_10 printed to ASCII file 'State_singlet_A_10_Transition.txt'
  Transition properties ...  CPU 0.37 s  wall 0.92 s
  Difference density matrix of state singlet_A_1 printed to ASCII file 'State_singlet_A_1_Difference.txt'
  Total density matrix of state singlet_A_1 printed to ASCII file 'State_singlet_A_1_Total.txt'
  Difference density matrix of state singlet_A_2 printed to ASCII file 'State_singlet_A_2_Difference.txt'
  Total density matrix of state singlet_A_2 printed to ASCII file 'State_singlet_A_2_Total.txt'
  Difference density matrix of state singlet_A_3 printed to ASCII file 'State_singlet_A_3_Difference.txt'
  Total density matrix of state singlet_A_3 printed to ASCII file 'State_singlet_A_3_Total.txt'
  Difference density matrix of state singlet_A_4 printed to ASCII file 'State_singlet_A_4_Difference.txt'
  Total density matrix of state singlet_A_4 printed to ASCII file 'State_singlet_A_4_Total.txt'
  Difference density matrix of state singlet_A_5 printed to ASCII file 'State_singlet_A_5_Difference.txt'
  Total density matrix of state singlet_A_5 printed to ASCII file 'State_singlet_A_5_Total.txt'
  Difference density matrix of state singlet_A_6 printed to ASCII file 'State_singlet_A_6_Difference.txt'
  Total density matrix of state singlet_A_6 printed to ASCII file 'State_singlet_A_6_Total.txt'
  Difference density matrix of state singlet_A_7 printed to ASCII file 'State_singlet_A_7_Difference.txt'
  Total density matrix of state singlet_A_7 printed to ASCII file 'State_singlet_A_7_Total.txt'
  Difference density matrix of state singlet_A_8 printed to ASCII file 'State_singlet_A_8_Difference.txt'
  Total density matrix of state singlet_A_8 printed to ASCII file 'State_singlet_A_8_Total.txt'
  Difference density matrix of state singlet_A_9 printed to ASCII file 'State_singlet_A_9_Difference.txt'
  Total density matrix of state singlet_A_9 printed to ASCII file 'State_singlet_A_9_Total.txt'
  Difference density matrix of state singlet_A_10 printed to ASCII file 'State_singlet_A_10_Difference.txt'
  Total density matrix of state singlet_A_10 printed to ASCII file 'State_singlet_A_10_Total.txt'
  Properties ...  CPU 0.66 s  wall 1.01 s
  ISR TDMS ...  CPU 30.31 s  wall 9.83 s
  ISR transition properties ...  CPU 0.52 s  wall 0.25 s
  Sum-over-states TPA ...  CPU 0.00 s  wall 0.00 s

--------------------------------------------------------------------------------
                   State-averaged natural transition orbitals
--------------------------------------------------------------------------------
--------------------------------------------------------------------------------
  SA-NTO decomposition ...  CPU 0.01 s  wall 0.03 s

--------------------------------------------------------------------------------
                             Excited State Summary
--------------------------------------------------------------------------------
--------------------------------------------------------------------------------

  Excited state 1 (singlet, A)                                     [converged]
  ----------------------------------------------------------------------------
  Term symbol:  2 (1) A                                     R^2 =  8.66037e-14

  Total energy:                                            -77.9937666434 a.u.
  Excitation energy:                                               8.733527 eV

  Osc. strength:                                                      0.446573
  Trans. dip. moment [a.u.]:           [   1.047502,   -0.994863,   -0.009710]
  <i|r^2|0> [a.u.]:                    [   6.150390,   -0.281416,   -0.003923]
  Two-photon absorption cross-section (SoS) [a.u.]:                   0.653767
  Two-photon absorption matrix (SoS) [a.u.]:
                                       |   -0.079259   -0.229578   -0.027099 |
                                       |   -0.229578   -0.102540   -0.029146 |
                                       |   -0.027099   -0.029146    0.194884 |
  Two-photon absorption cross-section [a.u.]:                         0.493778
  Two-photon absorption matrix [a.u.]:
                                       |    0.022687   -0.140751   -0.018416 |
                                       |   -0.140751    0.008267   -0.020033 |
                                       |   -0.018416   -0.020033    0.222690 |

  Dip. moment [a.u.]:                  [  -0.014229,    0.013536,    0.000164]
  Total dipole [Debye]:                                               0.049918
  <r^2> [a.u.]:                        [ 177.011234,   36.017616,   11.916632]
  Total <r^2> [a.u.]:                                               224.945482

  V1^2 = 0.9713, V2^2 = 0.0287

  Important amplitudes:
      occ i     occ j     vir a      vir b          v   
    -----------------------------------------------------
     8 (A) A              9 (A) A                -0.6808
     6 (A) A             14 (A) A                 0.0615
     4 (A) A             10 (A) A                -0.0612
     7 (A) A             16 (A) A                -0.0567
     5 (A) A             13 (A) A                 0.0526
     6 (A) A             23 (A) A                 0.0479
     8 (A) A             20 (A) A                 0.0349
     6 (A) A             19 (A) A                 0.0289
     3 (A) A             12 (A) A                 0.0283
     5 (A) A             22 (A) A                -0.0210
     7 (A) A             11 (A) A                -0.0194
     4 (A) A             24 (A) A                -0.0187
     3 (A) A             26 (A) A                 0.0186
     8 (A) A   8 (A) B   17 (A) A   20 (A) B     -0.0184
     8 (A) A   8 (A) B    9 (A) A   28 (A) B     -0.0168
     6 (A) A             26 (A) A                -0.0163
     7 (A) A             21 (A) A                 0.0161
     3 (A) A             14 (A) A                -0.0142
     3 (A) A   4 (A) B    9 (A) A    9 (A) B      0.0129
     6 (A) A             12 (A) A                 0.0127
     3 (A) A             19 (A) A                -0.0115
     8 (A) A   8 (A) B   18 (A) A   19 (A) B      0.0095
     7 (A) A             36 (A) A                -0.0083
     3 (A) A             23 (A) A                -0.0083
     6 (A) A             24 (A) A                 0.0082
     6 (A) A             10 (A) A                -0.0080
     6 (A) A             18 (A) A                -0.0079
     8 (A) A   8 (A) B   25 (A) A   29 (A) B     -0.0076
     5 (A) A             16 (A) A                -0.0074
     7 (A) A             32 (A) A                 0.0073
     6 (A) A             40 (A) A                -0.0065
     3 (A) A   6 (A) B    9 (A) A   28 (A) B      0.0064
     7 (A) A             31 (A) A                 0.0063
     5 (A) A   8 (A) B   11 (A) A    9 (A) B      0.0061
     8 (A) A   8 (A) B   19 (A) A   19 (A) B      0.0061
     5 (A) A             27 (A) A                -0.0060
     7 (A) A   8 (A) B   13 (A) A   20 (A) B     -0.0059
     5 (A) A   8 (A) B   11 (A) A   20 (A) B      0.0059
     5 (A) A   8 (A) B   16 (A) A    9 (A) B     -0.0058
     5 (A) A   7 (A) B    9 (A) A    9 (A) B     -0.0058
    -----------------------------------------------------

  Density matrix analysis:
  ------------------------
  NOs
    Occupation of frontier NOs:
       0.9489   1.0222
    Number of electrons: 16.000000
    Number of unpaired electrons: n_u =  2.31692, n_u,nl =  2.03343
    NO participation ratio (PR_NO):  2.875667
  
  
  Mulliken Population Analysis
  Atom      Charge (e)              h+              e-           Del q
  --------------------------------------------------------------------
   1 H        0.072618        0.020404       -0.012245        0.008159
   2 C       -0.180248        0.490871       -0.508908       -0.018037
   3 H        0.072641        0.020406       -0.012245        0.008162
   4 C       -0.065364        0.490300       -0.504128       -0.013828
   5 H        0.050167        0.020439       -0.012667        0.007772
   6 H        0.050186        0.020439       -0.012666        0.007772
  --------------------------------------------------------------------
  Sum:        0.000000        1.062860       -1.062860        0.000000
  
  Multipole moment analysis of the density matrix
    Molecular charge:                      0.000000
    Number of electrons:                   16.000000
      Center of electronic charge [Ang]: [ -1.563512,  -0.063215,   0.002146]
    Total nuclear charge:                  16.000000
      Center of nuclear charge [Ang]:    [ -1.563982,  -0.062768,   0.002152]
    Dipole moment [D]:                     0.049918
      Cartesian components [D]:          [ -0.036165,   0.034404,   0.000418]
    RMS size of the density [Ang]:         1.219991
      Cartesian components [Ang]:        [  0.808358,   0.791439,   0.456681]
  
  Exciton analysis of the difference density matrix
    <r_h> [Ang]:                  [ -1.567273,  -0.059630,   0.002168]
    <r_e> [Ang]:                  [ -1.567525,  -0.059388,   0.002167]
    |<r_e - r_h>| [Ang]:            0.000350
    Hole size [Ang]:                1.287141
      Cartesian components [Ang]: [  0.730140,   0.714744,   0.782795]
    Electron size [Ang]:            1.463684
      Cartesian components [Ang]: [  0.854278,   0.831659,   0.849071]

  Transition density matrix analysis:
  -----------------------------------
  
  CT numbers (Mulliken)
    omega =     0.9531
    <Phe> =    -0.1602
  
  Exciton analysis of the transition density matrix
    Trans. dipole moment [D]:             1.836008
      Cartesian components [D]:         [  1.331243,  -1.264345,  -0.012340]
    <r_h> [Ang]:                        [ -1.570384,  -0.056671,   0.002198]
    <r_e> [Ang]:                        [ -1.566972,  -0.059914,   0.002162]
    |<r_e - r_h>| [Ang]:                  0.004708
    Hole size [Ang]:                      1.214264
      Cartesian components [Ang]:       [  0.649929,   0.637065,   0.803852]
    Electron size [Ang]:                  1.486498
      Cartesian components [Ang]:       [  0.864714,   0.840505,   0.869194]
    RMS electron-hole separation [Ang]:   1.936754
      Cartesian components [Ang]:       [  1.106577,   1.076092,   1.169843]
    Covariance(r_h, r_e) [Ang^2]:        -0.033441
    Correlation coefficient:             -0.018527
    Center-of-mass size [Ang]:            0.950951
      Cartesian components [Ang]:       [  0.528152,   0.516391,   0.598920]

  Decomposition into state-averaged NTOs
    H- 0 -> L+ 0:  0.6696 ( 89.7%)
    H- 2 -> L+ 5:  0.0830 (  1.4%)
                   omega =  95.3%
  ----------------------------------------------------------------------------


  Excited state 2 (singlet, A)                                     [converged]
  ----------------------------------------------------------------------------
  Term symbol:  3 (1) A                                     R^2 =  9.77280e-14

  Total energy:                                            -77.9864862757 a.u.
  Excitation energy:                                               8.931636 eV

  Osc. strength:                                                      0.000000
  Trans. dip. moment [a.u.]:           [   0.000489,   -0.000436,   -0.000234]
  <i|r^2|0> [a.u.]:                    [   0.068452,    0.086287,   -0.152005]
  Two-photon absorption cross-section (SoS) [a.u.]:                   4.487565
  Two-photon absorption matrix (SoS) [a.u.]:
                                       |    0.049438    0.056838   -0.510199 |
                                       |    0.056838    0.064892   -0.536229 |
                                       |   -0.510199   -0.536229   -0.114393 |
  Two-photon absorption cross-section [a.u.]:                         0.237339
  Two-photon absorption matrix [a.u.]:
                                       |   -0.010663   -0.013089    0.117282 |
                                       |   -0.013089   -0.015713    0.123334 |
                                       |    0.117282    0.123334    0.026432 |

  Dip. moment [a.u.]:                  [   0.175660,   -0.166374,   -0.001557]
  Total dipole [Debye]:                                               0.614972
  <r^2> [a.u.]:                        [ 176.454156,   34.304992,   13.208244]
  Total <r^2> [a.u.]:                                               223.967391

  V1^2 = 0.9540, V2^2 = 0.0460

  Important amplitudes:
      occ i     occ j     vir a      vir b          v   
    -----------------------------------------------------
     7 (A) A              9 (A) A                 0.6681
     8 (A) A             11 (A) A                 0.1518
     7 (A) A             20 (A) A                -0.0753
     5 (A) A   8 (A) B    9 (A) A    9 (A) B      0.0307
     8 (A) A             16 (A) A                -0.0282
     5 (A) A              9 (A) A                 0.0195
     8 (A) A             21 (A) A                -0.0178
     5 (A) A             28 (A) A                -0.0146
     5 (A) A   7 (A) B    9 (A) A   16 (A) B     -0.0129
     4 (A) A   7 (A) B    9 (A) A   19 (A) B     -0.0126
     7 (A) A   8 (A) B   20 (A) A   17 (A) B      0.0106
     7 (A) A   8 (A) A    9 (A) A   28 (A) A     -0.0098
     5 (A) A   8 (A) B    9 (A) A   20 (A) B     -0.0092
     4 (A) A   6 (A) B    9 (A) A   16 (A) B      0.0090
     6 (A) A   7 (A) B    9 (A) A   18 (A) B      0.0089
     5 (A) A   6 (A) A    9 (A) A   23 (A) A      0.0086
     5 (A) A   6 (A) A    9 (A) A   14 (A) A      0.0086
     8 (A) A   7 (A) B    9 (A) A   28 (A) B      0.0086
     8 (A) A             13 (A) A                 0.0084
     4 (A) A   5 (A) A    9 (A) A   10 (A) A      0.0082
     5 (A) A   6 (A) B    9 (A) A   19 (A) B      0.0080
     5 (A) A   6 (A) B    9 (A) A   23 (A) B      0.0077
     5 (A) A   7 (A) A    9 (A) A   16 (A) A     -0.0077
     3 (A) A   7 (A) B    9 (A) A   18 (A) B      0.0076
     4 (A) A   8 (A) B    9 (A) A   25 (A) B      0.0076
     7 (A) A   8 (A) B   17 (A) A   20 (A) B      0.0074
     5 (A) A   5 (A) B    9 (A) A   13 (A) B      0.0071
     7 (A) A   8 (A) B    9 (A) A    9 (A) B     -0.0069
     4 (A) A   7 (A) B   19 (A) A    9 (A) B     -0.0068
     5 (A) A   8 (A) A    9 (A) A   20 (A) A     -0.0067
     7 (A) A   8 (A) B   17 (A) A    9 (A) B     -0.0065
     6 (A) A   7 (A) B   18 (A) A    9 (A) B      0.0064
     4 (A) A   5 (A) B    9 (A) A   18 (A) B     -0.0063
     7 (A) A   8 (A) B   19 (A) A   18 (A) B     -0.0063
     7 (A) A   7 (A) B   20 (A) A   22 (A) B     -0.0062
     5 (A) A   6 (A) B    9 (A) A   14 (A) B      0.0061
     5 (A) A   7 (A) B   11 (A) A   20 (A) B     -0.0060
     4 (A) A   7 (A) A    9 (A) A   19 (A) A     -0.0058
     5 (A) A             38 (A) A                 0.0058
     4 (A) A   8 (A) A    9 (A) A   25 (A) A      0.0056
    -----------------------------------------------------

  Density matrix analysis:
  ------------------------
  NOs
    Occupation of frontier NOs:
       0.9553   1.0551
    Number of electrons: 16.000000
    Number of unpaired electrons: n_u =  2.35749, n_u,nl =  2.06489
    NO participation ratio (PR_NO):  3.044321
  
  
  Mulliken Population Analysis
  Atom      Charge (e)              h+              e-           Del q
  --------------------------------------------------------------------
   1 H        0.187542        0.148365       -0.025282        0.123082
   2 C       -0.352368        0.310651       -0.500808       -0.190157
   3 H        0.187435        0.148414       -0.025458        0.122956
   4 C       -0.261091        0.238559       -0.448114       -0.209555
   5 H        0.119263        0.102065       -0.025196        0.076868
   6 H        0.119220        0.102119       -0.025313        0.076806
  --------------------------------------------------------------------
  Sum:        0.000000        1.050172       -1.050172        0.000000
  
  Multipole moment analysis of the density matrix
    Molecular charge:                      0.000000
    Number of electrons:                   16.000000
      Center of electronic charge [Ang]: [ -1.569792,  -0.057265,   0.002203]
    Total nuclear charge:                  16.000000
      Center of nuclear charge [Ang]:    [ -1.563982,  -0.062768,   0.002152]
    Dipole moment [D]:                     0.614972
      Cartesian components [D]:          [  0.446483,  -0.422881,  -0.003959]
    RMS size of the density [Ang]:         1.205113
      Cartesian components [Ang]:        [  0.789946,   0.772735,   0.480794]
  
  Exciton analysis of the difference density matrix
    <r_h> [Ang]:                  [ -1.447208,  -0.173844,   0.001054]
    <r_e> [Ang]:                  [ -1.543147,  -0.082942,   0.001920]
    |<r_e - r_h>| [Ang]:            0.132167
    Hole size [Ang]:                1.491456
      Cartesian components [Ang]: [  1.009479,   0.997671,   0.458309]
    Electron size [Ang]:            1.480662
      Cartesian components [Ang]: [  0.885141,   0.863116,   0.814809]

  Transition density matrix analysis:
  -----------------------------------
  
  CT numbers (Mulliken)
    omega =     0.9212
    <Phe> =    -0.0113
  
  Exciton analysis of the transition density matrix
    Trans. dipole moment [D]:             0.000884
      Cartesian components [D]:         [  0.000621,  -0.000554,  -0.000297]
    <r_h> [Ang]:                        [ -1.428319,  -0.191796,   0.000880]
    <r_e> [Ang]:                        [ -1.556958,  -0.069854,   0.002043]
    |<r_e - r_h>| [Ang]:                  0.177255
    Hole size [Ang]:                      1.519668
      Cartesian components [Ang]:       [  1.032355,   1.020670,   0.449298]
    Electron size [Ang]:                  1.475465
      Cartesian components [Ang]:       [  0.873311,   0.850416,   0.831334]
    RMS electron-hole separation [Ang]:   2.107122
      Cartesian components [Ang]:       [  1.343564,   1.320335,   0.944201]
    Covariance(r_h, r_e) [Ang^2]:         0.038922
    Correlation coefficient:              0.017359
    Center-of-mass size [Ang]:            1.068203
      Cartesian components [Ang]:       [  0.683419,   0.671106,   0.472878]

  Decomposition into state-averaged NTOs
    H- 1 -> L+ 0:  0.6605 ( 87.3%)
    H- 0 -> L+ 2: -0.1519 (  4.6%)
                   omega =  92.1%
  ----------------------------------------------------------------------------


  Excited state 3 (singlet, A)                                     [converged]
  ----------------------------------------------------------------------------
  Term symbol:  4 (1) A                                     R^2 =  8.28090e-14

  Total energy:                                            -77.9803534960 a.u.
  Excitation energy:                                               9.098518 eV

  Osc. strength:                                                      0.021655
  Trans. dip. moment [a.u.]:           [   0.014809,    0.018902,   -0.310755]
  <i|r^2|0> [a.u.]:                    [   0.082048,    0.010856,    0.001601]
  Two-photon absorption cross-section (SoS) [a.u.]:                   0.296523
  Two-photon absorption matrix (SoS) [a.u.]:
                                       |   -0.014668   -0.001907    0.138642 |
                                       |   -0.001907    0.016915   -0.132614 |
                                       |    0.138642   -0.132614   -0.002539 |
  Two-photon absorption cross-section [a.u.]:                         0.053859
  Two-photon absorption matrix [a.u.]:
                                       |   -0.006670   -0.000788    0.058698 |
                                       |   -0.000788    0.007474   -0.056881 |
                                       |    0.058698   -0.056881   -0.001126 |

  Dip. moment [a.u.]:                  [  -0.541169,    0.515940,    0.005157]
  Total dipole [Debye]:                                               1.900515
  <r^2> [a.u.]:                        [ 178.687439,   41.132844,   11.025026]
  Total <r^2> [a.u.]:                                               230.845309

  V1^2 = 0.9575, V2^2 = 0.0425

  Important amplitudes:
      occ i     occ j     vir a      vir b          v   
    -----------------------------------------------------
     8 (A) A             10 (A) A                 0.6877
     8 (A) A             24 (A) A                 0.0463
     8 (A) A             18 (A) A                -0.0367
     6 (A) A              9 (A) A                 0.0264
     4 (A) A              9 (A) A                 0.0242
     8 (A) A   8 (A) B    9 (A) A   12 (A) B     -0.0212
     8 (A) A             23 (A) A                -0.0184
     8 (A) A             12 (A) A                -0.0171
     8 (A) A   8 (A) B   10 (A) A   17 (A) B      0.0169
     5 (A) A   8 (A) B   11 (A) A   10 (A) B     -0.0163
     7 (A) A   8 (A) B   13 (A) A   10 (A) B      0.0142
     8 (A) A             15 (A) A                -0.0137
     6 (A) A   8 (A) A   10 (A) A   15 (A) A     -0.0113
     4 (A) A   8 (A) B   12 (A) A   10 (A) B     -0.0110
     6 (A) A   8 (A) B   15 (A) A   10 (A) B      0.0110
     4 (A) A   8 (A) A   10 (A) A   12 (A) A      0.0105
     7 (A) A   8 (A) B   22 (A) A   10 (A) B     -0.0101
     7 (A) A   8 (A) A   10 (A) A   13 (A) A     -0.0095
     5 (A) A   8 (A) A   10 (A) A   11 (A) A      0.0094
     6 (A) A   8 (A) B   10 (A) A   10 (A) B      0.0092
     7 (A) A   8 (A) A   10 (A) A   22 (A) A      0.0091
     6 (A) A   8 (A) A   10 (A) A   18 (A) A      0.0089
     5 (A) A   8 (A) B   21 (A) A   10 (A) B      0.0086
     8 (A) A   8 (A) B    9 (A) A   10 (A) B      0.0085
     8 (A) A             19 (A) A                 0.0081
     7 (A) A   8 (A) A   12 (A) A   16 (A) A     -0.0079
     3 (A) A   4 (A) B   10 (A) A    9 (A) B     -0.0079
     8 (A) A   8 (A) B    9 (A) A   23 (A) B     -0.0075
     8 (A) A   8 (A) B   10 (A) A   28 (A) B      0.0074
     5 (A) A   8 (A) A   10 (A) A   21 (A) A     -0.0073
     4 (A) A   8 (A) B   19 (A) A   10 (A) B      0.0070
     5 (A) A   8 (A) B   10 (A) A   11 (A) B     -0.0069
     7 (A) A   8 (A) B   16 (A) A   12 (A) B      0.0069
     6 (A) A   8 (A) B   18 (A) A   10 (A) B     -0.0068
     3 (A) A   8 (A) B   10 (A) A   10 (A) B      0.0068
     3 (A) A   8 (A) A   10 (A) A   24 (A) A     -0.0067
     8 (A) A   8 (A) B    9 (A) A   19 (A) B      0.0063
     3 (A) A   8 (A) B   10 (A) A   18 (A) B     -0.0063
     3 (A) A   6 (A) B   10 (A) A   28 (A) B     -0.0062
     6 (A) A             28 (A) A                 0.0060
    -----------------------------------------------------

  Density matrix analysis:
  ------------------------
  NOs
    Occupation of frontier NOs:
       0.9829   0.9840
    Number of electrons: 16.000000
    Number of unpaired electrons: n_u =  2.29118, n_u,nl =  2.02559
    NO participation ratio (PR_NO):  2.704087
  
  
  Mulliken Population Analysis
  Atom      Charge (e)              h+              e-           Del q
  --------------------------------------------------------------------
   1 H       -0.215709        0.053803       -0.333971       -0.280169
   2 C        0.281140        0.582021       -0.138670        0.443351
   3 H       -0.216083        0.053777       -0.334339       -0.280563
   4 C        0.325544        0.493415       -0.116336        0.377080
   5 H       -0.087335        0.055350       -0.185080       -0.129730
   6 H       -0.087556        0.055348       -0.185318       -0.129970
  --------------------------------------------------------------------
  Sum:        0.000000        1.293715       -1.293715        0.000000
  
  Multipole moment analysis of the density matrix
    Molecular charge:                      0.000000
    Number of electrons:                   16.000000
      Center of electronic charge [Ang]: [ -1.546084,  -0.079832,   0.001981]
    Total nuclear charge:                  16.000000
      Center of nuclear charge [Ang]:    [ -1.563982,  -0.062768,   0.002152]
    Dipole moment [D]:                     1.900514
      Cartesian components [D]:          [ -1.375515,   1.311388,   0.013108]
    RMS size of the density [Ang]:         1.281972
      Cartesian components [Ang]:        [  0.858471,   0.844704,   0.439265]
  
  Exciton analysis of the difference density matrix
    <r_h> [Ang]:                  [ -1.531237,  -0.093873,   0.001839]
    <r_e> [Ang]:                  [ -1.315906,  -0.299175,  -0.000204]
    |<r_e - r_h>| [Ang]:            0.297524
    Hole size [Ang]:                1.410907
      Cartesian components [Ang]: [  0.835451,   0.821608,   0.785901]
    Electron size [Ang]:            2.049314
      Cartesian components [Ang]: [  1.355034,   1.360171,   0.716594]

  Transition density matrix analysis:
  -----------------------------------
  
  CT numbers (Mulliken)
    omega =     0.9243
    <Phe> =    -0.0111
  
  Exciton analysis of the transition density matrix
    Trans. dipole moment [D]:             0.396108
      Cartesian components [D]:         [  0.018820,   0.024022,  -0.394931]
    <r_h> [Ang]:                        [ -1.565716,  -0.061048,   0.002160]
    <r_e> [Ang]:                        [ -1.233328,  -0.377872,  -0.000989]
    |<r_e - r_h>| [Ang]:                  0.459206
    Hole size [Ang]:                      1.212830
      Cartesian components [Ang]:       [  0.636846,   0.624212,   0.822036]
    Electron size [Ang]:                  2.253849
      Cartesian components [Ang]:       [  1.487664,   1.496702,   0.791565]
    RMS electron-hole separation [Ang]:   2.591540
      Cartesian components [Ang]:       [  1.645466,   1.646118,   1.139657]
    Covariance(r_h, r_e) [Ang^2]:         0.022792
    Correlation coefficient:              0.008338
    Center-of-mass size [Ang]:            1.284171
      Cartesian components [Ang]:       [  0.812459,   0.813971,   0.571364]

  Decomposition into state-averaged NTOs
    H- 0 -> L+ 1: -0.6786 ( 92.1%)
                   omega =  92.4%
  ----------------------------------------------------------------------------


  Excited state 4 (singlet, A)                                     [converged]
  ----------------------------------------------------------------------------
  Term symbol:  5 (1) A                                     R^2 =  4.13217e-14

  Total energy:                                            -77.9574918616 a.u.
  Excitation energy:                                               9.720614 eV

  Osc. strength:                                                      0.000000
  Trans. dip. moment [a.u.]:           [   0.000150,   -0.000108,   -0.000253]
  <i|r^2|0> [a.u.]:                    [  -0.012396,   -0.017545,    0.030758]
  Two-photon absorption cross-section (SoS) [a.u.]:                 129.799944
  Two-photon absorption matrix (SoS) [a.u.]:
                                       |   -0.265924   -0.306208    2.743567 |
                                       |   -0.306208   -0.350009    2.884083 |
                                       |    2.743567    2.884083    0.615669 |
  Two-photon absorption cross-section [a.u.]:                        77.381221
  Two-photon absorption matrix [a.u.]:
                                       |   -0.205891   -0.236475    2.118236 |
                                       |   -0.236475   -0.269685    2.226938 |
                                       |    2.118236    2.226938    0.475380 |

  Dip. moment [a.u.]:                  [  -0.221529,    0.207435,    0.001862]
  Total dipole [Debye]:                                               0.771401
  <r^2> [a.u.]:                        [ 180.649092,   41.025473,   10.777453]
  Total <r^2> [a.u.]:                                               232.452018

  V1^2 = 0.9632, V2^2 = 0.0368

  Important amplitudes:
      occ i     occ j     vir a      vir b          v   
    -----------------------------------------------------
     8 (A) A             11 (A) A                -0.6680
     7 (A) A              9 (A) A                 0.1541
     8 (A) A             21 (A) A                 0.0776
     8 (A) A             16 (A) A                 0.0682
     8 (A) A             13 (A) A                -0.0248
     8 (A) A   8 (A) B    9 (A) A   13 (A) B     -0.0166
     5 (A) A   8 (A) B   11 (A) A   11 (A) B      0.0152
     7 (A) A             20 (A) A                -0.0141
     8 (A) A   8 (A) B   11 (A) A   17 (A) B     -0.0136
     7 (A) A   8 (A) B   13 (A) A   11 (A) B     -0.0125
     4 (A) A   8 (A) B   12 (A) A   11 (A) B      0.0108
     8 (A) A   8 (A) B    9 (A) A   22 (A) B      0.0105
     5 (A) A   8 (A) A   11 (A) A   21 (A) A      0.0104
     6 (A) A   8 (A) B   10 (A) A   11 (A) B     -0.0093
     6 (A) A   8 (A) B   15 (A) A   11 (A) B     -0.0089
     7 (A) A   8 (A) A   11 (A) A   22 (A) A     -0.0088
     3 (A) A   4 (A) B   11 (A) A    9 (A) B      0.0083
     7 (A) A   8 (A) B   22 (A) A   11 (A) B      0.0083
     6 (A) A   8 (A) A   11 (A) A   15 (A) A      0.0079
     7 (A) A   8 (A) A   13 (A) A   16 (A) A     -0.0079
     3 (A) A   8 (A) B   11 (A) A   18 (A) B      0.0075
     8 (A) A             22 (A) A                -0.0074
     7 (A) A   8 (A) A   11 (A) A   13 (A) A      0.0074
     5 (A) A   8 (A) B    9 (A) A    9 (A) B      0.0068
     4 (A) A   8 (A) B   19 (A) A   11 (A) B     -0.0066
     5 (A) A   8 (A) B   21 (A) A   11 (A) B     -0.0064
     4 (A) A   8 (A) A   11 (A) A   12 (A) A     -0.0060
     3 (A) A   6 (A) B   11 (A) A   28 (A) B      0.0060
     6 (A) A   8 (A) B   18 (A) A   11 (A) B      0.0059
     6 (A) A   8 (A) A   11 (A) A   18 (A) A     -0.0059
     7 (A) A   8 (A) B   16 (A) A   13 (A) B      0.0056
     3 (A) A   8 (A) B   11 (A) A   30 (A) B      0.0056
     6 (A) A   8 (A) B   11 (A) A   10 (A) B     -0.0055
     5 (A) A              9 (A) A                 0.0055
     3 (A) A   5 (A) B   11 (A) A   25 (A) B      0.0054
     5 (A) A   8 (A) B   10 (A) A   10 (A) B      0.0053
     7 (A) A   8 (A) B   12 (A) A   10 (A) B      0.0053
     8 (A) A   8 (A) B   20 (A) A   22 (A) B     -0.0052
     3 (A) A   8 (A) A   11 (A) A   18 (A) A      0.0052
     3 (A) A   8 (A) A   11 (A) A   24 (A) A      0.0050
    -----------------------------------------------------

  Density matrix analysis:
  ------------------------
  NOs
    Occupation of frontier NOs:
       0.9383   1.0299
    Number of electrons: 16.000000
    Number of unpaired electrons: n_u =  2.32233, n_u,nl =  2.05143
    NO participation ratio (PR_NO):  2.934968
  
  
  Mulliken Population Analysis
  Atom      Charge (e)              h+              e-           Del q
  --------------------------------------------------------------------
   1 H       -0.136553        0.046017       -0.247029       -0.201012
   2 C        0.196050        0.513198       -0.154937        0.358261
   3 H       -0.136049        0.046004       -0.246532       -0.200528
   4 C        0.304158        0.477510       -0.121816        0.355694
   5 H       -0.114147        0.045428       -0.201970       -0.156542
   6 H       -0.113460        0.045431       -0.201304       -0.155873
  --------------------------------------------------------------------
  Sum:        0.000000        1.173588       -1.173588        0.000000
  
  Multipole moment analysis of the density matrix
    Molecular charge:                      0.000000
    Number of electrons:                   16.000000
      Center of electronic charge [Ang]: [ -1.556656,  -0.069628,   0.002090]
    Total nuclear charge:                  16.000000
      Center of nuclear charge [Ang]:    [ -1.563982,  -0.062768,   0.002152]
    Dipole moment [D]:                     0.771401
      Cartesian components [D]:          [ -0.563070,   0.527247,   0.004733]
    RMS size of the density [Ang]:         1.280740
      Cartesian components [Ang]:        [  0.859363,   0.844494,   0.434304]
  
  Exciton analysis of the difference density matrix
    <r_h> [Ang]:                  [ -1.550144,  -0.075818,   0.002020]
    <r_e> [Ang]:                  [ -1.456899,  -0.163028,   0.001253]
    |<r_e - r_h>| [Ang]:            0.127674
    Hole size [Ang]:                1.393057
      Cartesian components [Ang]: [  0.818210,   0.804986,   0.789391]
    Electron size [Ang]:            2.105185
      Cartesian components [Ang]: [  1.413057,   1.409186,   0.670278]

  Transition density matrix analysis:
  -----------------------------------
  
  CT numbers (Mulliken)
    omega =     0.9290
    <Phe> =    -0.0147
  
  Exciton analysis of the transition density matrix
    Trans. dipole moment [D]:             0.000398
      Cartesian components [D]:         [  0.000191,  -0.000137,  -0.000322]
    <r_h> [Ang]:                        [ -1.563092,  -0.063604,   0.002130]
    <r_e> [Ang]:                        [ -1.431367,  -0.187014,   0.001033]
    |<r_e - r_h>| [Ang]:                  0.180507
    Hole size [Ang]:                      1.229388
      Cartesian components [Ang]:       [  0.662365,   0.649956,   0.806366]
    Electron size [Ang]:                  2.235561
      Cartesian components [Ang]:       [  1.500236,   1.497560,   0.710169]
    RMS electron-hole separation [Ang]:   2.547384
      Cartesian components [Ang]:       [  1.637078,   1.629612,   1.074013]
    Covariance(r_h, r_e) [Ang^2]:         0.026273
    Correlation coefficient:              0.009560
    Center-of-mass size [Ang]:            1.280788
      Cartesian components [Ang]:       [  0.824044,   0.820038,   0.537501]

  Decomposition into state-averaged NTOs
    H- 0 -> L+ 2:  0.6638 ( 88.1%)
    H- 1 -> L+ 0:  0.1521 (  4.6%)
                   omega =  92.9%
  ----------------------------------------------------------------------------


  Excited state 5 (singlet, A)                                     [converged]
  ----------------------------------------------------------------------------
  Term symbol:  6 (1) A                                     R^2 =  2.17949e-13

  Total energy:                                            -77.9409218673 a.u.
  Excitation energy:                                              10.171507 eV

  Osc. strength:                                                      0.001621
  Trans. dip. moment [a.u.]:           [   0.003843,    0.004838,   -0.080421]
  <i|r^2|0> [a.u.]:                    [   0.105219,   -0.097349,    0.016692]
  Two-photon absorption cross-section (SoS) [a.u.]:                 218.948506
  Two-photon absorption matrix (SoS) [a.u.]:
                                       |    0.363988    0.055526   -3.784504 |
                                       |    0.055526   -0.433041    3.588944 |
                                       |   -3.784504    3.588944    0.070473 |
  Two-photon absorption cross-section [a.u.]:                       110.343094
  Two-photon absorption matrix [a.u.]:
                                       |    0.258882    0.039778   -2.686638 |
                                       |    0.039778   -0.306853    2.547831 |
                                       |   -2.686638    2.547831    0.049914 |

  Dip. moment [a.u.]:                  [   0.426489,   -0.404698,   -0.003981]
[...]
    16   -1.498876325402e-03
    17   -1.781856536328e-03
    18    2.290965508043e-04
    19   -4.833573566041e-03
    20    2.287278769523e-02
    21    1.027770945577e+00
    22   -2.495743685582e-04
    23    1.378427872000e-02
    24    8.221028997718e-04
    25    5.468119250531e-02
    26   -3.288507451179e-02
    27   -1.231038278436e+00
    28    8.956049523392e-02
    29   -8.498197412720e-02
    30   -8.591516623071e-04
    31    3.319138522980e-01
    32   -3.150008062317e-01
    33   -3.199004778853e-03
    34    1.416743406797e-02
    35   -1.215837318264e-03
    36   -1.522693140148e-03
    37    2.387982519799e-05
    38   -5.770191268974e-04
    39    3.584493417377e-03
    40    7.944450171827e-01
    41    1.030735585435e-03
    42   -1.255594856364e-02
    43   -7.100273606330e-04
    44    3.627722249163e-03
    45    7.948630203387e-01
    46    1.260119787362e-02
    47   -3.834474125520e-04
    48    5.804037261170e-04
Sym=X
Ene= 0.230802
Spin=Alpha
Occup=0
     1   -2.846296234511e-02
     2   -1.152816254310e+00
     3    1.207575141990e-02
     4    3.439071045420e-03
     5    7.878594051308e-04
     6    2.417473834909e-05
     7   -3.569391286871e-05
     8   -1.315236411512e-04
     9    1.693365016002e-01
    10    1.781271987271e-01
    11    1.890504655923e-02
    12    5.497887483627e-01
    13    5.783062964461e-01
    14    6.138488085120e-02
    15   -2.611819213867e-06
    16    5.466971742150e-05
    17   -6.577270048995e-05
    18    1.094446709948e-03
    19    5.548274877177e-05
    20    2.851419352207e-02
    21    1.153141321361e+00
    22    2.826177375846e-03
    23    1.222582591137e-02
    24    8.753841494143e-04
    25   -6.930345507651e-05
    26    6.559176200041e-05
    27    1.396777004195e-03
    28    1.394991660945e-01
    29    1.468400306524e-01
    30    1.555929265600e-02
    31    5.087100115952e-01
    32    5.357013191341e-01
    33    5.674878171615e-02
    34   -2.295521893678e-05
    35    2.468520462330e-04
    36   -2.686042027855e-04
    37    4.720257638094e-03
    38    2.504077457427e-04
    39   -3.246928855275e-02
    40   -1.180842491271e+00
    41    2.818718493006e-03
    42    1.339901930212e-02
    43    9.447812096968e-04
    44    3.246850041423e-02
    45    1.178922679047e+00
    46    1.321482322291e-02
    47    3.483568843566e-03
    48    8.438812289646e-04
Sym=X
Ene= 0.236550
Spin=Alpha
Occup=0
     1   -2.657804967890e-02
     2   -8.849808892998e-01
     3    1.161298164167e-02
     4    8.340441403608e-03
     5    1.061249881850e-03
     6   -7.599380818876e-02
     7    7.335212477716e-02
     8    1.254830797485e+00
     9    5.120652152200e-02
    10   -4.845852963269e-02
    11   -4.725729765240e-04
    12    1.799105124624e-01
    13   -1.702041514793e-01
    14   -1.636769395364e-03
    15   -1.580080286474e-02
    16    1.933783161985e-03
    17    2.200367155090e-03
    18   -5.169836918493e-04
    19    1.046796612571e-02
    20   -2.654693354932e-02
    21   -8.835291141570e-01
    22   -7.739614565599e-03
    23   -1.199657276763e-02
    24   -1.096923239562e-03
    25    9.538369678230e-02
    26   -8.852970563401e-02
    27   -1.830469008971e+00
    28    6.485986248826e-02
    29   -6.140904791336e-02
    30   -6.140414314554e-04
    31    2.932632254771e-01
    32   -2.778890175801e-01
    33   -2.783429500203e-03
    34    2.669455177664e-02
    35   -3.042286876634e-03
    36   -3.524006306263e-03
    37    6.886484676622e-04
    38   -1.389098566757e-02
    39    1.095450354589e-02
    40    1.246285922767e+00
    41   -9.099973600309e-03
    42   -2.045572657659e-02
    43   -1.674041842522e-03
    44    1.097518944880e-02
    45    1.247576885549e+00
    46    1.998839108117e-02
    47    1.013319514656e-02
    48    1.570291704027e-03
Sym=X
Ene= 0.302422
Spin=Alpha
Occup=0
     1    1.103778100763e-02
     2   -1.507858677426e+00
     3    2.191042985579e-02
     4    2.695663133633e-04
     5    1.070027627291e-03
     6   -1.677861679461e-06
     7    1.005046181765e-06
     8    1.573953563748e-04
     9    1.309906754023e-01
    10    1.377925350252e-01
    11    1.462167666926e-02
    12    1.067892421541e+00
    13    1.123191603636e+00
    14    1.191593029732e-01
    15   -3.091366769160e-05
    16    1.457477425644e-03
    17   -1.648817304167e-03
    18    2.847629782922e-02
    19    1.458323969617e-03
    20   -1.101826729805e-02
    21    1.507645333283e+00
    22   -8.497229499632e-04
    23    2.188125389657e-02
    24    1.280469734578e-03
    25   -1.261743091826e-06
    26    3.969370764412e-06
    27   -1.242757513691e-04
    28   -1.397707922328e-01
    29   -1.470255145862e-01
    30   -1.558924925515e-02
    31   -1.177098650531e+00
    32   -1.238219860780e+00
    33   -1.313137752416e-01
    34   -3.386375377906e-05
    35    1.929914001011e-03
    36   -2.194613927917e-03
    37    3.782036889704e-02
    38    1.931207480742e-03
    39   -3.015887805053e-02
    40    1.813677482179e+00
    41    2.497242065915e-03
    42   -2.409910826040e-02
    43   -1.335596932370e-03
    44    3.014160719647e-02
    45   -1.813504457144e+00
    46   -2.420735018091e-02
    47    1.264599058225e-03
    48   -1.085705774126e-03
Sym=X
Ene= 0.462712
Spin=Alpha
Occup=0
     1   -1.157263548403e-01
     2   -6.526705585252e-01
     3   -1.391332717746e-02
     4   -1.031997484009e-02
     5   -1.292376341592e-03
     6    6.476272798630e-02
     7    1.149008508504e-02
     8   -3.734551835863e+00
     9    1.141228325768e-01
    10   -1.083799692784e-01
    11   -1.082703205165e-03
    12    2.394169809551e+00
    13   -2.273689090507e+00
    14   -2.220229459724e-02
    15    5.363730971589e-02
    16   -3.081048146262e-03
    17   -4.397507628291e-03
    18   -1.287129079914e-03
    19    2.423610850250e-02
    20   -1.157186392611e-01
    21   -6.524367911761e-01
    22    9.605964050516e-03
    23    1.441112294101e-02
    24    1.332523149639e-03
    25   -6.009783652879e-02
    26   -2.018102585001e-02
    27    3.528493037488e+00
    28    9.445759971089e-02
    29   -8.969390832057e-02
    30   -9.093932805590e-04
    31    2.465389352467e+00
    32   -2.341598915645e+00
    33   -2.294313211392e-02
    34   -5.198020504966e-02
    35    3.435697483633e-03
    36    4.656444912730e-03
    37    8.542054300141e-04
    38   -1.572246101166e-02
    39    1.130409462487e-01
    40    7.463721816075e-01
    41    9.256675834433e-03
    42    1.665027396075e-02
    43    1.449154944667e-03
    44    1.131035681886e-01
    45    7.460330332501e-01
    46   -1.616686801283e-02
    47   -1.008196719735e-02
    48   -1.385487610717e-03
Sym=X
Ene= 0.579874
Spin=Alpha
Occup=0
     1   -2.299600435800e-01
     2   -5.954818150486e-02
     3    2.701003208849e-02
     4   -3.199231698447e-02
     5   -6.353505220863e-04
     6    1.107515814614e-02
     7    1.747422197023e-01
     8    1.894130316688e-01
     9   -2.999658412251e-01
    10    2.848624730419e-01
    11    2.782498266125e-03
    12    8.416559285478e-01
    13   -7.991442315055e-01
    14   -7.852102894957e-03
    15    4.193479983061e-03
    16   -3.855485358782e-03
    17   -3.537111532751e-03
    18    3.047668173411e-03
    19   -6.016102612405e-02
    20   -2.298029940051e-01
    21   -5.956691561353e-02
    22    3.336191385653e-02
    23   -2.535182156760e-02
    24    7.097079499625e-05
    25    1.712118018920e-03
    26    1.620054798603e-01
    27    6.464658326381e-01
    28    3.116537136890e-01
    29   -2.959672482924e-01
    30   -2.898259157161e-03
    31   -6.548765418129e-01
    32    6.219744045382e-01
    33    6.153096974935e-03
    34   -8.371773195335e-04
    35   -3.390429569211e-03
    36   -2.970242556441e-03
    37    3.040676060883e-03
    38   -5.941792850103e-02
    39   -2.429371053490e-01
    40   -3.880682644303e-02
    41   -2.237888334679e-02
    42    1.577237908190e-02
    43   -1.207886457210e-04
    44   -2.428720544037e-01
    45   -3.867509669981e-02
    46   -1.691673045655e-02
    47    2.154669267876e-02
    48    4.902000114740e-04
Sym=X
Ene= 0.608686
Spin=Alpha
Occup=0
     1    5.466086198039e-01
     2   -4.011658903658e-01
     3    6.244752382273e-02
     4   -3.874051756280e-02
     5    6.587666456824e-04
     6   -4.322175622566e-06
     7    6.144145709934e-05
     8   -3.009007618515e-04
     9    1.279126401451e-02
    10    1.349537410611e-02
    11    1.427167738083e-03
    12   -1.355224084759e-01
    13   -1.428253006870e-01
    14   -1.515951415323e-02
    15   -1.103646108422e-04
    16    8.222120441907e-03
    17   -9.322331371259e-03
    18    1.608468827955e-01
    19    8.205959337848e-03
    20   -5.469259589655e-01
    21    4.014494093012e-01
    22   -4.187910509107e-02
    23    6.036992751925e-02
    24    1.634424026932e-03
    25    3.412856142954e-06
    26    2.137626366128e-05
    27    9.797489783973e-05
    28    5.644554863174e-02
    29    5.936238221814e-02
    30    6.301268994852e-03
    31   -3.888490920247e-01
    32   -4.091894068972e-01
    33   -4.336889444981e-02
    34    1.262540034700e-04
    35   -6.872678077022e-03
    36    7.800848258867e-03
    37   -1.345425384269e-01
    38   -6.900009201377e-03
    39    4.916708638264e-01
    40   -7.727748912832e-02
    41   -3.786982606385e-02
    42    5.454322951141e-02
    43    1.479363398508e-03
    44   -4.917365084562e-01
    45    7.743210062415e-02
    46    5.643063334456e-02
    47   -3.501640319991e-02
    48    5.932839270214e-04
Sym=X
Ene= 0.688337
Spin=Alpha
Occup=0
     1    9.108223083701e-05
     2   -4.448446429588e-06
     3    5.775769423396e-04
     4    7.269054056116e-04
     5   -1.186077047460e-02
     6    6.376880980584e-06
     7    1.008248671728e-05
     8    3.224398689960e-05
     9    3.240837537606e-02
    10    4.078598602318e-02
    11   -6.748057797114e-01
    12   -2.939632701978e-02
    13   -3.676796539715e-02
    14    6.098659764497e-01
    15   -1.322750278267e-03
    16    8.098981658642e-02
    17   -7.683377285570e-02
    18   -8.529263012809e-03
    19   -1.177399236424e-03
    20    8.401452213842e-05
    21    1.826516158063e-05
    22    5.615712799605e-04
    23    7.091198911999e-04
    24   -1.184132862181e-02
    25    4.796892789404e-07
    26    5.896180298327e-05
    27   -8.940227341694e-05
    28    3.195705608802e-02
    29    4.016383883766e-02
    30   -6.652856363291e-01
    31   -2.965356517879e-02
    32   -3.708026191023e-02
    33    6.156202730113e-01
    34    1.343018151050e-03
    35   -8.440044491959e-02
    36    8.007991816690e-02
    37    8.895796118703e-03
    38    1.243019906702e-03
    39    2.095150286740e-06
    40   -5.269347902014e-05
    41    1.250957169048e-03
    42    1.586926225860e-03
    43   -2.608922236883e-02
    44    4.261124405426e-06
    45   -7.275619774273e-05
    46    1.239351876100e-03
    47    1.572767034930e-03
    48   -2.607611419583e-02
Sym=X
Ene= 0.700645
Spin=Alpha
Occup=0
     1   -6.207342455095e-01
     2    3.821108875003e-01
     3   -9.436489487702e-02
     4   -4.657945028905e-02
     5   -7.353857731553e-03
     6   -6.097843570242e-02
     7   -1.963851382553e-01
     8    4.583628494273e-01
     9    1.761644567105e-01
    10   -1.674370775470e-01
    11   -1.724542601979e-03
    12   -1.889464391408e-01
    13    1.799198391447e-01
    14    1.792240847780e-03
    15    2.245410388277e-01
    16   -2.331915916844e-02
    17   -2.761855902396e-02
    18    3.743775763604e-03
    19   -7.751427420544e-02
    20   -6.206638834760e-01
    21    3.825339084396e-01
    22    4.174309161470e-02
    23    9.656801665908e-02
    24    7.834171832306e-03
    25   -2.656871759499e-02
    26   -3.486659598268e-01
    27    3.840460477603e-01
    28   -2.036417894868e-01
    29    1.933703672843e-01
    30    1.829595257453e-03
    31   -7.076538770096e-02
    32    6.732366931995e-02
    33    8.015997588786e-04
    34    1.389873686247e-01
    35   -1.568971172848e-02
    36   -1.818603818200e-02
    37    3.444039956716e-03
    38   -6.946498090722e-02
    39   -3.360851893778e-01
    40   -3.708837856471e-02
    41   -3.676179149788e-02
    42   -5.553545611329e-02
    43   -5.118569386411e-03
    44   -3.359383064465e-01
    45   -3.699652302968e-02
    46    5.358822730811e-02
    47    3.955450167048e-02
    48    4.962701853320e-03
Sym=X
Ene= 0.780065
Spin=Alpha
Occup=0
     1    4.213627258137e-01
     2   -4.821227773052e-01
     3    8.187065517933e-02
     4    1.608940894411e-02
     5    4.906142229980e-03
     6    7.169090943963e-02
     7   -3.890335789695e-01
     8   -2.761642949258e-01
     9    1.423080199560e-01
    10   -1.349973548468e-01
    11   -1.243359466751e-03
    12    2.827181608580e-01
    13   -2.689243657262e-01
    14   -2.779327721958e-03
    15   -1.353817627808e-01
    16    1.060041507698e-02
    17    1.359387698541e-02
    18    7.739959413491e-04
    19   -1.272729000569e-02
    20    4.213838336636e-01
    21   -4.825040229962e-01
    22   -1.191150177498e-02
    23   -8.256022465229e-02
    24   -5.561442709601e-03
    25   -1.026011707994e-01
    26    3.371327525791e-02
    27    8.902401432200e-01
    28    6.319818791903e-02
    29   -6.010736274152e-02
    30   -6.392508305456e-04
    31    2.540595720148e-01
    32   -2.411063378880e-01
    33   -2.220218317745e-03
    34    2.586251264761e-01
    35   -2.317823132878e-02
    36   -2.857145819218e-02
    37    1.101851218521e-03
    38   -2.647029113968e-02
    39   -6.140693043357e-01
    40    3.910320945560e-01
    41   -3.020144163528e-02
    42   -1.301783212953e-01
    43   -9.311856453744e-03
    44   -6.142645287307e-01
    45    3.913578700626e-01
    46    1.285622586053e-01
    47    3.678306794641e-02
    48    8.394184550665e-03
Sym=X
Ene= 0.807005
Spin=Alpha
Occup=0
     1    2.951744183677e-05
     2   -3.705555879588e-06
     3    1.118019149500e-03
     4    1.405040997750e-03
     5   -2.327688973383e-02
     6    6.910317568918e-06
     7   -5.942770826996e-05
     8    3.217744514945e-05
     9    3.673128087727e-02
    10    4.612611762831e-02
    11   -7.636883104555e-01
    12   -5.379449410337e-02
    13   -6.761969834552e-02
    14    1.119001973679e+00
    15    1.033351971374e-03
    16   -6.510789580294e-02
    17    6.177155098244e-02
    18    6.852530423058e-03
    19    9.523931714053e-04
    20    3.251625230495e-05
    21   -6.435990728497e-05
    22    1.113881920656e-03
    23    1.397803189925e-03
    24   -2.325073984961e-02
    25   -6.149228417333e-06
    26   -2.771912230467e-05
    27    4.592649522976e-05
    28   -3.663963341830e-02
    29   -4.609799502615e-02
    30    7.633324407634e-01
    31    5.424937699399e-02
    32    6.817996231823e-02
    33   -1.129572930385e+00
    34    1.070497557975e-03
    35   -6.505711393464e-02
    36    6.171670896357e-02
    37    6.861973944081e-03
    38    9.575836781655e-04
    39   -4.042029267124e-05
    40    6.977099430943e-05
    41   -1.907331432844e-03
    42   -2.422669441288e-03
    43    3.972743415919e-02
    44   -4.078090860409e-05
    45    1.309989789082e-05
    46   -1.890085544294e-03
    47   -2.403250592648e-03
    48    3.972120886798e-02
Sym=X
Ene= 0.856091
Spin=Alpha
Occup=0
     1    7.719322287891e-02
     2   -1.178948484631e+00
     3    1.698182675591e-01
     4    5.462037775346e-02
     5    1.145323945690e-02
     6    1.352193846324e-05
     7    1.172157338483e-04
     8   -2.727991764584e-05
     9   -5.095542831261e-01
    10   -5.360511354637e-01
    11   -5.688918598086e-02
    12    1.079571183966e+00
    13    1.135610580391e+00
    14    1.205241895498e-01
    15   -2.728359946505e-04
    16    1.182389028744e-02
    17   -1.339175448072e-02
    18    2.311970818944e-01
    19    1.182185081144e-02
    20   -7.707625326730e-02
    21    1.178838380374e+00
    22    4.591495876601e-02
    23    1.722598282456e-01
    24    1.261990625675e-02
    25   -2.648899870464e-06
    26    1.231988129294e-04
    27   -1.192881288221e-04
    28   -3.033224666812e-01
    29   -3.190824718901e-01
    30   -3.381261112154e-02
    31    7.590910031768e-01
    32    7.984814806356e-01
    33    8.462518372099e-02
    34    1.843530135547e-04
    35   -1.053825638933e-02
    36    1.194227218962e-02
    37   -2.061052571920e-01
    38   -1.052772613136e-02
    39   -5.596494168649e-02
    40   -9.175806660852e-01
    41    5.139345316869e-02
    42    1.131780882954e-01
    43    9.310716608012e-03
    44    5.592045022560e-02
    45    9.176793208354e-01
    46    1.104883441181e-01
    47    5.708246487657e-02
    48    8.746912301887e-03
Sym=X
Ene= 0.932921
Spin=Alpha
Occup=0
     1    1.149204210601e-01
     2   -9.495776317443e-01
     3    1.424874227576e-01
     4   -1.084941579242e-02
     5    6.200218071445e-03
     6    2.615049223403e-05
     7    9.846566421733e-05
     8    3.078145060365e-04
     9   -3.957080389875e-01
    10   -4.167194335712e-01
    11   -4.418442943790e-02
    12    1.182440022901e+00
    13    1.245081724863e+00
    14    1.320217001686e-01
    15   -1.259923144811e-04
    16    2.416536538304e-03
    17   -2.710194079477e-03
    18    4.696317679822e-02
    19    2.283546329848e-03
    20   -1.148470221093e-01
    21    9.501952382985e-01
    22   -1.804216766512e-02
    23    1.417100336579e-01
    24    7.687055479176e-03
    25   -2.717495377637e-05
    26   -7.120211201015e-05
    27   -3.242057398683e-04
    28    5.284426829902e-01
    29    5.553699834476e-01
    30    5.891596989312e-02
    31   -1.590904564409e+00
    32   -1.672184635994e+00
    33   -1.773858037811e-01
    34   -1.170668812418e-04
    35    1.002232813936e-02
    36   -1.135865776906e-02
    37    1.960962553342e-01
    38    1.017691829850e-02
    39   -1.378727022334e-01
    40    1.514678810475e+00
    41    1.121658836800e-02
    42   -2.158961623259e-01
    43   -1.250018026839e-02
    44    1.378353432609e-01
    45   -1.515311883066e+00
    46   -2.163389218213e-01
    47    7.682034604626e-05
    48   -1.038188232632e-02
Sym=X
Ene= 0.968160
Spin=Alpha
Occup=0
     1   -6.459787454343e-02
     2    1.004229928640e+00
     3   -1.076453172661e-01
     4   -1.010245994408e-01
     5   -1.126641688423e-02
     6    3.179610109383e-02
     7    5.185695466222e-01
     8    6.397975757606e-02
     9    5.186507945192e-01
    10   -4.921684639080e-01
    11   -4.807587247856e-03
    12   -1.522753985354e+00
    13    1.444651234537e+00
    14    1.408393991891e-02
    15   -8.031520301357e-02
    16   -1.115990489299e-02
    17   -7.388913562698e-03
    18    1.572047531731e-02
    19   -3.073988066047e-01
    20   -6.460531079103e-02
    21    1.002944313206e+00
    22    9.544242770655e-02
    23    1.124353336960e-01
    24    1.138553514748e-02
    25   -2.431469852025e-02
    26    3.476822098525e-02
    27   -9.565279574201e-01
    28    4.276821499423e-01
    29   -4.066344038875e-01
    30   -4.032468848463e-03
    31   -1.315579356528e+00
    32    1.251143152099e+00
    33    1.240014436979e-02
    34    4.942908746084e-02
    35    1.125276447964e-02
    36    8.441699071129e-03
    37   -1.364236231959e-02
    38    2.646094019603e-01
    39    3.835297019045e-02
    40   -6.943012318847e-01
    41    8.028031309635e-02
    42    5.798593193016e-02
    43    7.366520401871e-03
    44    3.831951868223e-02
    45   -6.927570800345e-01
    46   -5.364843829231e-02
    47   -8.309957717254e-02
    48   -7.588854091355e-03
[5D]

======= END OF MOLDEN-FORMATTED INPUT FILE =======


        *************************************************************
        *                                                           *
        *  Thank you very much for using Q-Chem.  Have a nice day.  *
        *                                                           *
        *************************************************************


