                  Welcome to Q-Chem
     A Quantum Leap Into The Future Of Chemistry


 Q-Chem 5.4 (devel), Q-Chem, Inc., Pleasanton, CA (2021)

 E. Epifanovsky,  A. T. B. Gilbert,  Xintian Feng,  Joonho Lee,  Yuezhi Mao,  
 N. Mardirossian,  P. Pokhilko,  A. White,  M. Wormit,  M. P. Coons,  
 A. L. Dempwolff,  Zhengting Gan,  D. Hait,  P. R. Horn,  L. D. Jacobson,  
 I. Kaliman,  J. Kussmann,  A. W. Lange,  Ka Un Lao,  D. S. Levine,  Jie Liu,  
 S. C. McKenzie,  A. F. Morrison,  K. Nanda,  F. Plasser,  D. R. Rehn,  
 M. L. Vidal,  Zhi-Qiang You,  Ying Zhu,  B. Alam,  B. Albrecht,  
 A. Aldossary,  E. Alguire,  J. H. Andersen,  D. Barton,  K. Begam,  A. Behn,  
 Y. A. Bernard,  E. J. Berquist,  H. Burton,  A. Carreras,  K. Carter-Fenk,  
 R. Chakraborty,  A. D. Chien,  K. D. Closser,  V. Cofer-Shabica,  
 S. Dasgupta,  Jia Deng,  M. de Wergifosse,  M. Diedenhofen,  Hainam Do,  
 S. Ehlert,  Po-Tung Fang,  S. Fatehi,  Qingguo Feng,  T. Friedhoff,  
 J. Gayvert,  Qinghui Ge,  G. Gidofalvi,  M. Goldey,  J. Gomes,  
 C. Gonzalez-Espinoza,  S. Gulania,  A. Gunina,  M. W. D. Hanson-Heine,  
 P. H. P. Harbach,  A. W. Hauser,  M. F. Herbst,  M. Hernandez Vera,  
 M. Hodecker,  Z. C. Holden,  S. Houck,  Xunkun Huang,  Kerwin Hui,  
 B. C. Huynh,  M. Ivanov,  Hyunjun Ji,  Hanjie Jiang,  B. Kaduk,  S. Kaehler,  
 K. Khistyaev,  Jaehoon Kim,  P. Klunzinger,  Z. Koczor-Benda,  
 Joong Hoon Koh,  D. Kosenkov,  L. Koulias,  T. Kowalczyk,  C. M. Krauter,  
 K. Kue,  A. Kunitsa,  T. Kus,  A. Landau,  K. V. Lawler,  D. Lefrancois,  
 S. Lehtola,  Rain Li,  Yi-Pei Li,  Jiashu Liang,  M. Liebenthal,  
 Hung-Hsuan Lin,  You-Sheng Lin,  Fenglai Liu,  Kuan-Yu Liu,  
 M. Loipersberger,  A. Luenser,  A. Manjanath,  P. Manohar,  E. Mansoor,  
 S. F. Manzer,  Shan-Ping Mao,  A. V. Marenich,  T. Markovich,  S. Mason,  
 S. A. Maurer,  P. F. McLaughlin,  M. F. S. J. Menger,  J.-M. Mewes,  
 S. A. Mewes,  P. Morgante,  J. W. Mullinax,  K. J. Oosterbaan,  G. Paran,  
 Alexander C. Paul,  Suranjan K. Paul,  F. Pavosevic,  Zheng Pei,  S. Prager,  
 E. I. Proynov,  E. Ramos,  B. Rana,  A. E. Rask,  A. Rettig,  R. M. Richard,  
 F. Rob,  E. Rossomme,  T. Scheele,  M. Scheurer,  M. Schneider,  
 N. Sergueev,  S. M. Sharada,  W. Skomorowski,  D. W. Small,  C. J. Stein,  
 Yu-Chuan Su,  E. J. Sundstrom,  Zhen Tao,  J. Thirman,  T. Tsuchimochi,  
 N. M. Tubman,  S. P. Veccham,  O. Vydrov,  J. Wenzel,  J. Witte,  A. Yamada,  
 Kun Yao,  S. Yeganeh,  S. R. Yost,  A. Zech,  Igor Ying Zhang,  Xing Zhang,  
 Yu Zhang,  D. Zuev,  A. Aspuru-Guzik,  A. T. Bell,  N. A. Besley,  
 K. B. Bravaya,  B. R. Brooks,  D. Casanova,  Jeng-Da Chai,  S. Coriani,  
 C. J. Cramer,  A. E. DePrince, III,  R. A. DiStasio Jr.,  A. Dreuw,  
 B. D. Dunietz,  T. R. Furlani,  W. A. Goddard III,  S. Grimme,  
 S. Hammes-Schiffer,  T. Head-Gordon,  W. J. Hehre,  Chao-Ping Hsu,  
 T.-C. Jagau,  Yousung Jung,  A. Klamt,  Jing Kong,  D. S. Lambrecht,  
 WanZhen Liang,  N. J. Mayhall,  C. W. McCurdy,  J. B. Neaton,  
 C. Ochsenfeld,  J. A. Parkhill,  R. Peverati,  V. A. Rassolov,  Yihan Shao,  
 L. V. Slipchenko,  T. Stauch,  R. P. Steele,  J. E. Subotnik,  
 A. J. W. Thom,  A. Tkatchenko,  D. G. Truhlar,  T. Van Voorhis,  
 T. A. Wesolowski,  K. B. Whaley,  H. L. Woodcock III,  P. M. Zimmerman,  
 S. Faraji,  P. M. W. Gill,  M. Head-Gordon,  J. M. Herbert,  A. I. Krylov

 Additional authors for Version 5.4.1: 
 S. Kotaru,  Shaozhi Li,  Xiangyuan Li,  F. Matz,  A. Molle,  Haisheng Ren,  
 Yingli Su,  Hung-Yi Tsai,  C. Utku,  Fang Wang

 Contributors to earlier versions of Q-Chem not listed above: 
 R. D. Adamson,  B. Austin,  R. Baer,  J. Baker,  G. J. O. Beran,  
 K. Brandhorst,  S. T. Brown,  E. F. C. Byrd,  A. K. Chakraborty,  
 G. K. L. Chan,  Chun-Min Chang,  Yunqing Chen,  C.-L. Cheng,  
 Siu Hung Chien,  D. M. Chipman,  D. L. Crittenden,  H. Dachsel,  
 R. J. Doerksen,  A. D. Dutoi,  R. G. Edgar,  J. Fosso-Tande,  
 L. Fusti-Molnar,  D. Ghosh,  A. Ghysels,  A. Golubeva-Zadorozhnaya,  
 J. Gonthier,  M. S. Gordon,  S. R. Gwaltney,  G. Hawkins,  J. E. Herr,  
 A. Heyden,  S. Hirata,  E. G. Hohenstein,  G. Kedziora,  F. J. Keil,  
 C. Kelley,  Jihan Kim,  R. A. King,  R. Z. Khaliullin,  P. P. Korambath,  
 W. Kurlancheek,  A. Laurent,  A. M. Lee,  M. S. Lee,  S. V. Levchenko,  
 Ching Yeh Lin,  D. Liotard,  E. Livshits,  R. C. Lochan,  I. Lotan,  
 L. A. Martinez-Martinez,  P. E. Maslen,  N. Nair,  D. P. O'Neill,  
 D. Neuhauser,  E. Neuscamman,  C. M. Oana,  R. Olivares-Amaya,  R. Olson,  
 T. M. Perrine,  B. Peters,  P. A. Pieniazek,  A. Prociuk,  Y. M. Rhee,  
 J. Ritchie,  M. A. Rohrdanz,  E. Rosta,  N. J. Russ,  H. F. Schaefer III,  
 M. W. Schmidt,  N. E. Schultz,  S. Sharma,  N. Shenvi,  C. D. Sherrill,  
 A. C. Simmonett,  A. Sodt,  T. Stein,  D. Stuck,  K. S. Thanthiriwatte,  
 V. Vanovschi,  L. Vogt,  Tao Wang,  A. Warshel,  M. A. Watson,  
 C. F. Williams,  Q. Wu,  X. Xu,  Jun Yang,  W. Zhang,  Yan Zhao

 Please cite Q-Chem as follows:
 Y. Shao et al., Mol. Phys. 113, 184-215 (2015)
 DOI: 10.1080/00268976.2014.952696

 Q-Chem 5.4.1 for Intel X86 EM64T Linux

 Parts of Q-Chem use Armadillo 9.800.1 (Horizon Scraper).
 http://arma.sourceforge.net/

 Q-Chem begins on Thu Nov 17 00:23:29 2022  

 Host: cpu286.baobab
0

     Scratch files written to /scratch/fum/qchem19098//
 Processing $rem in /home/share/wesolowski/qc5.aug2021.FDE/config/preferences:
 Processing $rem in /home/fum/.qchemrc:

 Checking the input file for inconsistencies... 	...done.

--------------------------------------------------------------
User input:
--------------------------------------------------------------
$comment
generated from CCJob.Templates
$end

$rem
sym_ignore = true
method = adc(2)
ee_states = 10
basis = cc-pVDZ
mem_static = 1024
mem_total = 30000
adc_davidson_maxiter = 900
adc_davidson_conv = 6
adc_print = 3
adc_prop_es = true
adc_prop_es2es = true
adc_prop_tpa = true
molden_format = True
state_analysis = true
print_orbitals = 15
gen_scfman = false
fde_export_density = true
fde_details = 3
$end

$molecule
0 1
H -0.0348278765 -0.2442097827 0.0636489606
C -1.0765972949 -0.5242748755 -0.0023551776
H -1.313264467 -1.5767591607 -0.0757276926
C -2.043634118 0.3926884087 0.0061254933
H -1.8137616575 1.4459188338 0.0754456828
H -3.085977293 0.114931858 -0.0593381042                     
$end
--------------------------------------------------------------
 ----------------------------------------------------------------
             Standard Nuclear Orientation (Angstroms)
    I     Atom           X                Y                Z
 ----------------------------------------------------------------
    1      H      -0.0348278765    -0.2442097827     0.0636489606
    2      C      -1.0765972949    -0.5242748755    -0.0023551776
    3      H      -1.3132644670    -1.5767591607    -0.0757276926
    4      C      -2.0436341180     0.3926884087     0.0061254933
    5      H      -1.8137616575     1.4459188338     0.0754456828
    6      H      -3.0859772930     0.1149318580    -0.0593381042
 ----------------------------------------------------------------
 Nuclear Repulsion Energy =          33.42476618 hartrees
 There are        8 alpha and        8 beta electrons
 Requested basis set is cc-pVDZ
 There are 24 shells and 48 basis functions
 Total memory of 30000 MB is distributed as follows: 
   MEM_STATIC is set to 1024 MB
   QALLOC/CCMAN JOB total memory use is  28976 MB
 Warning: actual memory use might exceed 30000 MB

 Total QAlloc Memory Limit  30000 MB
 Mega-Array Size      1001 MB
 MEM_STATIC part      1024 MB

                       Distance Matrix (Angstroms)
             H (  1)   C (  2)   H (  3)   C (  4)   H (  5)
   C (  2)  1.080776
   H (  3)  1.851895  1.081258
   C (  4)  2.108139  1.332687  2.102109
   H (  5)  2.453830  2.105024  3.067561  1.080250
   H (  6)  3.074674  2.109370  2.450428  1.080700  1.846138

 A cutoff of  1.0D-11 yielded    300 shell pairs
 There are      1220 function pairs (      1329 Cartesian)
 Smallest overlap matrix eigenvalue = 4.80E-03

 Scale SEOQF with 1.000000e-01/1.000000e-01/1.000000e+00

 Standard Electronic Orientation quadrupole field applied
 Nucleus-field energy     =     0.0000000022 hartrees
 Guess from superposition of atomic densities
 Warning:  Energy on first SCF cycle will be non-variational
 SAD guess density has 16.000000 electrons
 A restricted Hartree-Fock SCF calculation will be
 performed using Pulay DIIS extrapolation
 SCF converges when DIIS error is below 1.0E-08
 using 8 threads for integral computing
 -------------------------------------------------------
 OpenMP Integral computing Module                
 Release: version 1.0, May 2013, Q-Chem Inc. Pittsburgh 
 -------------------------------------------------------
 ---------------------------------------
  Cycle       Energy         DIIS Error
 ---------------------------------------
    1     -78.4390609620      1.01E-01
    2     -78.0176857324      7.21E-03
    3     -78.0383187988      1.84E-03
    4     -78.0398017709      5.73E-04
    5     -78.0399234159      5.80E-05
    6     -78.0399252920      9.37E-06
    7     -78.0399253527      2.34E-06
    8     -78.0399253557      9.77E-07
    9     -78.0399253560      9.14E-08
   10     -78.0399253560      1.15E-08
   11     -78.0399253560      2.97E-09 Convergence criterion met
 ---------------------------------------
 SCF time:  CPU 2.54 s  wall 2.14 s
 SCF   energy in the final basis set = -78.03992536
 Total energy in the final basis set = -78.03992536
Exporting Density Matrix to file 'Densmat_SCF.txt'.
Export successful
================================================================================
|                                                                              |
|                                 A D C  M A N                                 |
|                                                                              |
 ------------------------------------------------------------------------------ 
|                                                                              |
| Components:                                                                  |
|                                                                              |
| - libvmm - 1.3-trunk                                                         |
|   Authors:                                                                   |
|   Evgeny Epifanovsky, Ilya Kaliman                                           |
|                                                                              |
| - libtensor - 2.5-trunk                                                      |
|   Authors:                                                                   |
|   Evgeny Epifanovsky, Michael Wormit, Dmitry Zuev, Sam Manzer,               |
|   Ilya Kaliman                                                               |
|                                                                              |
| - libwfa - 1.1-trunk                                                         |
|   Authors:                                                                   |
|   Felix Plasser, Stefanie Mewes (Baeppler), Benjamin Thomitzni,              |
|   Michael Wormit, Feng Chen, Anna I. Krylov, Pavel Pokhilko                  |
|                                                                              |
| - libadc - 1.1-trunk                                                         |
|   Authors:                                                                   |
|   Michael Wormit, Adrian L. Dempwolff, Philipp H. P. Harbach,                |
|   Caroline Krauter, Dirk Rehn, Matthias Schneider, Jan Wenzel                |
|                                                                              |
| - adcman - 2.6-trunk                                                         |
|   Authors:                                                                   |
|   Michael Wormit, Adrian L. Dempwolff, Philipp H. P. Harbach,                |
|   Caroline Krauter, Daniel Lefrancois, Jan-Michael Mewes, Dirk Rehn,         |
|   Matthias Schneider, Jan Wenzel, Andreas Dreuw                              |
|                                                                              |
| Authors of earlier versions of ADCMAN:                                       |
| Andreas Dreuw, Jan Hendrik Starcke, Dirk Rehn, Michael Wormit                |
|                                                                              |
================================================================================

 Created directory /scratch/fum/qchem19098/plots
  Import QC data ...  CPU 0.00 s  wall 0.00 s

 Alpha MOs, Restricted
 -- Occupied --                  
-11.235 -11.233  -1.032  -0.790  -0.641  -0.582  -0.505  -0.374
  1 A     2 A     3 A     4 A     5 A     6 A     7 A     8 A                  
 -- Virtual --                   
  0.168   0.204   0.233   0.239   0.303   0.462   0.578   0.615
  9 A    10 A    11 A    12 A    13 A    14 A    15 A    16 A                  
  0.689   0.709   0.785   0.808   0.862   0.936   0.972   1.010
 17 A    18 A    19 A    20 A    21 A    22 A    23 A    24 A                  
  1.130   1.235   1.254   1.266   1.293   1.601   1.727   1.750
 25 A    26 A    27 A    28 A    29 A    30 A    31 A    32 A                  
  1.819   1.859   1.867   1.922   1.977   1.978   2.222   2.258
 33 A    34 A    35 A    36 A    37 A    38 A    39 A    40 A                  
  2.376   2.454   2.506   2.634   2.721   2.822   3.140   3.399
 41 A    42 A    43 A    44 A    45 A    46 A    47 A    48 A                  

 Beta MOs, Restricted
 -- Occupied --                  
-11.235 -11.233  -1.032  -0.790  -0.641  -0.582  -0.505  -0.374
  1 A     2 A     3 A     4 A     5 A     6 A     7 A     8 A                  
 -- Virtual --                   
  0.168   0.204   0.233   0.239   0.303   0.462   0.578   0.615
  9 A    10 A    11 A    12 A    13 A    14 A    15 A    16 A                  
  0.689   0.709   0.785   0.808   0.862   0.936   0.972   1.010
 17 A    18 A    19 A    20 A    21 A    22 A    23 A    24 A                  
  1.130   1.235   1.254   1.266   1.293   1.601   1.727   1.750
 25 A    26 A    27 A    28 A    29 A    30 A    31 A    32 A                  
  1.819   1.859   1.867   1.922   1.977   1.978   2.222   2.258
 33 A    34 A    35 A    36 A    37 A    38 A    39 A    40 A                  
  2.376   2.454   2.506   2.634   2.721   2.822   3.140   3.399
 41 A    42 A    43 A    44 A    45 A    46 A    47 A    48 A                  
  Import AO data ...  CPU 0.00 s  wall 0.01 s
  Using point group: C1
  Irreducible representations in point group: A
  Molecular orbitals: 
  Occupied MOs:
  Block   0:   1 (  A) A   2 (  A) A   3 (  A) A   4 (  A) A   5 (  A) A
                  -11.24      -11.23      -1.032     -0.7898     -0.6412
               6 (  A) A   7 (  A) A   8 (  A) A
                 -0.5819     -0.5046      -0.374
  Block   1:   1 (  A) B   2 (  A) B   3 (  A) B   4 (  A) B   5 (  A) B
                  -11.24      -11.23      -1.032     -0.7898     -0.6412
               6 (  A) B   7 (  A) B   8 (  A) B
                 -0.5819     -0.5046      -0.374
  Virtual MOs:
  Block   0:   9 (  A) A  10 (  A) A  11 (  A) A  12 (  A) A  13 (  A) A
                  0.1684      0.2037       0.233      0.2394      0.3033
              14 (  A) A  15 (  A) A  16 (  A) A  17 (  A) A  18 (  A) A
                  0.4621      0.5775      0.6151      0.6892      0.7089
              19 (  A) A  20 (  A) A  21 (  A) A  22 (  A) A
                  0.7846       0.808      0.8623       0.936
  Block   1:  23 (  A) A  24 (  A) A  25 (  A) A  26 (  A) A  27 (  A) A
                  0.9725        1.01        1.13       1.235       1.254
              28 (  A) A  29 (  A) A  30 (  A) A  31 (  A) A  32 (  A) A
                   1.266       1.293       1.601       1.727        1.75
              33 (  A) A  34 (  A) A  35 (  A) A  36 (  A) A
                   1.819       1.859       1.867       1.922
  Block   2:  37 (  A) A  38 (  A) A  39 (  A) A  40 (  A) A  41 (  A) A
                   1.977       1.978       2.222       2.258       2.376
              42 (  A) A  43 (  A) A  44 (  A) A  45 (  A) A  46 (  A) A
                   2.454       2.506       2.634       2.721       2.822
              47 (  A) A  48 (  A) A
                    3.14       3.399
  Block   3:   9 (  A) B  10 (  A) B  11 (  A) B  12 (  A) B  13 (  A) B
                  0.1684      0.2037       0.233      0.2394      0.3033
              14 (  A) B  15 (  A) B  16 (  A) B  17 (  A) B  18 (  A) B
                  0.4621      0.5775      0.6151      0.6892      0.7089
              19 (  A) B  20 (  A) B  21 (  A) B  22 (  A) B
                  0.7846       0.808      0.8623       0.936
  Block   4:  23 (  A) B  24 (  A) B  25 (  A) B  26 (  A) B  27 (  A) B
                  0.9725        1.01        1.13       1.235       1.254
              28 (  A) B  29 (  A) B  30 (  A) B  31 (  A) B  32 (  A) B
                   1.266       1.293       1.601       1.727        1.75
              33 (  A) B  34 (  A) B  35 (  A) B  36 (  A) B
                   1.819       1.859       1.867       1.922
  Block   5:  37 (  A) B  38 (  A) B  39 (  A) B  40 (  A) B  41 (  A) B
                   1.977       1.978       2.222       2.258       2.376
              42 (  A) B  43 (  A) B  44 (  A) B  45 (  A) B  46 (  A) B
                   2.454       2.506       2.634       2.721       2.822
              47 (  A) B  48 (  A) B
                    3.14       3.399
  Import MO data ...  CPU 0.15 s  wall 0.05 s
  Import HF data ...  CPU 1.35 s  wall 0.37 s
  Import 2e integrals ...  CPU 1.11 s  wall 0.18 s

--------------------------------------------------------------------------------
                                   HF Summary                                   
--------------------------------------------------------------------------------
  Energy:                                                  -78.0399253560 a.u.
  Dip. moment [a.u.]:                  [  -0.000657,    0.000828,   -0.000901]
  Total dipole [Debye]:                                               0.003530
  <r^2> [a.u.]:                        [ 175.320381,   34.918032,   11.623398]
  Total <r^2> [a.u.]:                                               221.861811
--------------------------------------------------------------------------------
  HF properties ...  CPU 0.01 s  wall 0.01 s
  MP(1) calculation ...  CPU 0.01 s  wall 0.01 s
  N^6 prerequesite intermediates ...  CPU 0.52 s  wall 0.10 s
  Difference density matrix of state mp2_gs printed to ASCII file 'State_mp2_gs_Difference.txt'
Exporting MP density matrix to file 'Densmat_MP.txt'.
Export successful
  Total density matrix of state mp2_gs printed to ASCII file 'State_mp2_gs_Total.txt'
Exporting MP density matrix to file 'Densmat_MP.txt'.
Export successful

--------------------------------------------------------------------------------
                                 MP(2) Summary                                  
--------------------------------------------------------------------------------
  MP energy contribution:                                   -0.2796995790 a.u.
  Total energy:                                            -78.3196249350 a.u.
  Dip. moment [a.u.]:                  [  -0.000649,    0.000715,   -0.000896]
  Total dipole [Debye]:                                               0.003348
  <r^2> [a.u.]:                        [ 175.367070,   34.958703,   11.455226]
  Total <r^2> [a.u.]:                                               221.780999

  Density matrix analysis:
  ------------------------
  NOs
    Occupation of frontier NOs:
       0.0453   1.9383
    Number of electrons: 16.000000
    Number of unpaired electrons: n_u =  0.40340, n_u,nl =  0.04507
    NO participation ratio (PR_NO): 13.857255
  
  
  Mulliken Population Analysis
  Atom      Charge (e)              h+              e-           Del q
  --------------------------------------------------------------------
   1 H        0.050949        0.014031       -0.011202        0.002829
   2 C       -0.100791        0.093229       -0.098846       -0.005617
   3 H        0.050542        0.014073       -0.011191        0.002883
   4 C       -0.101280        0.092957       -0.098890       -0.005933
   5 H        0.050043        0.014127       -0.011183        0.002944
   6 H        0.050537        0.014085       -0.011190        0.002894
  --------------------------------------------------------------------
  Sum:       -0.000000        0.242502       -0.242502        0.000000
  
  Multipole moment analysis of the density matrix
    Molecular charge:                      0.000000
    Number of electrons:                   16.000000
      Center of electronic charge [Ang]: [ -1.560555,  -0.065626,   0.001695]
    Total nuclear charge:                  16.000000
      Center of nuclear charge [Ang]:    [ -1.560576,  -0.065602,   0.001666]
    Dipole moment [D]:                     0.003348
      Cartesian components [D]:          [ -0.001649,   0.001817,  -0.002277]
    RMS size of the density [Ang]:         1.200801
      Cartesian components [Ang]:        [  0.796182,   0.779444,   0.447754]
  
  Exciton analysis of the difference density matrix
    <r_h> [Ang]:                  [ -1.560412,  -0.065954,   0.001830]
    <r_e> [Ang]:                  [ -1.560429,  -0.065707,   0.001818]
    |<r_e - r_h>| [Ang]:            0.000247
    Hole size [Ang]:                1.393661
      Cartesian components [Ang]: [  0.846658,   0.834084,   0.727850]
    Electron size [Ang]:            1.359762
      Cartesian components [Ang]: [  0.877890,   0.861796,   0.579284]
--------------------------------------------------------------------------------
  MP(2) calculation ...  CPU 0.39 s  wall 0.15 s
  Start ADC(2)-s ...  CPU 0.01 s  wall 0.01 s
  ADC(2) intermediates ...  CPU 0.33 s  wall 0.06 s
  Starting Davidson for singlet states of irrep A ... 
--------------------------------------------------------------------------------
   It NVec Conv  Avg. Norm  Max. Norm  Conv. states           Remark
--------------------------------------------------------------------------------
        10    0  1.330e-01  4.687e-01  0.4119 n n n n n n n n Guess.
    1   20    0  2.303e-02  1.109e-01  0.3262 n n n n n n n n 
    2   30    0  5.847e-03  2.541e-02  0.3215 n n n n n n n n 
    3   40    0  1.998e-03  1.342e-02  0.3211 n n n n n n n n 
    4   50    0  6.014e-04  4.318e-03  0.3211 n n n n n n n n 
    5   20    0  2.721e-04  1.970e-03  0.3211 n n n n n n n n Subspace collapsed.
    6   30    0  1.661e-04  1.436e-03  0.3211 n n n n n n n n 
    7   40    0  1.081e-04  7.731e-04  0.3211 n n n n n n n n 
    8   50    0  1.304e-04  1.257e-03  0.3211 n n n n n n n n 
    9   20    2  6.103e-05  5.831e-04  0.3211 n y n y n n n n Subspace collapsed.
   10   30    3  5.892e-05  5.627e-04  0.3211 n y y y n n n n 
   11   40    5  4.850e-05  4.784e-04  0.3211 n y y y y y n n 
   12   50    6  6.656e-05  6.639e-04  0.3211 y y y y y y n n 
   13   20    6  3.177e-05  3.169e-04  0.3211 y y y y y y n n Subspace collapsed.
   14   30    6  3.079e-05  3.073e-04  0.3211 y y y y y y n n 
   15   40    6  2.503e-05  2.500e-04  0.3211 y y y y y y n n 
   16   50    6  3.423e-05  3.422e-04  0.3211 y y y y y y n n 
   17   20    6  1.448e-05  1.448e-04  0.3211 y y y y y y n n Subspace collapsed.
   18   30    7  1.612e-05  1.611e-04  0.3211 y y y y y y y n 
   19   40    8  1.350e-05  1.350e-04  0.3211 y y y y y y y y 
   20   50    8  1.954e-05  1.954e-04  0.3211 y y y y y y y y 
   21   20    8  7.516e-06  7.515e-05  0.3211 y y y y y y y y Subspace collapsed.
   22   30    8  8.343e-06  8.342e-05  0.3211 y y y y y y y y 
   23   32    8  8.362e-06  8.360e-05  0.3211 y y y y y y y y 
   24   34    8  7.756e-06  7.755e-05  0.3211 y y y y y y y y 
   25   42    9  6.850e-06  6.849e-05  0.3211 y y y y y y y y 
   26   50    9  9.207e-06  9.206e-05  0.3211 y y y y y y y y 
   27   16    9  4.048e-06  4.048e-05  0.3211 y y y y y y y y Subspace collapsed.
   28   22    9  4.283e-06  4.283e-05  0.3211 y y y y y y y y 
   29   28    9  3.437e-06  3.437e-05  0.3211 y y y y y y y y 
   30   28    9  3.437e-06  3.437e-05  0.3211 y y y y y y y y 
   31   38    9  4.303e-06  4.303e-05  0.3211 y y y y y y y y 
   32   43    9  4.359e-06  4.359e-05  0.3211 y y y y y y y y 
   33   47    9  2.512e-06  2.512e-05  0.3211 y y y y y y y y 
   34   50    9  1.092e-06  1.092e-05  0.3211 y y y y y y y y 
   35   14    9  6.113e-07  6.113e-06  0.3211 y y y y y y y y Subspace collapsed.
   36   18    9  3.738e-07  3.738e-06  0.3211 y y y y y y y y 
   37   22    9  2.281e-07  2.281e-06  0.3211 y y y y y y y y 
   38   26    9  1.350e-07  1.350e-06  0.3211 y y y y y y y y 
   39   30   10  8.949e-08  8.949e-07  0.3211 y y y y y y y y Converged.
--------------------------------------------------------------------------------
  Davidson Summary: 
 ------------------------------------------------------------
  State  0: excitation energy =   0.3211 a.u.   (converged)
  State  1: excitation energy =   0.3328 a.u.   (converged)
  State  2: excitation energy =   0.3370 a.u.   (converged)
  State  3: excitation energy =   0.3614 a.u.   (converged)
  State  4: excitation energy =   0.3753 a.u.   (converged)
  State  5: excitation energy =   0.3872 a.u.   (converged)
  State  6: excitation energy =   0.4247 a.u.   (converged)
  State  7: excitation energy =   0.4471 a.u.   (converged)
  State  8: excitation energy =   0.4563 a.u.   (converged)
  State  9: excitation energy =   0.4648 a.u.   (converged)
 ------------------------------------------------------------

  Singlet states of irrep A ...  CPU 141.28 s  wall 46.67 s
  TDMs ...  CPU 1.45 s  wall 0.60 s
  SDMs ...  CPU 4.23 s  wall 1.26 s
  Starting TPA DIIS iterations ... 
------------------------------------ 
   It     Res. Norm  Remark
------------------------------------
                       Guess.
    1     4.406e+00  
    2     5.842e+00  
    3     1.077e+00  
    4     2.567e-01  
    5     6.576e-02  
    6     2.675e-02  
    7     8.239e-03  
    8     1.440e-03  
    9     5.340e-04  
   10     9.034e-05  
   11     2.829e-05  
   12     4.689e-06  
   13     1.609e-06  
   14     6.695e-07  Converged.
   ... Converged in 14 steps (norm: 6.69482e-07)
------------------------------------
  Starting TPA DIIS iterations ... 
------------------------------------ 
   It     Res. Norm  Remark
------------------------------------
                       Guess.
    1     4.184e+00  
    2     5.540e+00  
    3     1.029e+00  
    4     2.554e-01  
    5     6.535e-02  
    6     2.672e-02  
    7     8.115e-03  
    8     1.454e-03  
    9     5.370e-04  
   10     9.034e-05  
   11     2.847e-05  
   12     4.705e-06  
   13     1.557e-06  
   14     6.805e-07  Converged.
   ... Converged in 14 steps (norm: 6.80533e-07)
------------------------------------
  Starting TPA DIIS iterations ... 
------------------------------------ 
   It     Res. Norm  Remark
------------------------------------
                       Guess.
    1     6.881e-01  
    2     4.838e-01  
    3     1.708e-01  
    4     6.623e-02  
    5     1.820e-02  
    6     6.516e-03  
    7     1.035e-03  
    8     4.474e-04  
    9     1.234e-04  
   10     2.985e-05  
   11     4.998e-06  
   12     1.556e-06  
   13     8.582e-07  Converged.
   ... Converged in 13 steps (norm: 8.58191e-07)
------------------------------------
  Starting TPA DIIS iterations ... 
------------------------------------ 
   It     Res. Norm  Remark
------------------------------------
                       Guess.
    1     4.694e+00  
    2     6.359e+00  
    3     1.158e+00  
    4     2.853e-01  
    5     7.410e-02  
    6     3.040e-02  
    7     9.346e-03  
    8     1.631e-03  
    9     6.093e-04  
   10     1.037e-04  
   11     3.281e-05  
   12     5.533e-06  
   13     1.925e-06  
   14     8.272e-07  Converged.
   ... Converged in 14 steps (norm: 8.27197e-07)
------------------------------------
  Starting TPA DIIS iterations ... 
------------------------------------ 
   It     Res. Norm  Remark
------------------------------------
                       Guess.
    1     4.457e+00  
    2     6.030e+00  
    3     1.107e+00  
    4     2.837e-01  
    5     7.365e-02  
    6     3.038e-02  
    7     9.209e-03  
    8     1.648e-03  
    9     6.129e-04  
   10     1.037e-04  
   11     3.300e-05  
   12     5.561e-06  
   13     1.854e-06  
   14     8.461e-07  Converged.
   ... Converged in 14 steps (norm: 8.46137e-07)
------------------------------------
  Starting TPA DIIS iterations ... 
------------------------------------ 
   It     Res. Norm  Remark
------------------------------------
                       Guess.
    1     7.003e-01  
    2     5.014e-01  
    3     1.807e-01  
    4     7.508e-02  
    5     1.957e-02  
    6     7.140e-03  
    7     1.169e-03  
    8     5.275e-04  
    9     1.493e-04  
   10     3.424e-05  
   11     5.652e-06  
   12     1.833e-06  
   13     1.072e-06  
   14     3.544e-07  Converged.
   ... Converged in 14 steps (norm: 3.54433e-07)
------------------------------------
  Starting TPA DIIS iterations ... 
------------------------------------ 
   It     Res. Norm  Remark
------------------------------------
                       Guess.
    1     4.807e+00  
    2     6.565e+00  
    3     1.190e+00  
    4     2.969e-01  
    5     7.748e-02  
    6     3.189e-02  
    7     9.795e-03  
    8     1.708e-03  
    9     6.400e-04  
   10     1.092e-04  
   11     3.467e-05  
   12     5.885e-06  
   13     2.059e-06  
   14     8.956e-07  Converged.
   ... Converged in 14 steps (norm: 8.95609e-07)
------------------------------------
  Starting TPA DIIS iterations ... 
------------------------------------ 
   It     Res. Norm  Remark
------------------------------------
                       Guess.
    1     4.564e+00  
    2     6.226e+00  
    3     1.137e+00  
    4     2.951e-01  
    5     7.702e-02  
    6     3.188e-02  
    7     9.652e-03  
    8     1.727e-03  
    9     6.438e-04  
   10     1.092e-04  
   11     3.487e-05  
   12     5.920e-06  
   13     1.980e-06  
   14     9.185e-07  Converged.
   ... Converged in 14 steps (norm: 9.18468e-07)
------------------------------------
  Starting TPA DIIS iterations ... 
------------------------------------ 
   It     Res. Norm  Remark
------------------------------------
                       Guess.
    1     7.048e-01  
    2     5.081e-01  
    3     1.846e-01  
    4     7.872e-02  
    5     2.011e-02  
    6     7.393e-03  
    7     1.224e-03  
    8     5.609e-04  
    9     1.601e-04  
   10     3.570e-05  
   11     5.911e-06  
   12     1.949e-06  
   13     1.164e-06  
   14     3.803e-07  Converged.
   ... Converged in 14 steps (norm: 3.8034e-07)
------------------------------------
  Starting TPA DIIS iterations ... 
------------------------------------ 
   It     Res. Norm  Remark
------------------------------------
                       Guess.
    1     5.548e+00  
    2     7.946e+00  
    3     1.398e+00  
    4     3.770e-01  
    5     1.008e-01  
    6     4.227e-02  
    7     1.290e-02  
    8     2.241e-03  
    9     8.540e-04  
   10     1.473e-04  
   11     4.796e-05  
   12     8.474e-06  
   13     3.068e-06  
   14     1.440e-06  
   15     4.547e-07  Converged.
   ... Converged in 15 steps (norm: 4.54667e-07)
------------------------------------
  Starting TPA DIIS iterations ... 
------------------------------------ 
   It     Res. Norm  Remark
------------------------------------
                       Guess.
    1     5.265e+00  
    2     7.534e+00  
    3     1.334e+00  
    4     3.741e-01  
    5     1.003e-01  
    6     4.233e-02  
    7     1.272e-02  
    8     2.269e-03  
    9     8.592e-04  
   10     1.475e-04  
   11     4.819e-05  
   12     8.571e-06  
   13     2.923e-06  
   14     1.503e-06  
   15     4.322e-07  Converged.
   ... Converged in 15 steps (norm: 4.3216e-07)
------------------------------------
  Starting TPA DIIS iterations ... 
------------------------------------ 
   It     Res. Norm  Remark
------------------------------------
                       Guess.
    1     7.318e-01  
    2     5.499e-01  
    3     2.092e-01  
    4     1.045e-01  
    5     2.364e-02  
    6     9.148e-03  
    7     1.621e-03  
    8     7.986e-04  
    9     2.354e-04  
   10     4.133e-05  
   11     7.646e-06  
   12     2.796e-06  
   13     1.889e-06  
   14     5.731e-07  Converged.
   ... Converged in 14 steps (norm: 5.73129e-07)
------------------------------------
  Starting TPA DIIS iterations ... 
------------------------------------ 
   It     Res. Norm  Remark
------------------------------------
                       Guess.
    1     6.058e+00  
    2     8.931e+00  
    3     1.540e+00  
    4     4.365e-01  
    5     1.181e-01  
    6     5.006e-02  
    7     1.521e-02  
    8     2.634e-03  
    9     1.014e-03  
   10     1.761e-04  
   11     5.816e-05  
   12     1.055e-05  
   13     3.904e-06  
   14     1.925e-06  
   15     5.863e-07  Converged.
   ... Converged in 15 steps (norm: 5.86318e-07)
------------------------------------
  Starting TPA DIIS iterations ... 
------------------------------------ 
   It     Res. Norm  Remark
------------------------------------
                       Guess.
    1     5.748e+00  
    2     8.468e+00  
    3     1.470e+00  
    4     4.325e-01  
    5     1.175e-01  
    6     5.017e-02  
    7     1.500e-02  
    8     2.669e-03  
    9     1.021e-03  
   10     1.764e-04  
   11     5.842e-05  
   12     1.072e-05  
   13     3.701e-06  
   14     2.035e-06  
   15     5.870e-07  Converged.
   ... Converged in 15 steps (norm: 5.86959e-07)
------------------------------------
  Starting TPA DIIS iterations ... 
------------------------------------ 
   It     Res. Norm  Remark
------------------------------------
                       Guess.
    1     7.482e-01  
    2     5.768e-01  
    3     2.256e-01  
    4     1.240e-01  
    5     2.615e-02  
    6     1.046e-02  
    7     1.932e-03  
    8     9.702e-04  
    9     2.889e-04  
   10     4.249e-05  
   11     8.920e-06  
   12     3.459e-06  
   13     2.502e-06  
   14     7.291e-07  Converged.
   ... Converged in 14 steps (norm: 7.29141e-07)
------------------------------------
  Starting TPA DIIS iterations ... 
------------------------------------ 
   It     Res. Norm  Remark
------------------------------------
                       Guess.
    1     6.558e+00  
    2     9.920e+00  
    3     1.678e+00  
    4     4.976e-01  
    5     1.359e-01  
    6     5.814e-02  
    7     1.758e-02  
    8     3.037e-03  
    9     1.181e-03  
   10     2.059e-04  
   11     6.889e-05  
   12     1.281e-05  
   13     4.831e-06  
   14     2.495e-06  
   15     7.296e-07  Converged.
   ... Converged in 15 steps (norm: 7.29645e-07)
------------------------------------
  Starting TPA DIIS iterations ... 
------------------------------------ 
   It     Res. Norm  Remark
------------------------------------
                       Guess.
    1     6.221e+00  
    2     9.406e+00  
    3     1.601e+00  
    4     4.926e-01  
    5     1.353e-01  
    6     5.832e-02  
    7     1.734e-02  
    8     3.080e-03  
    9     1.188e-03  
   10     2.063e-04  
   11     6.916e-05  
   12     1.308e-05  
   13     4.567e-06  
   14     2.671e-06  
   15     7.787e-07  Converged.
   ... Converged in 15 steps (norm: 7.78711e-07)
------------------------------------
  Starting TPA DIIS iterations ... 
------------------------------------ 
   It     Res. Norm  Remark
------------------------------------
                       Guess.
    1     7.629e-01  
    2     6.018e-01  
    3     2.412e-01  
    4     1.443e-01  
    5     2.867e-02  
    6     1.181e-02  
    7     2.264e-03  
    8     1.133e-03  
    9     3.402e-04  
   10     4.289e-05  
   11     1.025e-05  
   12     4.158e-06  
   13     3.182e-06  
   14     8.995e-07  Converged.
   ... Converged in 14 steps (norm: 8.99539e-07)
------------------------------------
  Starting TPA DIIS iterations ... 
------------------------------------ 
   It     Res. Norm  Remark
------------------------------------
                       Guess.
    1     8.667e+00  
    2     1.433e+01  
    3     2.252e+00  
    4     7.830e-01  
    5     2.192e-01  
    6     9.668e-02  
    7     2.866e-02  
    8     4.912e-03  
    9     1.971e-03  
   10     3.479e-04  
   11     1.202e-04  
   12     2.492e-05  
   13     9.882e-06  
   14     6.149e-06  
   15     1.499e-06  
   16     1.200e-06  
   17     2.473e-07  Converged.
   ... Converged in 17 steps (norm: 2.4725e-07)
------------------------------------
  Starting TPA DIIS iterations ... 
------------------------------------ 
   It     Res. Norm  Remark
------------------------------------
                       Guess.
    1     8.218e+00  
    2     1.359e+01  
    3     2.147e+00  
    4     7.721e-01  
    5     2.183e-01  
    6     9.725e-02  
    7     2.830e-02  
    8     4.992e-03  
    9     1.983e-03  
   10     3.492e-04  
   11     1.207e-04  
   12     2.608e-05  
   13     9.443e-06  
   14     6.895e-06  
   15     2.217e-06  
   16     1.630e-06  
   17     3.845e-07  Converged.
   ... Converged in 17 steps (norm: 3.84513e-07)
------------------------------------
  Starting TPA DIIS iterations ... 
------------------------------------ 
   It     Res. Norm  Remark
------------------------------------
                       Guess.
    1     8.134e-01  
    2     6.971e-01  
    3     3.036e-01  
    4     2.374e-01  
    5     4.014e-02  
    6     1.807e-02  
    7     3.928e-03  
    8     1.652e-03  
    9     5.381e-04  
   10     5.135e-05  
   11     1.686e-05  
   12     7.472e-06  
   13     6.776e-06  
   14     1.806e-06  
   15     6.089e-07  Converged.
   ... Converged in 15 steps (norm: 6.08933e-07)
------------------------------------
  Starting TPA DIIS iterations ... 
------------------------------------ 
   It     Res. Norm  Remark
------------------------------------
                       Guess.
    1     1.049e+01  
    2     1.843e+01  
    3     2.735e+00  
    4     1.057e+00  
    5     3.000e-01  
    6     1.350e-01  
    7     3.941e-02  
    8     6.720e-03  
    9     2.753e-03  
   10     4.882e-04  
   11     1.696e-04  
   12     3.909e-05  
   13     1.572e-05  
   14     1.129e-05  
   15     2.517e-06  
   16     2.346e-06  
   17     4.515e-07  Converged.
   ... Converged in 17 steps (norm: 4.51494e-07)
------------------------------------
  Starting TPA DIIS iterations ... 
------------------------------------ 
   It     Res. Norm  Remark
------------------------------------
                       Guess.
    1     9.945e+00  
    2     1.747e+01  
    3     2.606e+00  
    4     1.040e+00  
    5     2.989e-01  
    6     1.360e-01  
    7     3.893e-02  
    8     6.838e-03  
    9     2.769e-03  
   10     4.908e-04  
   11     1.708e-04  
   12     4.179e-05  
   13     1.573e-05  
   14     1.296e-05  
   15     4.563e-06  
   16     3.077e-06  
   17     7.720e-07  Converged.
   ... Converged in 17 steps (norm: 7.71959e-07)
------------------------------------
  Starting TPA DIIS iterations ... 
------------------------------------ 
   It     Res. Norm  Remark
------------------------------------
                       Guess.
    1     8.474e-01  
    2     7.697e-01  
    3     3.535e-01  
    4     3.185e-01  
    5     5.087e-02  
    6     2.378e-02  
    7     5.606e-03  
    8     1.866e-03  
    9     6.898e-04  
   10     6.926e-05  
   11     2.370e-05  
   12     1.065e-05  
   13     1.068e-05  
   14     2.838e-06  
   15     1.031e-06  
   16     8.292e-07  Converged.
   ... Converged in 16 steps (norm: 8.29162e-07)
------------------------------------
  Starting TPA DIIS iterations ... 
------------------------------------ 
   It     Res. Norm  Remark
------------------------------------
                       Guess.
    1     1.143e+01  
    2     2.063e+01  
    3     2.979e+00  
    4     1.206e+00  
    5     3.442e-01  
    6     1.562e-01  
    7     4.530e-02  
    8     7.708e-03  
    9     3.185e-03  
   10     5.658e-04  
   11     1.962e-04  
   12     4.787e-05  
   13     1.934e-05  
   14     1.478e-05  
   15     3.262e-06  
   16     3.162e-06  
   17     5.827e-07  Converged.
   ... Converged in 17 steps (norm: 5.82713e-07)
------------------------------------
  Starting TPA DIIS iterations ... 
------------------------------------ 
   It     Res. Norm  Remark
------------------------------------
                       Guess.
    1     1.083e+01  
    2     1.956e+01  
    3     2.838e+00  
    4     1.185e+00  
    5     3.431e-01  
    6     1.575e-01  
    7     4.475e-02  
    8     7.847e-03  
    9     3.204e-03  
   10     5.692e-04  
   11     1.982e-04  
   12     5.167e-05  
   13     2.003e-05  
   14     1.703e-05  
   15     6.221e-06  
   16     4.014e-06  
   17     1.013e-06  
   18     4.082e-07  Converged.
   ... Converged in 18 steps (norm: 4.08202e-07)
------------------------------------
  Starting TPA DIIS iterations ... 
------------------------------------ 
   It     Res. Norm  Remark
------------------------------------
                       Guess.
    1     8.626e-01  
    2     8.047e-01  
    3     3.780e-01  
    4     3.577e-01  
    5     5.661e-02  
    6     2.668e-02  
    7     6.521e-03  
    8     1.924e-03  
    9     7.637e-04  
   10     8.013e-05  
   11     2.759e-05  
   12     1.241e-05  
   13     1.300e-05  
   14     3.468e-06  
   15     1.353e-06  
   16     1.089e-06  
   17     5.615e-07  Converged.
   ... Converged in 17 steps (norm: 5.61469e-07)
------------------------------------
  Starting TPA DIIS iterations ... 
------------------------------------ 
   It     Res. Norm  Remark
------------------------------------
                       Guess.
    1     1.240e+01  
    2     2.298e+01  
    3     3.230e+00  
    4     1.365e+00  
    5     3.920e-01  
    6     1.793e-01  
    7     5.164e-02  
    8     8.771e-03  
    9     3.655e-03  
   10     6.499e-04  
   11     2.248e-04  
   12     5.813e-05  
   13     2.365e-05  
   14     1.903e-05  
   15     4.250e-06  
   16     4.205e-06  
   17     7.325e-07  Converged.
   ... Converged in 17 steps (norm: 7.32548e-07)
------------------------------------
  Starting TPA DIIS iterations ... 
------------------------------------ 
   It     Res. Norm  Remark
------------------------------------
                       Guess.
    1     1.176e+01  
    2     2.178e+01  
    3     3.076e+00  
    4     1.339e+00  
    5     3.907e-01  
    6     1.809e-01  
    7     5.103e-02  
    8     8.933e-03  
    9     3.677e-03  
   10     6.543e-04  
   11     2.278e-04  
   12     6.330e-05  
   13     2.545e-05  
   14     2.194e-05  
   15     8.254e-06  
   16     5.135e-06  
   17     1.279e-06  
   18     4.902e-07  Converged.
   ... Converged in 18 steps (norm: 4.90229e-07)
------------------------------------
  Starting TPA DIIS iterations ... 
------------------------------------ 
   It     Res. Norm  Remark
------------------------------------
                       Guess.
    1     8.770e-01  
    2     8.395e-01  
    3     4.028e-01  
    4     3.957e-01  
    5     6.268e-02  
    6     2.960e-02  
    7     7.494e-03  
    8     1.967e-03  
    9     8.382e-04  
   10     9.185e-05  
   11     3.187e-05  
   12     1.438e-05  
   13     1.570e-05  
   14     4.202e-06  
   15     1.782e-06  
   16     1.398e-06  
   17     7.551e-07  Converged.
   ... Converged in 17 steps (norm: 7.55117e-07)
------------------------------------
  Two-photon absorbption ...  CPU 145.79 s  wall 39.62 s
  Transition density matrix of state singlet_A_1 printed to ASCII file 'State_singlet_A_1_Transition.txt'
  Transition density matrix of state singlet_A_2 printed to ASCII file 'State_singlet_A_2_Transition.txt'
  Transition density matrix of state singlet_A_3 printed to ASCII file 'State_singlet_A_3_Transition.txt'
  Transition density matrix of state singlet_A_4 printed to ASCII file 'State_singlet_A_4_Transition.txt'
  Transition density matrix of state singlet_A_5 printed to ASCII file 'State_singlet_A_5_Transition.txt'
  Transition density matrix of state singlet_A_6 printed to ASCII file 'State_singlet_A_6_Transition.txt'
  Transition density matrix of state singlet_A_7 printed to ASCII file 'State_singlet_A_7_Transition.txt'
  Transition density matrix of state singlet_A_8 printed to ASCII file 'State_singlet_A_8_Transition.txt'
  Transition density matrix of state singlet_A_9 printed to ASCII file 'State_singlet_A_9_Transition.txt'
  Transition density matrix of state singlet_A_10 printed to ASCII file 'State_singlet_A_10_Transition.txt'
  Transition properties ...  CPU 0.19 s  wall 0.48 s
  Difference density matrix of state singlet_A_1 printed to ASCII file 'State_singlet_A_1_Difference.txt'
  Total density matrix of state singlet_A_1 printed to ASCII file 'State_singlet_A_1_Total.txt'
  Difference density matrix of state singlet_A_2 printed to ASCII file 'State_singlet_A_2_Difference.txt'
  Total density matrix of state singlet_A_2 printed to ASCII file 'State_singlet_A_2_Total.txt'
  Difference density matrix of state singlet_A_3 printed to ASCII file 'State_singlet_A_3_Difference.txt'
  Total density matrix of state singlet_A_3 printed to ASCII file 'State_singlet_A_3_Total.txt'
  Difference density matrix of state singlet_A_4 printed to ASCII file 'State_singlet_A_4_Difference.txt'
  Total density matrix of state singlet_A_4 printed to ASCII file 'State_singlet_A_4_Total.txt'
  Difference density matrix of state singlet_A_5 printed to ASCII file 'State_singlet_A_5_Difference.txt'
  Total density matrix of state singlet_A_5 printed to ASCII file 'State_singlet_A_5_Total.txt'
  Difference density matrix of state singlet_A_6 printed to ASCII file 'State_singlet_A_6_Difference.txt'
  Total density matrix of state singlet_A_6 printed to ASCII file 'State_singlet_A_6_Total.txt'
  Difference density matrix of state singlet_A_7 printed to ASCII file 'State_singlet_A_7_Difference.txt'
  Total density matrix of state singlet_A_7 printed to ASCII file 'State_singlet_A_7_Total.txt'
  Difference density matrix of state singlet_A_8 printed to ASCII file 'State_singlet_A_8_Difference.txt'
  Total density matrix of state singlet_A_8 printed to ASCII file 'State_singlet_A_8_Total.txt'
  Difference density matrix of state singlet_A_9 printed to ASCII file 'State_singlet_A_9_Difference.txt'
  Total density matrix of state singlet_A_9 printed to ASCII file 'State_singlet_A_9_Total.txt'
  Difference density matrix of state singlet_A_10 printed to ASCII file 'State_singlet_A_10_Difference.txt'
  Total density matrix of state singlet_A_10 printed to ASCII file 'State_singlet_A_10_Total.txt'
  Properties ...  CPU 1.18 s  wall 0.97 s
  ISR TDMS ...  CPU 33.68 s  wall 9.35 s
  ISR transition properties ...  CPU 0.52 s  wall 0.16 s
  Sum-over-states TPA ...  CPU 0.00 s  wall 0.00 s

--------------------------------------------------------------------------------
                   State-averaged natural transition orbitals
--------------------------------------------------------------------------------
--------------------------------------------------------------------------------
  SA-NTO decomposition ...  CPU 0.01 s  wall 0.02 s

--------------------------------------------------------------------------------
                             Excited State Summary
--------------------------------------------------------------------------------
--------------------------------------------------------------------------------

  Excited state 1 (singlet, A)                                     [converged]
  ----------------------------------------------------------------------------
  Term symbol:  2 (1) A                                     R^2 =  7.98374e-14

  Total energy:                                            -77.9985463843 a.u.
  Excitation energy:                                               8.736992 eV

  Osc. strength:                                                      0.445503
  Trans. dip. moment [a.u.]:           [   1.045510,   -0.994032,   -0.009527]
  <i|r^2|0> [a.u.]:                    [   6.164956,   -0.250180,    0.002611]
  Two-photon absorption cross-section (SoS) [a.u.]:                   0.000539
  Two-photon absorption matrix (SoS) [a.u.]:
                                       |    0.005593   -0.002116    0.000713 |
                                       |   -0.002116    0.001009   -0.000789 |
                                       |    0.000713   -0.000789    0.004946 |
  Two-photon absorption cross-section [a.u.]:                         0.001411
  Two-photon absorption matrix [a.u.]:
                                       |    0.001200   -0.002088   -0.006715 |
                                       |   -0.002088   -0.005291   -0.010445 |
                                       |   -0.006715   -0.010445    0.002048 |

  Dip. moment [a.u.]:                  [  -0.000556,    0.000525,   -0.001124]
  Total dipole [Debye]:                                               0.003456
  <r^2> [a.u.]:                        [ 176.120984,   35.648186,   11.865556]
  Total <r^2> [a.u.]:                                               223.634726

  V1^2 = 0.9715, V2^2 = 0.0285

  Important amplitudes:
      occ i     occ j     vir a      vir b          v   
    -----------------------------------------------------
     8 (A) A              9 (A) A                 0.6810
     6 (A) A             14 (A) A                -0.0623
     4 (A) A             10 (A) A                -0.0606
     7 (A) A             16 (A) A                 0.0570
     5 (A) A             13 (A) A                -0.0513
     6 (A) A             23 (A) A                -0.0486
     8 (A) A             20 (A) A                 0.0350
     6 (A) A             19 (A) A                -0.0309
     3 (A) A             12 (A) A                 0.0281
     5 (A) A             22 (A) A                 0.0215
     7 (A) A             11 (A) A                 0.0209
     4 (A) A             24 (A) A                -0.0187
     3 (A) A             26 (A) A                -0.0185
     8 (A) A   8 (A) B   17 (A) A   20 (A) B     -0.0184
     8 (A) A   8 (A) B    9 (A) A   28 (A) B     -0.0168
     6 (A) A             26 (A) A                -0.0163
     7 (A) A             21 (A) A                 0.0148
     3 (A) A             14 (A) A                -0.0139
     6 (A) A             12 (A) A                -0.0132
     3 (A) A   4 (A) B    9 (A) A    9 (A) B      0.0129
     3 (A) A             19 (A) A                -0.0119
     8 (A) A   8 (A) B   18 (A) A   19 (A) B      0.0113
     7 (A) A              9 (A) A                 0.0099
     7 (A) A             32 (A) A                 0.0096
     7 (A) A             36 (A) A                 0.0086
     3 (A) A             23 (A) A                -0.0080
     8 (A) A   8 (A) B   25 (A) A   29 (A) B      0.0076
     6 (A) A             35 (A) A                -0.0072
     6 (A) A             40 (A) A                -0.0068
     3 (A) A   6 (A) B    9 (A) A   28 (A) B     -0.0065
     6 (A) A   8 (A) A   19 (A) A   28 (A) A     -0.0061
     5 (A) A   7 (A) B    9 (A) A    9 (A) B     -0.0060
     5 (A) A   8 (A) B   11 (A) A   20 (A) B     -0.0059
     7 (A) A   8 (A) B   13 (A) A   20 (A) B      0.0059
     5 (A) A   8 (A) B   16 (A) A    9 (A) B     -0.0059
     5 (A) A   8 (A) B   11 (A) A    9 (A) B      0.0059
     3 (A) A   5 (A) B    9 (A) A   25 (A) B     -0.0058
     3 (A) A             40 (A) A                -0.0057
     7 (A) A   8 (A) B   22 (A) A   20 (A) B     -0.0057
     6 (A) A   8 (A) A    9 (A) A   18 (A) A     -0.0057
    -----------------------------------------------------

  Density matrix analysis:
  ------------------------
  NOs
    Occupation of frontier NOs:
       0.9495   1.0217
    Number of electrons: 16.000000
    Number of unpaired electrons: n_u =  2.31338, n_u,nl =  2.03263
    NO participation ratio (PR_NO):  2.863825
  
  
  Mulliken Population Analysis
  Atom      Charge (e)              h+              e-           Del q
  --------------------------------------------------------------------
   1 H        0.058718        0.020307       -0.012537        0.007769
   2 C       -0.116064        0.490830       -0.506103       -0.015273
   3 H        0.058150        0.020203       -0.012596        0.007608
   4 C       -0.116891        0.490662       -0.506273       -0.015611
   5 H        0.057714        0.020227       -0.012555        0.007672
   6 H        0.058372        0.020352       -0.012517        0.007835
  --------------------------------------------------------------------
  Sum:       -0.000000        1.062581       -1.062581       -0.000000
  
  Multipole moment analysis of the density matrix
    Molecular charge:                      -0.000000
    Number of electrons:                   16.000000
      Center of electronic charge [Ang]: [ -1.560558,  -0.065620,   0.001703]
    Total nuclear charge:                  16.000000
      Center of nuclear charge [Ang]:    [ -1.560576,  -0.065602,   0.001666]
    Dipole moment [D]:                     0.003456
      Cartesian components [D]:          [ -0.001414,   0.001334,  -0.002858]
    RMS size of the density [Ang]:         1.214231
      Cartesian components [Ang]:        [  0.804419,   0.787147,   0.455703]
  
  Exciton analysis of the difference density matrix
    <r_h> [Ang]:                  [ -1.560254,  -0.065824,   0.002159]
    <r_e> [Ang]:                  [ -1.560300,  -0.065730,   0.002273]
    |<r_e - r_h>| [Ang]:            0.000155
    Hole size [Ang]:                1.285485
      Cartesian components [Ang]: [  0.728535,   0.712681,   0.783451]
    Electron size [Ang]:            1.463169
      Cartesian components [Ang]: [  0.853992,   0.830440,   0.849665]

  Transition density matrix analysis:
  -----------------------------------
  
  CT numbers (Mulliken)
    omega =     0.9535
    <Phe> =    -0.1607
  
  Exciton analysis of the transition density matrix
    Trans. dipole moment [D]:             1.833444
      Cartesian components [D]:         [  1.328711,  -1.263288,  -0.012108]
    <r_h> [Ang]:                        [ -1.560095,  -0.065930,   0.002064]
    <r_e> [Ang]:                        [ -1.560323,  -0.065725,   0.002341]
    |<r_e - r_h>| [Ang]:                  0.000414
    Hole size [Ang]:                      1.214236
      Cartesian components [Ang]:       [  0.649694,   0.636521,   0.804431]
    Electron size [Ang]:                  1.486009
      Cartesian components [Ang]:       [  0.864431,   0.839324,   0.869779]
    RMS electron-hole separation [Ang]:   1.936742
      Cartesian components [Ang]:       [  1.106792,   1.075131,   1.170501]
    Covariance(r_h, r_e) [Ang^2]:        -0.034189
    Correlation coefficient:             -0.018948
    Center-of-mass size [Ang]:            0.950554
      Cartesian components [Ang]:       [  0.527659,   0.515592,   0.599412]

  Decomposition into state-averaged NTOs
    H- 0 -> L+ 0: -0.6698 ( 89.7%)
    H- 2 -> L+ 5: -0.0836 (  1.4%)
                   omega =  95.4%
  ----------------------------------------------------------------------------


  Excited state 2 (singlet, A)                                     [converged]
  ----------------------------------------------------------------------------
  Term symbol:  3 (1) A                                     R^2 =  1.67897e-13

  Total energy:                                            -77.9868666566 a.u.
  Excitation energy:                                               9.054813 eV

  Osc. strength:                                                      0.000124
  Trans. dip. moment [a.u.]:           [  -0.016709,    0.016459,    0.003253]
  <i|r^2|0> [a.u.]:                    [  -0.159591,   -0.082602,    0.147735]
  Two-photon absorption cross-section (SoS) [a.u.]:                   4.891940
  Two-photon absorption matrix (SoS) [a.u.]:
                                       |   -0.047191   -0.057408    0.541364 |
                                       |   -0.057408   -0.068245    0.552276 |
                                       |    0.541364    0.552276    0.115508 |
  Two-photon absorption cross-section [a.u.]:                         0.076954
  Two-photon absorption matrix [a.u.]:
                                       |    0.015178    0.007573   -0.058486 |
                                       |    0.007573   -0.000679   -0.076945 |
                                       |   -0.058486   -0.076945   -0.014509 |

  Dip. moment [a.u.]:                  [  -0.003304,    0.010056,   -0.001647]
  Total dipole [Debye]:                                               0.027229
  <r^2> [a.u.]:                        [ 174.523142,   33.972322,   13.170799]
  Total <r^2> [a.u.]:                                               221.666262

  V1^2 = 0.9542, V2^2 = 0.0458

  Important amplitudes:
      occ i     occ j     vir a      vir b          v   
    -----------------------------------------------------
     7 (A) A              9 (A) A                 0.6692
     8 (A) A             11 (A) A                 0.1481
     7 (A) A             20 (A) A                 0.0759
     5 (A) A   8 (A) B    9 (A) A    9 (A) B     -0.0316
     8 (A) A             16 (A) A                -0.0273
     8 (A) A             21 (A) A                 0.0176
     5 (A) A             28 (A) A                -0.0150
     4 (A) A   7 (A) B    9 (A) A   19 (A) B     -0.0135
     5 (A) A   7 (A) B    9 (A) A   16 (A) B      0.0134
     7 (A) A   8 (A) B   20 (A) A   17 (A) B     -0.0105
     7 (A) A   8 (A) A    9 (A) A   28 (A) A      0.0098
     8 (A) A              9 (A) A                -0.0097
     5 (A) A   8 (A) B    9 (A) A   20 (A) B     -0.0096
     4 (A) A   6 (A) B    9 (A) A   16 (A) B      0.0091
     5 (A) A   6 (A) A    9 (A) A   23 (A) A     -0.0091
     5 (A) A   6 (A) A    9 (A) A   14 (A) A     -0.0089
     5 (A) A   6 (A) B    9 (A) A   19 (A) B     -0.0087
     8 (A) A   7 (A) B    9 (A) A   28 (A) B     -0.0085
     4 (A) A   5 (A) A    9 (A) A   10 (A) A      0.0085
     6 (A) A   7 (A) B    9 (A) A   18 (A) B     -0.0083
     5 (A) A   6 (A) B    9 (A) A   23 (A) B     -0.0080
     3 (A) A   7 (A) B    9 (A) A   18 (A) B      0.0080
     5 (A) A   7 (A) A    9 (A) A   16 (A) A      0.0079
     4 (A) A   8 (A) B    9 (A) A   25 (A) B      0.0077
     7 (A) A   8 (A) B   17 (A) A   20 (A) B     -0.0074
     4 (A) A   7 (A) B   19 (A) A    9 (A) B     -0.0074
     5 (A) A   5 (A) B    9 (A) A   13 (A) B     -0.0072
     7 (A) A   8 (A) B   19 (A) A   18 (A) B      0.0072
     5 (A) A   8 (A) A    9 (A) A   20 (A) A     -0.0069
     4 (A) A   5 (A) B    9 (A) A   18 (A) B     -0.0068
     7 (A) A   7 (A) B   20 (A) A   22 (A) B     -0.0065
     7 (A) A   8 (A) B   17 (A) A    9 (A) B     -0.0065
     5 (A) A   6 (A) B    9 (A) A   14 (A) B     -0.0063
     4 (A) A   7 (A) A    9 (A) A   19 (A) A     -0.0061
     4 (A) A   5 (A) B   10 (A) A    9 (A) B     -0.0061
     8 (A) A             10 (A) A                -0.0061
     5 (A) A             38 (A) A                -0.0060
     5 (A) A   7 (A) B   11 (A) A   20 (A) B     -0.0060
     4 (A) A   7 (A) B    9 (A) A   14 (A) B      0.0060
     4 (A) A   8 (A) A    9 (A) A   25 (A) A      0.0057
    -----------------------------------------------------

  Density matrix analysis:
  ------------------------
  NOs
    Occupation of frontier NOs:
       0.9580   1.0537
    Number of electrons: 16.000000
    Number of unpaired electrons: n_u =  2.35529, n_u,nl =  2.06274
    NO participation ratio (PR_NO):  3.027205
  
  
  Mulliken Population Analysis
  Atom      Charge (e)              h+              e-           Del q
  --------------------------------------------------------------------
   1 H        0.149140        0.121569       -0.023378        0.098191
   2 C       -0.301907        0.270935       -0.472052       -0.201117
   3 H        0.151953        0.127055       -0.025644        0.101411
   4 C       -0.302331        0.273131       -0.474182       -0.201051
   5 H        0.154394        0.127751       -0.023401        0.104351
   6 H        0.148752        0.123532       -0.025317        0.098215
  --------------------------------------------------------------------
  Sum:       -0.000000        1.043974       -1.043974       -0.000000
  
  Multipole moment analysis of the density matrix
    Molecular charge:                      -0.000000
    Number of electrons:                   16.000000
      Center of electronic charge [Ang]: [ -1.560467,  -0.065935,   0.001720]
    Total nuclear charge:                  16.000000
      Center of nuclear charge [Ang]:    [ -1.560576,  -0.065602,   0.001666]
    Dipole moment [D]:                     0.027229
      Cartesian components [D]:          [ -0.008398,   0.025561,  -0.004185]
    RMS size of the density [Ang]:         1.200061
      Cartesian components [Ang]:        [  0.787025,   0.768263,   0.480114]
  
  Exciton analysis of the difference density matrix
    <r_h> [Ang]:                  [ -1.565110,  -0.063240,   0.001468]
    <r_e> [Ang]:                  [ -1.563765,  -0.067975,   0.001849]
    |<r_e - r_h>| [Ang]:            0.004937
    Hole size [Ang]:                1.486227
      Cartesian components [Ang]: [  0.999494,   1.001713,   0.454371]
    Electron size [Ang]:            1.477052
      Cartesian components [Ang]: [  0.881379,   0.859202,   0.816471]

  Transition density matrix analysis:
  -----------------------------------
  
  CT numbers (Mulliken)
    omega =     0.9218
    <Phe> =    -0.0122
  
  Exciton analysis of the transition density matrix
    Trans. dipole moment [D]:             0.030092
      Cartesian components [D]:         [ -0.021235,   0.020917,   0.004134]
    <r_h> [Ang]:                        [ -1.565752,  -0.062654,   0.001356]
    <r_e> [Ang]:                        [ -1.563394,  -0.068592,   0.001969]
    |<r_e - r_h>| [Ang]:                  0.006418
    Hole size [Ang]:                      1.514852
      Cartesian components [Ang]:       [  1.022125,   1.026124,   0.443968]
    Electron size [Ang]:                  1.474134
      Cartesian components [Ang]:       [  0.872006,   0.848516,   0.832285]
    RMS electron-hole separation [Ang]:   2.093921
      Cartesian components [Ang]:       [  1.327690,   1.316569,   0.942546]
    Covariance(r_h, r_e) [Ang^2]:         0.041691
    Correlation coefficient:              0.018670
    Center-of-mass size [Ang]:            1.066681
      Cartesian components [Ang]:       [  0.679616,   0.673146,   0.472022]

  Decomposition into state-averaged NTOs
    H- 1 -> L+ 0:  0.6615 ( 87.5%)
    H- 0 -> L+ 2:  0.1481 (  4.4%)
                   omega =  92.2%
  ----------------------------------------------------------------------------


  Excited state 3 (singlet, A)                                     [converged]
  ----------------------------------------------------------------------------
  Term symbol:  4 (1) A                                     R^2 =  1.77963e-13

  Total energy:                                            -77.9825907855 a.u.
  Excitation energy:                                               9.171166 eV

  Osc. strength:                                                      0.025205
  Trans. dip. moment [a.u.]:           [  -0.017049,   -0.018074,    0.334008]
  <i|r^2|0> [a.u.]:                    [  -0.091981,   -0.013306,   -0.002907]
  Two-photon absorption cross-section (SoS) [a.u.]:                   0.029660
  Two-photon absorption matrix (SoS) [a.u.]:
                                       |    0.058164    0.001806    0.014697 |
                                       |    0.001806   -0.058415    0.003416 |
                                       |    0.014697    0.003416    0.010342 |
  Two-photon absorption cross-section [a.u.]:                         0.017229
  Two-photon absorption matrix [a.u.]:
                                       |    0.044674   -0.000332    0.017693 |
                                       |   -0.000332   -0.039230    0.002552 |
                                       |    0.017693    0.002552    0.007251 |

  Dip. moment [a.u.]:                  [   0.002659,    0.014796,    0.002212]
  Total dipole [Debye]:                                               0.038623
  <r^2> [a.u.]:                        [ 180.880323,   40.609053,   11.024112]
  Total <r^2> [a.u.]:                                               232.513487

  V1^2 = 0.9587, V2^2 = 0.0413

  Important amplitudes:
      occ i     occ j     vir a      vir b          v   
    -----------------------------------------------------
     8 (A) A             10 (A) A                -0.6891
     8 (A) A             24 (A) A                -0.0507
     8 (A) A             18 (A) A                 0.0312
     4 (A) A              9 (A) A                 0.0238
     8 (A) A   8 (A) B    9 (A) A   12 (A) B     -0.0219
     8 (A) A   8 (A) B   10 (A) A   17 (A) B     -0.0173
     8 (A) A             15 (A) A                -0.0169
     5 (A) A   8 (A) B   11 (A) A   10 (A) B     -0.0165
     7 (A) A   8 (A) B   13 (A) A   10 (A) B      0.0141
     4 (A) A   8 (A) B   12 (A) A   10 (A) B      0.0111
     6 (A) A   8 (A) A   10 (A) A   15 (A) A      0.0110
     7 (A) A   8 (A) B   22 (A) A   10 (A) B     -0.0108
     6 (A) A   8 (A) B   15 (A) A   10 (A) B     -0.0108
     4 (A) A   8 (A) A   10 (A) A   12 (A) A     -0.0106
     7 (A) A   8 (A) A   10 (A) A   22 (A) A      0.0099
     7 (A) A   8 (A) A   10 (A) A   13 (A) A     -0.0097
     5 (A) A   8 (A) B   21 (A) A   10 (A) B     -0.0094
     5 (A) A   8 (A) A   10 (A) A   11 (A) A      0.0094
     6 (A) A   8 (A) A   10 (A) A   18 (A) A      0.0088
     6 (A) A   8 (A) B   10 (A) A   10 (A) B      0.0087
     7 (A) A   8 (A) A   12 (A) A   16 (A) A     -0.0082
     5 (A) A   8 (A) A   10 (A) A   21 (A) A      0.0080
     3 (A) A   4 (A) B   10 (A) A    9 (A) B     -0.0079
     4 (A) A   8 (A) B   19 (A) A   10 (A) B     -0.0075
     8 (A) A   8 (A) B    9 (A) A   23 (A) B     -0.0075
     8 (A) A   8 (A) B   10 (A) A   28 (A) B      0.0073
     3 (A) A   8 (A) B   10 (A) A   10 (A) B     -0.0072
     5 (A) A   8 (A) B   10 (A) A   11 (A) B     -0.0071
     3 (A) A   8 (A) A   10 (A) A   24 (A) A      0.0071
     7 (A) A   8 (A) B   16 (A) A   12 (A) B      0.0070
     3 (A) A   8 (A) B   10 (A) A   18 (A) B      0.0069
     8 (A) A   8 (A) B    9 (A) A   19 (A) B      0.0068
     6 (A) A   8 (A) B   18 (A) A   10 (A) B     -0.0067
     7 (A) A              9 (A) A                -0.0063
     3 (A) A   6 (A) B   10 (A) A   28 (A) B      0.0062
     7 (A) A   8 (A) B   12 (A) A   11 (A) B     -0.0058
     6 (A) A             28 (A) A                -0.0057
     3 (A) A   5 (A) B   10 (A) A   25 (A) B      0.0056
     5 (A) A   8 (A) A   10 (A) A   16 (A) A     -0.0056
     3 (A) A   8 (A) A   10 (A) A   18 (A) A      0.0056
    -----------------------------------------------------

  Density matrix analysis:
  ------------------------
  NOs
    Occupation of frontier NOs:
       0.9815   0.9850
    Number of electrons: 16.000000
    Number of unpaired electrons: n_u =  2.28534, n_u,nl =  2.02442
    NO participation ratio (PR_NO):  2.692100
  
  
  Mulliken Population Analysis
  Atom      Charge (e)              h+              e-           Del q
  --------------------------------------------------------------------
   1 H       -0.162475        0.053915       -0.267339       -0.213423
   2 C        0.327801        0.538902       -0.110310        0.428592
   3 H       -0.166533        0.053717       -0.270792       -0.217075
   4 C        0.326943        0.537475       -0.109252        0.428224
   5 H       -0.162158        0.053993       -0.266193       -0.212200
   6 H       -0.163580        0.053864       -0.267981       -0.214117
  --------------------------------------------------------------------
  Sum:       -0.000000        1.291866       -1.291866        0.000000
  
  Multipole moment analysis of the density matrix
    Molecular charge:                      -0.000000
    Number of electrons:                   16.000000
      Center of electronic charge [Ang]: [ -1.560664,  -0.066092,   0.001593]
    Total nuclear charge:                  16.000000
      Center of nuclear charge [Ang]:    [ -1.560576,  -0.065602,   0.001666]
    Dipole moment [D]:                     0.038623
      Cartesian components [D]:          [  0.006758,   0.037609,   0.005623]
    RMS size of the density [Ang]:         1.276463
      Cartesian components [Ang]:        [  0.854433,   0.840454,   0.439248]
  
  Exciton analysis of the difference density matrix
    <r_h> [Ang]:                  [ -1.560054,  -0.066131,   0.001941]
    <r_e> [Ang]:                  [ -1.561409,  -0.071899,   0.000668]
    |<r_e - r_h>| [Ang]:            0.006060
    Hole size [Ang]:                1.410256
      Cartesian components [Ang]: [  0.834017,   0.819774,   0.788166]
    Electron size [Ang]:            2.076103
      Cartesian components [Ang]: [  1.373471,   1.376960,   0.726471]

  Transition density matrix analysis:
  -----------------------------------
  
  CT numbers (Mulliken)
    omega =     0.9259
    <Phe> =    -0.0109
  
  Exciton analysis of the transition density matrix
    Trans. dipole moment [D]:             0.425654
      Cartesian components [D]:         [ -0.021666,  -0.022969,   0.424482]
    <r_h> [Ang]:                        [ -1.559702,  -0.065666,   0.002231]
    <r_e> [Ang]:                        [ -1.561589,  -0.074049,   0.000303]
    |<r_e - r_h>| [Ang]:                  0.008806
    Hole size [Ang]:                      1.212958
      Cartesian components [Ang]:       [  0.636499,   0.623459,   0.823065]
    Electron size [Ang]:                  2.296483
      Cartesian components [Ang]:       [  1.518121,   1.524487,   0.803168]
    RMS electron-hole separation [Ang]:   2.587242
      Cartesian components [Ang]:       [  1.638662,   1.640084,   1.148360]
    Covariance(r_h, r_e) [Ang^2]:         0.025678
    Correlation coefficient:              0.009218
    Center-of-mass size [Ang]:            1.303501
      Cartesian components [Ang]:       [  0.826807,   0.827001,   0.575825]

  Decomposition into state-averaged NTOs
    H- 0 -> L+ 1:  0.6798 ( 92.4%)
                   omega =  92.6%
  ----------------------------------------------------------------------------


  Excited state 4 (singlet, A)                                     [converged]
  ----------------------------------------------------------------------------
  Term symbol:  5 (1) A                                     R^2 =  1.69268e-13

  Total energy:                                            -77.9582360023 a.u.
  Excitation energy:                                               9.833893 eV

  Osc. strength:                                                      0.000020
  Trans. dip. moment [a.u.]:           [   0.006480,   -0.006090,   -0.001865]
  <i|r^2|0> [a.u.]:                    [   0.021196,   -0.020131,    0.035680]
  Two-photon absorption cross-section (SoS) [a.u.]:                 149.689885
  Two-photon absorption matrix (SoS) [a.u.]:
                                       |   -0.272627   -0.318677    3.018257 |
                                       |   -0.318677   -0.365372    3.031842 |
                                       |    3.018257    3.031842    0.638477 |
  Two-photon absorption cross-section [a.u.]:                        91.943306
  Two-photon absorption matrix [a.u.]:
                                       |   -0.206253   -0.249259    2.361420 |
                                       |   -0.249259   -0.293694    2.380094 |
                                       |    2.361420    2.380094    0.500461 |

  Dip. moment [a.u.]:                  [  -0.016955,   -0.010512,   -0.000124]
  Total dipole [Debye]:                                               0.050706
  <r^2> [a.u.]:                        [ 181.218745,   40.514911,   10.760997]
  Total <r^2> [a.u.]:                                               232.494653

  V1^2 = 0.9635, V2^2 = 0.0365

  Important amplitudes:
      occ i     occ j     vir a      vir b          v   
    -----------------------------------------------------
     8 (A) A             11 (A) A                 0.6697
     7 (A) A              9 (A) A                -0.1501
     8 (A) A             21 (A) A                 0.0781
     8 (A) A             16 (A) A                -0.0645
     8 (A) A   8 (A) B    9 (A) A   13 (A) B     -0.0167
     5 (A) A   8 (A) B   11 (A) A   11 (A) B      0.0155
     8 (A) A   8 (A) B   11 (A) A   17 (A) B      0.0140
     7 (A) A             20 (A) A                -0.0137
     7 (A) A   8 (A) B   13 (A) A   11 (A) B     -0.0127
     8 (A) A             12 (A) A                 0.0120
     5 (A) A   8 (A) A   11 (A) A   21 (A) A     -0.0110
     4 (A) A   8 (A) B   12 (A) A   11 (A) B     -0.0110
     8 (A) A   8 (A) B    9 (A) A   22 (A) B      0.0107
     7 (A) A   8 (A) A   11 (A) A   22 (A) A     -0.0096
     6 (A) A   8 (A) B   15 (A) A   11 (A) B      0.0090
     6 (A) A   8 (A) B   10 (A) A   11 (A) B     -0.0090
     7 (A) A   8 (A) B   22 (A) A   11 (A) B      0.0089
     3 (A) A   4 (A) B   11 (A) A    9 (A) B      0.0083
     3 (A) A   8 (A) B   11 (A) A   18 (A) B     -0.0081
     6 (A) A   8 (A) A   11 (A) A   15 (A) A     -0.0080
     7 (A) A   8 (A) A   13 (A) A   16 (A) A     -0.0078
     6 (A) A              9 (A) A                 0.0078
     7 (A) A   8 (A) A   11 (A) A   13 (A) A      0.0077
     5 (A) A   8 (A) B   21 (A) A   11 (A) B      0.0071
     4 (A) A   8 (A) B   19 (A) A   11 (A) B      0.0070
     5 (A) A   8 (A) B    9 (A) A    9 (A) B      0.0068
     4 (A) A   8 (A) A   11 (A) A   12 (A) A      0.0062
     6 (A) A   8 (A) A   11 (A) A   18 (A) A     -0.0062
     3 (A) A   6 (A) B   11 (A) A   28 (A) B     -0.0060
     6 (A) A   8 (A) B   18 (A) A   11 (A) B      0.0060
     7 (A) A   8 (A) B   16 (A) A   13 (A) B      0.0057
     3 (A) A   8 (A) A   11 (A) A   18 (A) A     -0.0056
     5 (A) A   8 (A) B   10 (A) A   10 (A) B      0.0056
     3 (A) A   8 (A) B   11 (A) A   30 (A) B     -0.0055
     3 (A) A   5 (A) B   11 (A) A   25 (A) B     -0.0055
     6 (A) A   8 (A) B   11 (A) A   10 (A) B     -0.0054
     7 (A) A   8 (A) B   12 (A) A   10 (A) B      0.0054
     8 (A) A   8 (A) B   20 (A) A   22 (A) B      0.0053
     3 (A) A   8 (A) A   11 (A) A   24 (A) A     -0.0053
     5 (A) A   8 (A) A   11 (A) A   16 (A) A      0.0048
    -----------------------------------------------------

  Density matrix analysis:
  ------------------------
  NOs
    Occupation of frontier NOs:
       0.9408   1.0277
    Number of electrons: 16.000000
    Number of unpaired electrons: n_u =  2.31912, n_u,nl =  2.04906
    NO participation ratio (PR_NO):  2.914082
  
  
  Mulliken Population Analysis
  Atom      Charge (e)              h+              e-           Del q
  --------------------------------------------------------------------
   1 H       -0.148085        0.045761       -0.244795       -0.199034
   2 C        0.275016        0.497225       -0.121418        0.375806
   3 H       -0.127329        0.046939       -0.224809       -0.177871
   4 C        0.273383        0.496808       -0.122144        0.374664
   5 H       -0.131196        0.047078       -0.228317       -0.181239
   6 H       -0.141789        0.045816       -0.238142       -0.192326
  --------------------------------------------------------------------
  Sum:       -0.000000        1.179626       -1.179626        0.000000
  
  Multipole moment analysis of the density matrix
    Molecular charge:                      -0.000000
    Number of electrons:                   16.000000
      Center of electronic charge [Ang]: [ -1.560015,  -0.065255,   0.001670]
    Total nuclear charge:                  16.000000
      Center of nuclear charge [Ang]:    [ -1.560576,  -0.065602,   0.001666]
    Dipole moment [D]:                     0.050706
      Cartesian components [D]:          [ -0.043094,  -0.026718,  -0.000316]
    RMS size of the density [Ang]:         1.277169
      Cartesian components [Ang]:        [  0.859071,   0.839539,   0.433974]
  
  Exciton analysis of the difference density matrix
    <r_h> [Ang]:                  [ -1.559969,  -0.065367,   0.002030]
    <r_e> [Ang]:                  [ -1.552654,  -0.060331,   0.001683]
    |<r_e - r_h>| [Ang]:            0.008888
    Hole size [Ang]:                1.394819
      Cartesian components [Ang]: [  0.818292,   0.806789,   0.790575]
    Electron size [Ang]:            2.124196
      Cartesian components [Ang]: [  1.442735,   1.403751,   0.678387]

  Transition density matrix analysis:
  -----------------------------------
  
  CT numbers (Mulliken)
    omega =     0.9298
    <Phe> =    -0.0135
  
  Exciton analysis of the transition density matrix
    Trans. dipole moment [D]:             0.011547
      Cartesian components [D]:         [  0.008235,  -0.007740,  -0.002370]
    <r_h> [Ang]:                        [ -1.560448,  -0.065677,   0.002156]
    <r_e> [Ang]:                        [ -1.551284,  -0.059212,   0.001679]
    |<r_e - r_h>| [Ang]:                  0.011225
    Hole size [Ang]:                      1.227927
      Cartesian components [Ang]:       [  0.657805,   0.650204,   0.807671]
    Electron size [Ang]:                  2.262314
      Cartesian components [Ang]:       [  1.537217,   1.495212,   0.720675]
    RMS electron-hole separation [Ang]:   2.563415
      Cartesian components [Ang]:       [  1.663510,   1.622697,   1.081982]
    Covariance(r_h, r_e) [Ang^2]:         0.027450
    Correlation coefficient:              0.009881
    Center-of-mass size [Ang]:            1.292359
      Cartesian components [Ang]:       [  0.840283,   0.819107,   0.541462]

  Decomposition into state-averaged NTOs
    H- 0 -> L+ 2:  0.6650 ( 88.5%)
    H- 1 -> L+ 0: -0.1481 (  4.4%)
                   omega =  93.0%
  ----------------------------------------------------------------------------


  Excited state 5 (singlet, A)                                     [converged]
  ----------------------------------------------------------------------------
  Term symbol:  6 (1) A                                     R^2 =  1.68417e-13

  Total energy:                                            -77.9443219006 a.u.
  Excitation energy:                                              10.212515 eV

  Osc. strength:                                                      0.000000
  Trans. dip. moment [a.u.]:           [   0.000735,    0.001034,   -0.000068]
  <i|r^2|0> [a.u.]:                    [  -0.082071,    0.101734,   -0.014401]
  Two-photon absorption cross-section (SoS) [a.u.]:                 178.496025
  Two-photon absorption matrix (SoS) [a.u.]:
                                       |   -0.304095   -0.043612    3.348672 |
                                       |   -0.043612    0.393597   -3.312133 |
                                       |    3.348672   -3.312133   -0.070492 |
  Two-photon absorption cross-section [a.u.]:                        79.975729
  Two-photon absorption matrix [a.u.]:
                                       |   -0.196220   -0.023965    2.228519 |
                                       |   -0.023965    0.271505   -2.229915 |
[...]
    16   -1.526891259240e-03
    17   -1.746709962622e-03
    18   -1.063011939058e-04
    19   -3.324069151388e-03
    20    1.085745293867e-02
    21    9.357783460220e-01
    22   -2.637559406505e-04
    23    1.399738635871e-02
    24    8.092318386151e-04
    25    7.022420157455e-02
    26   -5.221712027741e-02
    27   -1.398920268676e+00
    28    9.793468574428e-02
    29   -9.260400612172e-02
    30   -2.738431477541e-04
    31    3.849609936227e-01
    32   -3.625203065613e-01
    33   -9.499579524211e-04
    34    1.565128553515e-02
    35   -1.477254896461e-03
    36   -1.637191167804e-03
    37   -2.682248124385e-05
    38   -3.133837784093e-03
    39    9.807486284749e-03
    40    9.316688599317e-01
    41    2.392440443769e-04
    42   -1.393514142947e-02
    43   -7.516284681334e-04
    44    1.006108110911e-02
    45    9.400049391259e-01
    46    1.412172295793e-02
    47    3.796413983170e-04
    48    6.947347856402e-04
Sym=X
Ene= 0.232980
Spin=Alpha
Occup=0
     1    2.619296158127e-02
     2    1.236776130876e+00
     3   -1.436202465930e-02
     4   -3.837225956177e-03
     5   -9.348322288029e-04
     6    3.244819791129e-03
     7   -3.636073710911e-03
     8   -5.194177177658e-02
     9   -1.550064429074e-01
    10   -1.584320464491e-01
    11   -1.701902800910e-02
    12   -5.571826427850e-01
    13   -5.575977050146e-01
    14   -6.078240482975e-02
    15    5.730353133862e-04
    16   -1.263020540695e-04
    17   -6.098033525886e-05
    18   -2.155113125843e-04
    19   -3.742563455354e-04
    20   -2.500162226669e-02
    21   -1.157946066650e+00
    22   -2.477053960704e-03
    23   -1.353069510346e-02
    24   -9.252990009643e-04
    25   -2.885802866758e-03
    26    3.340375474725e-03
    27    4.230960512992e-02
    28   -1.540266777804e-01
    29   -1.589611292357e-01
    30   -1.590133220651e-02
    31   -5.482711039304e-01
    32   -5.553575027149e-01
    33   -5.566939800125e-02
    34   -5.005812797816e-04
    35    9.835731000842e-05
    36    1.162912412052e-04
    37    3.882182346449e-04
    38    3.502731866820e-04
    39    2.498588467612e-02
    40    1.156995407534e+00
    41   -2.450759475108e-03
    42   -1.361410484407e-02
    43   -8.641854982311e-04
    44   -2.627311320587e-02
    45   -1.223649478391e+00
    46   -1.425628529623e-02
    47   -3.778347111642e-03
    48   -8.674498117578e-04
Sym=X
Ene= 0.239419
Spin=Alpha
Occup=0
     1   -1.596082980756e-02
     2   -1.048527385852e+00
     3    1.648962646185e-02
     4    9.097801623536e-03
     5    1.299395199156e-03
     6   -8.647705923234e-02
     7    7.971228300851e-02
     8    1.592572532321e+00
     9    5.286346826440e-02
    10   -6.091509740822e-02
    11   -1.275118285402e-03
    12    2.099686792445e-01
    13   -2.366778209780e-01
    14   -4.979793293253e-03
    15   -2.254802253555e-02
    16    2.555633470998e-03
    17    2.970850047904e-03
    18   -5.154305303957e-04
    19    1.286450963643e-02
    20   -1.702576432186e-02
    21   -1.126834826256e+00
    22   -8.544633761604e-03
    23   -1.779357733882e-02
    24   -1.455608029024e-03
    25    8.644056947431e-02
    26   -7.929328723811e-02
    27   -1.596789460309e+00
    28    5.308934605248e-02
    29   -6.150448754679e-02
    30   -5.181791901968e-04
    31    2.101210494644e-01
    32   -2.423401403940e-01
    33   -2.010622276307e-03
    34    2.264539732413e-02
    35   -2.575496187572e-03
    36   -2.872348813252e-03
    37    7.474934528261e-04
    38   -1.279612599743e-02
    39    1.682042760324e-02
    40    1.133624587833e+00
    41   -8.635186466359e-03
    42   -1.795224377616e-02
    43   -1.395301471025e-03
    44    1.555094854939e-02
    45    1.046577267249e+00
    46    1.640945839400e-02
    47    9.270218808416e-03
    48    1.336207761950e-03
Sym=X
Ene= 0.303264
Spin=Alpha
Occup=0
     1   -2.074590734934e-02
     2    1.691182722366e+00
     3   -2.291069732404e-02
     4    2.760933914812e-04
     5   -1.059955010421e-03
     6   -2.119958307604e-04
     7    1.840906174676e-04
     8    2.271708112898e-03
     9   -1.338622763406e-01
    10   -1.395494661911e-01
    11   -1.469738426898e-02
    12   -1.144233904500e+00
    13   -1.193719031865e+00
    14   -1.240119600125e-01
    15   -1.223154623560e-04
    16   -1.591429939216e-03
    17    1.889363159190e-03
    18   -3.265656796233e-02
    19   -1.584753104623e-03
    20    1.995714989095e-02
    21   -1.689815937523e+00
    22    1.429142759649e-03
    23   -2.290468627156e-02
    24   -1.307648514247e-03
    25    8.542989148205e-05
    26    2.645503662106e-04
    27   -8.210439166783e-03
    28    1.347403620225e-01
    29    1.403067833289e-01
    30    1.413503207929e-02
    31    1.140052205437e+00
    32    1.198101135624e+00
    33    1.218881201196e-01
    34    3.127155519330e-05
    35   -1.697950255916e-03
    36    1.696482088483e-03
    37   -3.252385414981e-02
    38   -1.668555009268e-03
    39    1.961835901416e-02
    40   -1.692969185666e+00
    41   -1.616281097710e-03
    42    2.284553930027e-02
    43    1.210096778037e-03
    44   -2.009676192823e-02
    45    1.698866880918e+00
    46    2.304924772722e-02
    47   -3.680184177982e-04
    48    1.052004588792e-03
Sym=X
Ene= 0.462063
Spin=Alpha
Occup=0
     1   -1.156017853640e-01
     2   -7.145268769775e-01
     3   -1.567307295188e-02
     4   -1.032813832138e-02
     5   -1.374066182257e-03
     6    6.080838173745e-02
     7    1.736165106460e-02
     8   -3.592193459059e+00
     9    1.029973859269e-01
    10   -9.901685361433e-02
    11   -8.198873207587e-04
    12    2.426492314604e+00
    13   -2.303238064699e+00
    14   -2.212610664943e-02
    15    5.365519411703e-02
    16   -3.501210095468e-03
    17   -4.603585232061e-03
    18   -7.651084919326e-04
    19    1.800259400592e-02
    20   -1.211972070960e-01
    21   -7.023359308972e-01
    22    8.725104698781e-03
    23    1.637762073351e-02
    24    1.392592987792e-03
    25   -6.094708769724e-02
    26   -1.624544169805e-02
    27    3.591279140091e+00
    28    1.051437754003e-01
    29   -1.004733852652e-01
    30   -3.540114616612e-04
    31    2.422802995384e+00
    32   -2.298916584354e+00
    33   -2.000350113875e-02
    34   -5.271934538433e-02
    35    3.117713562556e-03
    36    4.296399682809e-03
    37    6.644977035926e-04
    38   -1.902281013631e-02
    39    1.150255876042e-01
    40    7.100340769618e-01
    41    8.582916012835e-03
    42    1.625159762663e-02
    43    1.323853613982e-03
    44    1.107455436296e-01
    45    7.180471791206e-01
    46   -1.546080236396e-02
    47   -9.937729418534e-03
    48   -1.251715431612e-03
Sym=X
Ene= 0.577510
Spin=Alpha
Occup=0
     1    2.470082126876e-01
     2    4.074613622334e-02
     3   -1.846657030891e-02
     4    2.570249821197e-02
     5    6.373201675615e-04
     6   -4.443072023851e-03
     7   -1.572035177638e-01
     8   -4.667324843591e-01
     9    2.988280009607e-01
    10   -2.879577893913e-01
    11   -2.817265006341e-03
    12   -7.193491244086e-01
    13    6.959811573919e-01
    14    6.467516878106e-03
    15   -5.880943678005e-03
    16    3.786179251782e-03
    17    3.706663429919e-03
    18   -4.336470633728e-03
    19    6.023633441759e-02
    20    2.552808646151e-01
    21    2.916341193159e-02
    22   -2.642301897462e-02
    23    1.646974192512e-02
    24   -2.826257030517e-04
    25   -5.645542523488e-03
    26   -1.578921278430e-01
    27   -4.093559624388e-01
    28   -2.973764448328e-01
    29    2.851969370025e-01
    30    2.794174572524e-03
    31    7.629178685591e-01
    32   -7.338133583724e-01
    33   -6.171710082845e-03
    34   -5.856287124117e-03
    35    3.799693126894e-03
    36    3.646077481226e-03
    37   -3.762488986226e-03
    38    6.019170000088e-02
    39    2.507288284144e-01
    40    5.059812647299e-02
    41    2.719520970592e-02
    42   -1.699325764471e-02
    43    3.184049304858e-04
    44    2.490069405188e-01
    45    5.621304325531e-02
    46    1.843565375947e-02
    47   -2.588712981694e-02
    48   -5.948093682602e-04
Sym=X
Ene= 0.615146
Spin=Alpha
Occup=0
     1   -5.221810844641e-01
     2    2.002444452574e-01
     3   -6.135211706836e-02
     4    3.762681049186e-02
     5   -6.262198127823e-04
     6   -5.910847218970e-04
     7    1.134604570875e-04
     8   -1.631800005460e-02
     9   -4.039441970076e-02
    10   -3.855646127539e-02
    11   -3.960881128149e-03
    12    3.044471362696e-01
    13    2.792135369179e-01
    14    3.184010510783e-02
    15    1.878821258755e-03
    16   -7.410176900194e-03
    17    8.214064219575e-03
    18   -1.479798943004e-01
    19   -6.444067999711e-03
    20    5.081899231879e-01
    21   -2.049058089648e-01
    22    4.178112504033e-02
    23   -5.846456981830e-02
    24   -1.425757865452e-03
    25    4.164224573578e-04
    26   -1.119595319917e-03
    27    2.473675661675e-02
    28   -4.005440067793e-02
    29   -4.039605960813e-02
    30   -4.371114321929e-03
    31    3.038655880121e-01
    32    2.907770669871e-01
    33    2.972635049771e-02
    34   -1.417131599207e-03
    35    7.698126142181e-03
    36   -7.924028476789e-03
    37    1.491262616825e-01
    38    6.314640399830e-03
    39   -5.146823944345e-01
    40    2.063257299175e-01
    41    4.090563053365e-02
    42   -5.857492870042e-02
    43   -1.432857719504e-03
    44    5.220175504870e-01
    45   -2.041596313727e-01
    46   -6.146819965605e-02
    47    3.759885537627e-02
    48   -8.219599072090e-04
Sym=X
Ene= 0.689154
Spin=Alpha
Occup=0
     1   -8.341232867650e-04
     2   -8.257937905204e-04
     3    9.050111817644e-04
     4    1.210348942049e-03
     5   -2.101815001589e-02
     6   -6.352439217257e-05
     7   -5.282679785872e-04
     8   -2.406836949837e-04
     9    3.223299312227e-02
    10    3.928265271514e-02
    11   -6.703650577529e-01
    12   -2.836471595527e-02
    13   -3.753114751074e-02
    14    6.135452034670e-01
    15   -9.992882466428e-04
    16    8.264235923659e-02
    17   -7.839780430796e-02
    18   -8.211865531672e-03
    19   -1.350910367913e-03
    20   -1.074661427664e-03
    21    2.772138993921e-04
    22    1.179385917716e-03
    23    1.416929227675e-03
    24   -2.090889250986e-02
    25   -1.458867307832e-05
    26   -1.003105539553e-03
    27    1.187357122168e-03
    28    3.075996761500e-02
    29    3.837734725155e-02
    30   -6.702441408568e-01
    31   -2.651806033198e-02
    32   -3.617642833335e-02
    33    6.133971452154e-01
    34    1.510152829032e-03
    35   -8.277936161300e-02
    36    7.842967095289e-02
    37    8.635009675892e-03
    38    1.185041062337e-03
    39   -2.620092366006e-04
    40    1.720341843338e-03
    41    9.079187126194e-04
    42    9.146619185162e-04
    43   -2.115534002220e-02
    44   -1.530154426684e-05
    45    6.203415763952e-04
    46    1.178633315692e-03
    47    1.122464449352e-03
    48   -2.104404188634e-02
Sym=X
Ene= 0.708948
Spin=Alpha
Occup=0
     1   -4.760957593778e-01
     2    1.587794564399e-01
     3   -8.079877477952e-02
     4   -4.427955471458e-02
     5   -6.349874528820e-03
     6   -4.787289992718e-02
     7   -3.198978457322e-01
     8    5.106164323528e-01
     9    2.034992705200e-01
    10   -1.923321976132e-01
    11   -7.214842189176e-04
    12   -9.834236637846e-02
    13    8.184075235350e-02
    14    8.863791805266e-05
    15    1.942050757912e-01
    16   -2.042046007875e-02
    17   -2.372725568278e-02
    18    3.119040093570e-03
    19   -7.749270243590e-02
    20   -4.785853191781e-01
    21    1.505385932598e-01
    22    4.099013344480e-02
    23    8.174706149377e-02
    24    6.838673205218e-03
    25   -4.667062126905e-02
    26   -3.213475645231e-01
    27    4.626388100786e-01
    28   -2.044123612849e-01
    29    1.916309484971e-01
    30    2.464766562299e-03
    31    6.475813203079e-02
    32   -5.017802728249e-02
    33   -1.977752207634e-03
    34    1.936702583032e-01
    35   -1.987993507157e-02
    36   -2.306848237842e-02
    37    2.438765394470e-03
    38   -7.560714358245e-02
    39   -4.719473696193e-01
    40    1.338833173283e-01
    41   -4.066036985138e-02
    42   -8.096092390813e-02
    43   -6.536926399521e-03
    44   -4.740720064693e-01
    45    1.460502162708e-01
    46    8.048183981715e-02
    47    4.402433023899e-02
    48    6.229300711607e-03
Sym=X
Ene= 0.784589
Spin=Alpha
Occup=0
     1    5.261328474993e-01
     2   -4.688776187593e-01
     3    1.102469930688e-01
     4    2.599206819399e-02
     5    6.762082444247e-03
     6    9.093420866606e-02
     7   -2.161307766964e-01
     8   -6.409073285976e-01
     9    1.107610074801e-01
    10   -1.061160345820e-01
    11   -2.727402444379e-03
    12    3.169271753907e-01
    13   -2.927083085989e-01
    14    7.888221164172e-04
    15   -2.061694805578e-01
    16    1.761359903337e-02
    17    2.186260099103e-02
    18   -1.041686113093e-03
    19    9.124821091182e-03
    20    5.359074631787e-01
    21   -4.680120821926e-01
    22   -2.021181167632e-02
    23   -1.122397449191e-01
    24   -7.637398275694e-03
    25   -9.142988726883e-02
    26    2.124526624367e-01
    27    6.569937639466e-01
    28    1.112270913826e-01
    29   -1.060285076287e-01
    30    3.281818420453e-04
    31    3.101095629438e-01
    32   -2.862662400028e-01
    33   -5.148299910512e-03
    34    2.080292407906e-01
    35   -1.734161342386e-02
    36   -2.080958752032e-02
    37    1.821257102399e-03
    38   -8.927500224703e-03
    39   -5.419100258281e-01
    40    4.652587699746e-01
    41   -2.049749883737e-02
    42   -1.129230406763e-01
    43   -7.345153053269e-03
    44   -5.318556141457e-01
    45    4.652538882366e-01
    46    1.101489238903e-01
    47    2.684771181229e-02
    48    6.627515274686e-03
Sym=X
Ene= 0.807970
Spin=Alpha
Occup=0
     1   -9.801414908590e-04
     2    2.561886661684e-03
     3    1.196262783405e-03
     4    1.869958622554e-03
     5   -3.383790768599e-02
     6   -1.999430614071e-04
     7    7.891175185597e-04
     8    9.608636456428e-05
     9    3.611910850963e-02
    10    4.595166285188e-02
    11   -7.629526362068e-01
    12   -5.459742625019e-02
    13   -6.708465243978e-02
    14    1.126883869887e+00
    15    1.511306320900e-03
    16   -6.529990358982e-02
    17    6.183390713733e-02
    18    6.241746620087e-03
    19    1.052583495566e-03
    20   -9.405075533431e-04
    21   -4.907206148449e-04
    22    1.486506489520e-03
    23    2.094510040617e-03
    24   -3.448495353381e-02
    25    1.635346162923e-04
    26    2.060971705036e-05
    27   -5.520957715810e-04
    28   -3.532338742396e-02
    29   -4.275273254633e-02
    30    7.634344696303e-01
    31    5.076413548603e-02
    32    6.407760198854e-02
    33   -1.127364948366e+00
    34    4.144565226518e-04
    35   -6.514984661434e-02
    36    6.187694347695e-02
    37    7.047920225287e-03
    38    8.526765113672e-04
    39    9.359518931811e-04
    40    2.647778459100e-04
    41   -1.803890063975e-03
    42   -1.702771482820e-03
    43    3.432084269392e-02
    44    9.736904853559e-04
    45   -2.763794459787e-03
    46   -2.166113927701e-03
    47   -1.993227355011e-03
    48    3.371575094075e-02
Sym=X
Ene= 0.862279
Spin=Alpha
Occup=0
     1    1.359153140878e-02
     2   -1.096278115942e+00
     3    1.484466015658e-01
     4    5.641152919498e-02
     5    1.040052792807e-02
     6    1.628020108742e-04
     7    2.457494015463e-05
     8    1.328088708639e-03
     9   -4.070969331825e-01
    10   -4.289730600742e-01
    11   -4.566065367571e-02
    12    9.480737130357e-01
    13    9.988476073586e-01
    14    1.061700357456e-01
    15   -6.259040127968e-04
    16    1.171134343027e-02
    17   -1.308939149173e-02
    18    2.354144475414e-01
    19    9.508340600281e-03
    20   -1.395867405954e-02
    21    1.103858166612e+00
    22    5.034166003459e-02
    23    1.514976453175e-01
    24    1.123134334931e-02
    25   -3.716156981839e-05
    26    2.106125790685e-03
    27   -2.493735780914e-03
    28   -4.066397485572e-01
    29   -4.293559930457e-01
    30   -4.230053539549e-02
    31    9.468767884523e-01
    32    1.002347784336e+00
    33    9.880576352226e-02
    34    9.435514017450e-05
    35   -1.181360019725e-02
    36    1.309207655335e-02
    37   -2.364823291020e-01
    38   -1.025327258842e-02
    39    1.200083001026e-02
    40   -1.102297109394e+00
    41    4.890955702692e-02
    42    1.516483935861e-01
    43    1.080312712770e-02
    44   -1.112109186519e-02
    45    1.094697072576e+00
    46    1.486454045486e-01
    47    5.566520535049e-02
    48    1.024397563439e-02
Sym=X
Ene= 0.935978
Spin=Alpha
Occup=0
     1   -1.132840663335e-01
     2    1.278020520150e+00
     3   -1.811084015173e-01
     4    5.528773043271e-03
     5   -8.170293428308e-03
     6   -7.132383296726e-05
     7   -2.476428657529e-03
     8   -2.305663866955e-03
     9    4.719662054246e-01
    10    5.000213913170e-01
    11    5.170233186257e-02
    12   -1.463469142561e+00
    13   -1.542446466080e+00
    14   -1.597068158930e-01
    15   -7.145067539876e-04
    16   -5.666359723872e-03
    17    7.480472307649e-03
    18   -1.201842666403e-01
    19   -1.874766589961e-03
    20    1.170808491170e-01
    21   -1.287427009394e+00
    22    1.146854085559e-02
    23   -1.829050538921e-01
    24   -1.041305437081e-02
    25    1.349572343662e-04
    26   -1.142989108918e-04
    27    1.585086594474e-03
    28   -4.758075702871e-01
    29   -4.966928107678e-01
    30   -5.058681112965e-02
    31    1.473357084278e+00
    32    1.530478776969e+00
    33    1.563436325159e-01
    34   -9.315812182349e-04
    35   -5.799256545916e-03
    36    6.466933939662e-03
    37   -1.208943266771e-01
    38   -5.332258082331e-03
    39    1.167560467844e-01
    40   -1.280762229678e+00
    41   -1.359443281927e-02
    42    1.819870077899e-01
    43    9.714388935823e-03
    44   -1.151808973409e-01
    45    1.288681202953e+00
    46    1.821604927515e-01
    47   -5.272015743459e-03
    48    8.110120152487e-03
Sym=X
Ene= 0.972477
Spin=Alpha
Occup=0
     1   -6.456076438170e-02
     2    9.302519115465e-01
     3   -9.152290666493e-02
     4   -9.857895073700e-02
     5   -1.007155113986e-02
     6    2.532635181049e-02
     7    2.545767071102e-01
     8    5.159279954258e-01
     9    4.824052668259e-01
    10   -4.534793742981e-01
    11   -4.155430425222e-03
    12   -1.499654721524e+00
    13    1.403725641745e+00
    14    1.260559153440e-02
    15   -5.377340306786e-02
    16   -1.275389348480e-02
    17   -9.383311225389e-03
    18    1.326960896008e-02
    19   -3.017331190711e-01
    20   -6.269627405030e-02
    21    9.074063159485e-01
    22    9.538210972880e-02
    23    9.277764037627e-02
    24    9.884786984872e-03
    25   -2.512054928332e-02
    26   -2.363739304693e-01
    27   -5.461662293171e-01
    28    4.765231692069e-01
    29   -4.561604347309e-01
    30   -3.472370301659e-03
    31   -1.479233987061e+00
    32    1.420726587136e+00
    33    1.147341682471e-02
    34    5.262548189425e-02
    35    1.271634298090e-02
    36    9.405590708864e-03
    37   -1.455995553551e-02
    38    2.988767832396e-01
    39    6.225245573334e-02
    40   -9.125171626671e-01
    41    9.418121564900e-02
    42    9.329575755959e-02
    43    9.553253621598e-03
    44    6.592485837255e-02
    45   -9.063179611320e-01
    46   -8.832796912603e-02
    47   -9.779793254709e-02
    48   -1.001120692725e-02
[5D]

======= END OF MOLDEN-FORMATTED INPUT FILE =======


        *************************************************************
        *                                                           *
        *  Thank you very much for using Q-Chem.  Have a nice day.  *
        *                                                           *
        *************************************************************


