                  Welcome to Q-Chem
     A Quantum Leap Into The Future Of Chemistry


 Q-Chem 5.4 (devel), Q-Chem, Inc., Pleasanton, CA (2021)

 E. Epifanovsky,  A. T. B. Gilbert,  Xintian Feng,  Joonho Lee,  Yuezhi Mao,  
 N. Mardirossian,  P. Pokhilko,  A. White,  M. Wormit,  M. P. Coons,  
 A. L. Dempwolff,  Zhengting Gan,  D. Hait,  P. R. Horn,  L. D. Jacobson,  
 I. Kaliman,  J. Kussmann,  A. W. Lange,  Ka Un Lao,  D. S. Levine,  Jie Liu,  
 S. C. McKenzie,  A. F. Morrison,  K. Nanda,  F. Plasser,  D. R. Rehn,  
 M. L. Vidal,  Zhi-Qiang You,  Ying Zhu,  B. Alam,  B. Albrecht,  
 A. Aldossary,  E. Alguire,  J. H. Andersen,  D. Barton,  K. Begam,  A. Behn,  
 Y. A. Bernard,  E. J. Berquist,  H. Burton,  A. Carreras,  K. Carter-Fenk,  
 R. Chakraborty,  A. D. Chien,  K. D. Closser,  V. Cofer-Shabica,  
 S. Dasgupta,  Jia Deng,  M. de Wergifosse,  M. Diedenhofen,  Hainam Do,  
 S. Ehlert,  Po-Tung Fang,  S. Fatehi,  Qingguo Feng,  T. Friedhoff,  
 J. Gayvert,  Qinghui Ge,  G. Gidofalvi,  M. Goldey,  J. Gomes,  
 C. Gonzalez-Espinoza,  S. Gulania,  A. Gunina,  M. W. D. Hanson-Heine,  
 P. H. P. Harbach,  A. W. Hauser,  M. F. Herbst,  M. Hernandez Vera,  
 M. Hodecker,  Z. C. Holden,  S. Houck,  Xunkun Huang,  Kerwin Hui,  
 B. C. Huynh,  M. Ivanov,  Hyunjun Ji,  Hanjie Jiang,  B. Kaduk,  S. Kaehler,  
 K. Khistyaev,  Jaehoon Kim,  P. Klunzinger,  Z. Koczor-Benda,  
 Joong Hoon Koh,  D. Kosenkov,  L. Koulias,  T. Kowalczyk,  C. M. Krauter,  
 K. Kue,  A. Kunitsa,  T. Kus,  A. Landau,  K. V. Lawler,  D. Lefrancois,  
 S. Lehtola,  Rain Li,  Yi-Pei Li,  Jiashu Liang,  M. Liebenthal,  
 Hung-Hsuan Lin,  You-Sheng Lin,  Fenglai Liu,  Kuan-Yu Liu,  
 M. Loipersberger,  A. Luenser,  A. Manjanath,  P. Manohar,  E. Mansoor,  
 S. F. Manzer,  Shan-Ping Mao,  A. V. Marenich,  T. Markovich,  S. Mason,  
 S. A. Maurer,  P. F. McLaughlin,  M. F. S. J. Menger,  J.-M. Mewes,  
 S. A. Mewes,  P. Morgante,  J. W. Mullinax,  K. J. Oosterbaan,  G. Paran,  
 Alexander C. Paul,  Suranjan K. Paul,  F. Pavosevic,  Zheng Pei,  S. Prager,  
 E. I. Proynov,  E. Ramos,  B. Rana,  A. E. Rask,  A. Rettig,  R. M. Richard,  
 F. Rob,  E. Rossomme,  T. Scheele,  M. Scheurer,  M. Schneider,  
 N. Sergueev,  S. M. Sharada,  W. Skomorowski,  D. W. Small,  C. J. Stein,  
 Yu-Chuan Su,  E. J. Sundstrom,  Zhen Tao,  J. Thirman,  T. Tsuchimochi,  
 N. M. Tubman,  S. P. Veccham,  O. Vydrov,  J. Wenzel,  J. Witte,  A. Yamada,  
 Kun Yao,  S. Yeganeh,  S. R. Yost,  A. Zech,  Igor Ying Zhang,  Xing Zhang,  
 Yu Zhang,  D. Zuev,  A. Aspuru-Guzik,  A. T. Bell,  N. A. Besley,  
 K. B. Bravaya,  B. R. Brooks,  D. Casanova,  Jeng-Da Chai,  S. Coriani,  
 C. J. Cramer,  A. E. DePrince, III,  R. A. DiStasio Jr.,  A. Dreuw,  
 B. D. Dunietz,  T. R. Furlani,  W. A. Goddard III,  S. Grimme,  
 S. Hammes-Schiffer,  T. Head-Gordon,  W. J. Hehre,  Chao-Ping Hsu,  
 T.-C. Jagau,  Yousung Jung,  A. Klamt,  Jing Kong,  D. S. Lambrecht,  
 WanZhen Liang,  N. J. Mayhall,  C. W. McCurdy,  J. B. Neaton,  
 C. Ochsenfeld,  J. A. Parkhill,  R. Peverati,  V. A. Rassolov,  Yihan Shao,  
 L. V. Slipchenko,  T. Stauch,  R. P. Steele,  J. E. Subotnik,  
 A. J. W. Thom,  A. Tkatchenko,  D. G. Truhlar,  T. Van Voorhis,  
 T. A. Wesolowski,  K. B. Whaley,  H. L. Woodcock III,  P. M. Zimmerman,  
 S. Faraji,  P. M. W. Gill,  M. Head-Gordon,  J. M. Herbert,  A. I. Krylov

 Additional authors for Version 5.4.1: 
 S. Kotaru,  Shaozhi Li,  Xiangyuan Li,  F. Matz,  A. Molle,  Haisheng Ren,  
 Yingli Su,  Hung-Yi Tsai,  C. Utku,  Fang Wang

 Contributors to earlier versions of Q-Chem not listed above: 
 R. D. Adamson,  B. Austin,  R. Baer,  J. Baker,  G. J. O. Beran,  
 K. Brandhorst,  S. T. Brown,  E. F. C. Byrd,  A. K. Chakraborty,  
 G. K. L. Chan,  Chun-Min Chang,  Yunqing Chen,  C.-L. Cheng,  
 Siu Hung Chien,  D. M. Chipman,  D. L. Crittenden,  H. Dachsel,  
 R. J. Doerksen,  A. D. Dutoi,  R. G. Edgar,  J. Fosso-Tande,  
 L. Fusti-Molnar,  D. Ghosh,  A. Ghysels,  A. Golubeva-Zadorozhnaya,  
 J. Gonthier,  M. S. Gordon,  S. R. Gwaltney,  G. Hawkins,  J. E. Herr,  
 A. Heyden,  S. Hirata,  E. G. Hohenstein,  G. Kedziora,  F. J. Keil,  
 C. Kelley,  Jihan Kim,  R. A. King,  R. Z. Khaliullin,  P. P. Korambath,  
 W. Kurlancheek,  A. Laurent,  A. M. Lee,  M. S. Lee,  S. V. Levchenko,  
 Ching Yeh Lin,  D. Liotard,  E. Livshits,  R. C. Lochan,  I. Lotan,  
 L. A. Martinez-Martinez,  P. E. Maslen,  N. Nair,  D. P. O'Neill,  
 D. Neuhauser,  E. Neuscamman,  C. M. Oana,  R. Olivares-Amaya,  R. Olson,  
 T. M. Perrine,  B. Peters,  P. A. Pieniazek,  A. Prociuk,  Y. M. Rhee,  
 J. Ritchie,  M. A. Rohrdanz,  E. Rosta,  N. J. Russ,  H. F. Schaefer III,  
 M. W. Schmidt,  N. E. Schultz,  S. Sharma,  N. Shenvi,  C. D. Sherrill,  
 A. C. Simmonett,  A. Sodt,  T. Stein,  D. Stuck,  K. S. Thanthiriwatte,  
 V. Vanovschi,  L. Vogt,  Tao Wang,  A. Warshel,  M. A. Watson,  
 C. F. Williams,  Q. Wu,  X. Xu,  Jun Yang,  W. Zhang,  Yan Zhao

 Please cite Q-Chem as follows:
 Y. Shao et al., Mol. Phys. 113, 184-215 (2015)
 DOI: 10.1080/00268976.2014.952696

 Q-Chem 5.4.1 for Intel X86 EM64T Linux

 Parts of Q-Chem use Armadillo 9.800.1 (Horizon Scraper).
 http://arma.sourceforge.net/

 Q-Chem begins on Thu Nov 17 15:43:00 2022  

 Host: cpu185.baobab
0

     Scratch files written to /scratch/fum/qchem22438//
 Processing $rem in /home/share/wesolowski/qc5.aug2021.FDE/config/preferences:
 Processing $rem in /home/fum/.qchemrc:

 Checking the input file for inconsistencies... 	...done.

--------------------------------------------------------------
User input:
--------------------------------------------------------------
$comment
generated from CCJob.Templates
$end

$rem
sym_ignore = true
method = adc(2)
ee_states = 10
basis = cc-pVDZ
mem_static = 1024
mem_total = 40000
adc_davidson_maxiter = 900
adc_davidson_conv = 6
adc_print = 3
adc_prop_es = true
adc_prop_es2es = true
adc_prop_tpa = true
molden_format = True
state_analysis = true
print_orbitals = 15
gen_scfman = false
fde_export_density = true
fde_details = 3
$end

$molecule
0 1
H -0.0348278765 -0.2442097827 0.0636489606
C -1.0765972949 -0.5242748755 -0.0023551776
H -1.313264467 -1.5767591607 -0.0757276926
C -2.043634118 0.3926884087 0.0061254933
H -1.8137616575 1.4459188338 0.0804456828
H -3.085977293 0.114931858 -0.0693381042                     
$end
--------------------------------------------------------------
 ----------------------------------------------------------------
             Standard Nuclear Orientation (Angstroms)
    I     Atom           X                Y                Z
 ----------------------------------------------------------------
    1      H      -0.0348278765    -0.2442097827     0.0636489606
    2      C      -1.0765972949    -0.5242748755    -0.0023551776
    3      H      -1.3132644670    -1.5767591607    -0.0757276926
    4      C      -2.0436341180     0.3926884087     0.0061254933
    5      H      -1.8137616575     1.4459188338     0.0804456828
    6      H      -3.0859772930     0.1149318580    -0.0693381042
 ----------------------------------------------------------------
 Nuclear Repulsion Energy =          33.42152970 hartrees
 There are        8 alpha and        8 beta electrons
 Requested basis set is cc-pVDZ
 There are 24 shells and 48 basis functions
 Total memory of 40000 MB is distributed as follows: 
   MEM_STATIC is set to 1024 MB
   QALLOC/CCMAN JOB total memory use is  38976 MB
 Warning: actual memory use might exceed 40000 MB

 Total QAlloc Memory Limit  40000 MB
 Mega-Array Size      1001 MB
 MEM_STATIC part      1024 MB

                       Distance Matrix (Angstroms)
             H (  1)   C (  2)   H (  3)   C (  4)   H (  5)
   C (  2)  1.080776
   H (  3)  1.851895  1.081258
   C (  4)  2.108139  1.332687  2.102109
   H (  5)  2.453859  2.105215  3.067812  1.080583
   H (  6)  3.075090  2.109663  2.450382  1.081352  1.847294

 A cutoff of  1.0D-11 yielded    300 shell pairs
 There are      1220 function pairs (      1329 Cartesian)
 Smallest overlap matrix eigenvalue = 4.80E-03

 Scale SEOQF with 1.000000e-01/1.000000e-01/1.000000e+00

 Standard Electronic Orientation quadrupole field applied
 Nucleus-field energy     =     0.0000000022 hartrees
 Guess from superposition of atomic densities
 Warning:  Energy on first SCF cycle will be non-variational
 SAD guess density has 16.000000 electrons
 A restricted Hartree-Fock SCF calculation will be
 performed using Pulay DIIS extrapolation
 SCF converges when DIIS error is below 1.0E-08
 using 10 threads for integral computing
 -------------------------------------------------------
 OpenMP Integral computing Module                
 Release: version 1.0, May 2013, Q-Chem Inc. Pittsburgh 
 -------------------------------------------------------
 ---------------------------------------
  Cycle       Energy         DIIS Error
 ---------------------------------------
    1     -78.4383817557      1.01E-01
    2     -78.0176878285      7.21E-03
    3     -78.0383182357      1.84E-03
    4     -78.0398011162      5.73E-04
    5     -78.0399227258      5.79E-05
    6     -78.0399246009      9.27E-06
    7     -78.0399246614      2.11E-06
    8     -78.0399246642      7.40E-07
    9     -78.0399246643      9.37E-08
   10     -78.0399246644      9.52E-09 Convergence criterion met
 ---------------------------------------
 SCF time:  CPU 1.37 s  wall 1.55 s
 SCF   energy in the final basis set = -78.03992466
 Total energy in the final basis set = -78.03992466
Exporting Density Matrix to file 'Densmat_SCF.txt'.
Export successful
================================================================================
|                                                                              |
|                                 A D C  M A N                                 |
|                                                                              |
 ------------------------------------------------------------------------------ 
|                                                                              |
| Components:                                                                  |
|                                                                              |
| - libvmm - 1.3-trunk                                                         |
|   Authors:                                                                   |
|   Evgeny Epifanovsky, Ilya Kaliman                                           |
|                                                                              |
| - libtensor - 2.5-trunk                                                      |
|   Authors:                                                                   |
|   Evgeny Epifanovsky, Michael Wormit, Dmitry Zuev, Sam Manzer,               |
|   Ilya Kaliman                                                               |
|                                                                              |
| - libwfa - 1.1-trunk                                                         |
|   Authors:                                                                   |
|   Felix Plasser, Stefanie Mewes (Baeppler), Benjamin Thomitzni,              |
|   Michael Wormit, Feng Chen, Anna I. Krylov, Pavel Pokhilko                  |
|                                                                              |
| - libadc - 1.1-trunk                                                         |
|   Authors:                                                                   |
|   Michael Wormit, Adrian L. Dempwolff, Philipp H. P. Harbach,                |
|   Caroline Krauter, Dirk Rehn, Matthias Schneider, Jan Wenzel                |
|                                                                              |
| - adcman - 2.6-trunk                                                         |
|   Authors:                                                                   |
|   Michael Wormit, Adrian L. Dempwolff, Philipp H. P. Harbach,                |
|   Caroline Krauter, Daniel Lefrancois, Jan-Michael Mewes, Dirk Rehn,         |
|   Matthias Schneider, Jan Wenzel, Andreas Dreuw                              |
|                                                                              |
| Authors of earlier versions of ADCMAN:                                       |
| Andreas Dreuw, Jan Hendrik Starcke, Dirk Rehn, Michael Wormit                |
|                                                                              |
================================================================================

 Created directory /scratch/fum/qchem22438/plots
  Import QC data ...  CPU 0.00 s  wall 0.00 s

 Alpha MOs, Restricted
 -- Occupied --                  
-11.235 -11.233  -1.032  -0.790  -0.641  -0.582  -0.505  -0.374
  1 A     2 A     3 A     4 A     5 A     6 A     7 A     8 A                  
 -- Virtual --                   
  0.168   0.204   0.233   0.239   0.303   0.462   0.577   0.615
  9 A    10 A    11 A    12 A    13 A    14 A    15 A    16 A                  
  0.689   0.709   0.784   0.808   0.862   0.936   0.972   1.010
 17 A    18 A    19 A    20 A    21 A    22 A    23 A    24 A                  
  1.130   1.235   1.254   1.266   1.293   1.601   1.726   1.750
 25 A    26 A    27 A    28 A    29 A    30 A    31 A    32 A                  
  1.819   1.859   1.867   1.921   1.977   1.978   2.221   2.257
 33 A    34 A    35 A    36 A    37 A    38 A    39 A    40 A                  
  2.376   2.454   2.506   2.633   2.721   2.821   3.140   3.398
 41 A    42 A    43 A    44 A    45 A    46 A    47 A    48 A                  

 Beta MOs, Restricted
 -- Occupied --                  
-11.235 -11.233  -1.032  -0.790  -0.641  -0.582  -0.505  -0.374
  1 A     2 A     3 A     4 A     5 A     6 A     7 A     8 A                  
 -- Virtual --                   
  0.168   0.204   0.233   0.239   0.303   0.462   0.577   0.615
  9 A    10 A    11 A    12 A    13 A    14 A    15 A    16 A                  
  0.689   0.709   0.784   0.808   0.862   0.936   0.972   1.010
 17 A    18 A    19 A    20 A    21 A    22 A    23 A    24 A                  
  1.130   1.235   1.254   1.266   1.293   1.601   1.726   1.750
 25 A    26 A    27 A    28 A    29 A    30 A    31 A    32 A                  
  1.819   1.859   1.867   1.921   1.977   1.978   2.221   2.257
 33 A    34 A    35 A    36 A    37 A    38 A    39 A    40 A                  
  2.376   2.454   2.506   2.633   2.721   2.821   3.140   3.398
 41 A    42 A    43 A    44 A    45 A    46 A    47 A    48 A                  
  Import AO data ...  CPU 0.00 s  wall 0.00 s
  Using point group: C1
  Irreducible representations in point group: A
  Molecular orbitals: 
  Occupied MOs:
  Block   0:   1 (  A) A   2 (  A) A   3 (  A) A   4 (  A) A   5 (  A) A
                  -11.24      -11.23      -1.032     -0.7897     -0.6411
               6 (  A) A   7 (  A) A   8 (  A) A
                 -0.5819     -0.5046      -0.374
  Block   1:   1 (  A) B   2 (  A) B   3 (  A) B   4 (  A) B   5 (  A) B
                  -11.24      -11.23      -1.032     -0.7897     -0.6411
               6 (  A) B   7 (  A) B   8 (  A) B
                 -0.5819     -0.5046      -0.374
  Virtual MOs:
  Block   0:   9 (  A) A  10 (  A) A  11 (  A) A  12 (  A) A  13 (  A) A
                  0.1684      0.2037      0.2329      0.2394      0.3033
              14 (  A) A  15 (  A) A  16 (  A) A  17 (  A) A  18 (  A) A
                   0.462      0.5775      0.6152      0.6891      0.7088
              19 (  A) A  20 (  A) A  21 (  A) A  22 (  A) A
                  0.7845       0.808      0.8622      0.9359
  Block   1:  23 (  A) A  24 (  A) A  25 (  A) A  26 (  A) A  27 (  A) A
                  0.9724        1.01        1.13       1.235       1.254
              28 (  A) A  29 (  A) A  30 (  A) A  31 (  A) A  32 (  A) A
                   1.266       1.293       1.601       1.726        1.75
              33 (  A) A  34 (  A) A  35 (  A) A  36 (  A) A
                   1.819       1.859       1.867       1.921
  Block   2:  37 (  A) A  38 (  A) A  39 (  A) A  40 (  A) A  41 (  A) A
                   1.977       1.978       2.221       2.257       2.376
              42 (  A) A  43 (  A) A  44 (  A) A  45 (  A) A  46 (  A) A
                   2.454       2.506       2.633       2.721       2.821
              47 (  A) A  48 (  A) A
                    3.14       3.398
  Block   3:   9 (  A) B  10 (  A) B  11 (  A) B  12 (  A) B  13 (  A) B
                  0.1684      0.2037      0.2329      0.2394      0.3033
              14 (  A) B  15 (  A) B  16 (  A) B  17 (  A) B  18 (  A) B
                   0.462      0.5775      0.6152      0.6891      0.7088
              19 (  A) B  20 (  A) B  21 (  A) B  22 (  A) B
                  0.7845       0.808      0.8622      0.9359
  Block   4:  23 (  A) B  24 (  A) B  25 (  A) B  26 (  A) B  27 (  A) B
                  0.9724        1.01        1.13       1.235       1.254
              28 (  A) B  29 (  A) B  30 (  A) B  31 (  A) B  32 (  A) B
                   1.266       1.293       1.601       1.726        1.75
              33 (  A) B  34 (  A) B  35 (  A) B  36 (  A) B
                   1.819       1.859       1.867       1.921
  Block   5:  37 (  A) B  38 (  A) B  39 (  A) B  40 (  A) B  41 (  A) B
                   1.977       1.978       2.221       2.257       2.376
              42 (  A) B  43 (  A) B  44 (  A) B  45 (  A) B  46 (  A) B
                   2.454       2.506       2.633       2.721       2.821
              47 (  A) B  48 (  A) B
                    3.14       3.398
  Import MO data ...  CPU 0.01 s  wall 0.00 s
  Import HF data ...  CPU 0.08 s  wall 0.03 s
  Import 2e integrals ...  CPU 0.70 s  wall 0.15 s

--------------------------------------------------------------------------------
                                   HF Summary                                   
--------------------------------------------------------------------------------
  Energy:                                                  -78.0399246644 a.u.
  Dip. moment [a.u.]:                  [  -0.000411,    0.000807,   -0.002266]
  Total dipole [Debye]:                                               0.006202
  <r^2> [a.u.]:                        [ 175.323498,   34.918746,   11.630226]
  Total <r^2> [a.u.]:                                               221.872470
--------------------------------------------------------------------------------
  HF properties ...  CPU 0.01 s  wall 0.01 s
  MP(1) calculation ...  CPU 0.01 s  wall 0.00 s
  N^6 prerequesite intermediates ...  CPU 0.52 s  wall 0.08 s
  Difference density matrix of state mp2_gs printed to ASCII file 'State_mp2_gs_Difference.txt'
Exporting MP density matrix to file 'Densmat_MP.txt'.
Export successful
  Total density matrix of state mp2_gs printed to ASCII file 'State_mp2_gs_Total.txt'
Exporting MP density matrix to file 'Densmat_MP.txt'.
Export successful

--------------------------------------------------------------------------------
                                 MP(2) Summary                                  
--------------------------------------------------------------------------------
  MP energy contribution:                                   -0.2797143249 a.u.
  Total energy:                                            -78.3196389892 a.u.
  Dip. moment [a.u.]:                  [  -0.000420,    0.000693,   -0.002244]
  Total dipole [Debye]:                                               0.006064
  <r^2> [a.u.]:                        [ 175.369921,   34.959312,   11.462092]
  Total <r^2> [a.u.]:                                               221.791325

  Density matrix analysis:
  ------------------------
  NOs
    Occupation of frontier NOs:
       0.0453   1.9383
    Number of electrons: 16.000000
    Number of unpaired electrons: n_u =  0.40347, n_u,nl =  0.04509
    NO participation ratio (PR_NO): 13.858059
  
  
  Mulliken Population Analysis
  Atom      Charge (e)              h+              e-           Del q
  --------------------------------------------------------------------
   1 H        0.050949        0.014033       -0.011202        0.002830
   2 C       -0.100685        0.093212       -0.098848       -0.005636
   3 H        0.050545        0.014075       -0.011191        0.002883
   4 C       -0.101707        0.093031       -0.098917       -0.005886
   5 H        0.050169        0.014117       -0.011187        0.002931
   6 H        0.050729        0.014072       -0.011195        0.002877
  --------------------------------------------------------------------
  Sum:        0.000000        0.242540       -0.242540       -0.000000
  
  Multipole moment analysis of the density matrix
    Molecular charge:                      0.000000
    Number of electrons:                   16.000000
      Center of electronic charge [Ang]: [ -1.560562,  -0.065625,   0.001427]
    Total nuclear charge:                  16.000000
      Center of nuclear charge [Ang]:    [ -1.560576,  -0.065602,   0.001353]
    Dipole moment [D]:                     0.006064
      Cartesian components [D]:          [ -0.001067,   0.001762,  -0.005703]
    RMS size of the density [Ang]:         1.200866
      Cartesian components [Ang]:        [  0.796198,   0.779451,   0.447889]
  
  Exciton analysis of the difference density matrix
    <r_h> [Ang]:                  [ -1.560562,  -0.065881,   0.001781]
    <r_e> [Ang]:                  [ -1.560542,  -0.065633,   0.001733]
    |<r_e - r_h>| [Ang]:            0.000254
    Hole size [Ang]:                1.393766
      Cartesian components [Ang]: [  0.846775,   0.834141,   0.727850]
    Electron size [Ang]:            1.359776
      Cartesian components [Ang]: [  0.877889,   0.861777,   0.579346]
--------------------------------------------------------------------------------
  MP(2) calculation ...  CPU 0.13 s  wall 0.11 s
  Start ADC(2)-s ...  CPU 0.01 s  wall 0.00 s
  ADC(2) intermediates ...  CPU 0.02 s  wall 0.01 s
  Starting Davidson for singlet states of irrep A ... 
--------------------------------------------------------------------------------
   It NVec Conv  Avg. Norm  Max. Norm  Conv. states           Remark
--------------------------------------------------------------------------------
        10    0  1.330e-01  4.687e-01  0.4119 n n n n n n n n Guess.
    1   20    0  2.304e-02  1.109e-01  0.3262 n n n n n n n n 
    2   30    0  5.868e-03  2.531e-02  0.3215 n n n n n n n n 
    3   40    0  2.014e-03  1.262e-02  0.3211 n n n n n n n n 
    4   50    0  5.536e-04  3.476e-03  0.3211 n n n n n n n n 
    5   20    0  2.625e-04  1.759e-03  0.3211 n n n n n n n n Subspace collapsed.
    6   30    0  1.511e-04  1.197e-03  0.3211 n n n n n n n n 
    7   40    0  1.240e-04  9.288e-04  0.3211 n n n n n n n n 
    8   50    0  1.237e-04  1.123e-03  0.3211 n n n n n n n n 
    9   20    1  6.541e-05  5.322e-04  0.3211 n y n n n n n n Subspace collapsed.
   10   30    3  5.291e-05  4.118e-04  0.3211 n y y y n n n n 
   11   40    4  2.901e-05  2.578e-04  0.3211 n y y y y n n n 
   12   50    5  3.371e-05  3.302e-04  0.3211 n y y y y y n n 
   13   20    6  1.978e-05  1.943e-04  0.3211 y y y y y y n n Subspace collapsed.
   14   30    6  2.387e-05  2.357e-04  0.3211 y y y y y y n n 
   15   40    6  2.241e-05  2.228e-04  0.3211 y y y y y y n n 
   16   50    6  2.657e-05  2.649e-04  0.3211 y y y y y y n n 
   17   20    6  1.170e-05  1.167e-04  0.3211 y y y y y y n n Subspace collapsed.
   18   30    6  1.185e-05  1.182e-04  0.3211 y y y y y y n n 
   19   40    6  7.168e-06  7.154e-05  0.3211 y y y y y y n n 
   20   50    7  8.587e-06  8.575e-05  0.3211 y y y y y y y n 
   21   20    8  4.395e-06  4.390e-05  0.3211 y y y y y y y y Subspace collapsed.
   22   30    8  7.100e-06  7.093e-05  0.3211 y y y y y y y y 
   23   40    8  5.885e-06  5.881e-05  0.3211 y y y y y y y y 
   24   42    8  5.714e-06  5.710e-05  0.3211 y y y y y y y y 
   25   49    8  6.297e-06  6.295e-05  0.3211 y y y y y y y y 
   26   50    8  6.286e-06  6.283e-05  0.3211 y y y y y y y y 
   27   16    9  3.185e-06  3.184e-05  0.3211 y y y y y y y y Subspace collapsed.
   28   22    9  3.595e-06  3.594e-05  0.3211 y y y y y y y y 
   29   28    9  1.718e-06  1.718e-05  0.3211 y y y y y y y y 
   30   34    9  2.339e-06  2.338e-05  0.3211 y y y y y y y y 
   31   39    9  2.609e-06  2.609e-05  0.3211 y y y y y y y y 
   32   39    9  2.609e-06  2.609e-05  0.3211 y y y y y y y y 
   33   49    9  2.101e-06  2.101e-05  0.3211 y y y y y y y y 
   34   49    9  2.101e-06  2.101e-05  0.3211 y y y y y y y y 
   35   49    9  2.101e-06  2.101e-05  0.3211 y y y y y y y y 
   36   50    9  2.101e-06  2.101e-05  0.3211 y y y y y y y y 
   37   15    9  8.235e-07  8.235e-06  0.3211 y y y y y y y y Subspace collapsed.
   38   19    9  5.801e-07  5.801e-06  0.3211 y y y y y y y y 
   39   23    9  3.955e-07  3.955e-06  0.3211 y y y y y y y y 
   40   27    9  3.923e-07  3.923e-06  0.3211 y y y y y y y y 
   41   31    9  3.358e-07  3.358e-06  0.3211 y y y y y y y y 
   42   35    9  3.357e-07  3.357e-06  0.3211 y y y y y y y y 
   43   39    9  3.278e-07  3.278e-06  0.3211 y y y y y y y y 
   44   43    9  2.107e-07  2.107e-06  0.3211 y y y y y y y y 
   45   47    9  1.145e-07  1.145e-06  0.3211 y y y y y y y y 
   46   50   10  6.501e-08  6.501e-07  0.3211 y y y y y y y y Converged.
--------------------------------------------------------------------------------
  Davidson Summary: 
 ------------------------------------------------------------
  State  0: excitation energy =   0.3211 a.u.   (converged)
  State  1: excitation energy =   0.3327 a.u.   (converged)
  State  2: excitation energy =   0.3370 a.u.   (converged)
  State  3: excitation energy =   0.3613 a.u.   (converged)
  State  4: excitation energy =   0.3753 a.u.   (converged)
  State  5: excitation energy =   0.3872 a.u.   (converged)
  State  6: excitation energy =   0.4247 a.u.   (converged)
  State  7: excitation energy =   0.4471 a.u.   (converged)
  State  8: excitation energy =   0.4563 a.u.   (converged)
  State  9: excitation energy =   0.4647 a.u.   (converged)
 ------------------------------------------------------------

  Singlet states of irrep A ...  CPU 106.24 s  wall 36.25 s
  TDMs ...  CPU 0.66 s  wall 0.27 s
  SDMs ...  CPU 1.47 s  wall 0.52 s
  Starting TPA DIIS iterations ... 
------------------------------------ 
   It     Res. Norm  Remark
------------------------------------
                       Guess.
    1     4.406e+00  
    2     5.841e+00  
    3     1.077e+00  
    4     2.568e-01  
    5     6.574e-02  
    6     2.677e-02  
    7     8.239e-03  
    8     1.448e-03  
    9     5.357e-04  
   10     9.383e-05  
   11     2.914e-05  
   12     6.594e-06  
   13     2.263e-06  
   14     1.401e-06  
   15     2.639e-07  Converged.
   ... Converged in 15 steps (norm: 2.63893e-07)
------------------------------------
  Starting TPA DIIS iterations ... 
------------------------------------ 
   It     Res. Norm  Remark
------------------------------------
                       Guess.
    1     4.183e+00  
    2     5.539e+00  
    3     1.029e+00  
    4     2.555e-01  
    5     6.534e-02  
    6     2.671e-02  
    7     8.114e-03  
    8     1.454e-03  
    9     5.359e-04  
   10     9.202e-05  
   11     2.893e-05  
   12     5.898e-06  
   13     2.270e-06  
   14     1.154e-06  
   15     2.607e-07  Converged.
   ... Converged in 15 steps (norm: 2.60693e-07)
------------------------------------
  Starting TPA DIIS iterations ... 
------------------------------------ 
   It     Res. Norm  Remark
------------------------------------
                       Guess.
    1     6.887e-01  
    2     4.849e-01  
    3     1.712e-01  
    4     7.237e-02  
    5     1.806e-02  
    6     6.434e-03  
    7     1.041e-03  
    8     4.490e-04  
    9     1.240e-04  
   10     2.996e-05  
   11     5.100e-06  
   12     1.659e-06  
   13     9.905e-07  Converged.
   ... Converged in 13 steps (norm: 9.90532e-07)
------------------------------------
  Starting TPA DIIS iterations ... 
------------------------------------ 
   It     Res. Norm  Remark
------------------------------------
                       Guess.
    1     4.694e+00  
    2     6.358e+00  
    3     1.158e+00  
    4     2.855e-01  
    5     7.409e-02  
    6     3.043e-02  
    7     9.346e-03  
    8     1.641e-03  
    9     6.116e-04  
   10     1.081e-04  
   11     3.398e-05  
   12     8.041e-06  
   13     2.806e-06  
   14     1.784e-06  
   15     3.281e-07  Converged.
   ... Converged in 15 steps (norm: 3.28061e-07)
------------------------------------
  Starting TPA DIIS iterations ... 
------------------------------------ 
   It     Res. Norm  Remark
------------------------------------
                       Guess.
    1     4.456e+00  
    2     6.029e+00  
    3     1.106e+00  
    4     2.837e-01  
    5     7.364e-02  
    6     3.039e-02  
    7     9.207e-03  
    8     1.648e-03  
    9     6.114e-04  
   10     1.059e-04  
   11     3.361e-05  
   12     7.124e-06  
   13     2.774e-06  
   14     1.447e-06  
   15     3.124e-07  Converged.
   ... Converged in 15 steps (norm: 3.12377e-07)
------------------------------------
  Starting TPA DIIS iterations ... 
------------------------------------ 
   It     Res. Norm  Remark
------------------------------------
                       Guess.
    1     7.008e-01  
    2     5.026e-01  
    3     1.812e-01  
    4     8.209e-02  
    5     1.942e-02  
    6     7.061e-03  
    7     1.176e-03  
    8     5.295e-04  
    9     1.500e-04  
   10     3.438e-05  
   11     5.785e-06  
   12     1.954e-06  
   13     1.233e-06  
   14     3.983e-07  Converged.
   ... Converged in 14 steps (norm: 3.98294e-07)
------------------------------------
  Starting TPA DIIS iterations ... 
------------------------------------ 
   It     Res. Norm  Remark
------------------------------------
                       Guess.
    1     4.806e+00  
    2     6.562e+00  
    3     1.190e+00  
    4     2.970e-01  
    5     7.744e-02  
    6     3.190e-02  
    7     9.792e-03  
    8     1.719e-03  
    9     6.423e-04  
   10     1.140e-04  
   11     3.597e-05  
   12     8.657e-06  
   13     3.043e-06  
   14     1.951e-06  
   15     3.560e-07  Converged.
   ... Converged in 15 steps (norm: 3.55955e-07)
------------------------------------
  Starting TPA DIIS iterations ... 
------------------------------------ 
   It     Res. Norm  Remark
------------------------------------
                       Guess.
    1     4.562e+00  
    2     6.222e+00  
    3     1.136e+00  
    4     2.951e-01  
    5     7.698e-02  
    6     3.187e-02  
    7     9.647e-03  
    8     1.726e-03  
    9     6.419e-04  
   10     1.115e-04  
   11     3.552e-05  
   12     7.643e-06  
   13     2.988e-06  
   14     1.574e-06  
   15     3.339e-07  Converged.
   ... Converged in 15 steps (norm: 3.33915e-07)
------------------------------------
  Starting TPA DIIS iterations ... 
------------------------------------ 
   It     Res. Norm  Remark
------------------------------------
                       Guess.
    1     7.054e-01  
    2     5.093e-01  
    3     1.851e-01  
    4     8.604e-02  
    5     1.995e-02  
    6     7.314e-03  
    7     1.231e-03  
    8     5.629e-04  
    9     1.608e-04  
   10     3.583e-05  
   11     6.055e-06  
   12     2.077e-06  
   13     1.336e-06  
   14     4.282e-07  Converged.
   ... Converged in 14 steps (norm: 4.28247e-07)
------------------------------------
  Starting TPA DIIS iterations ... 
------------------------------------ 
   It     Res. Norm  Remark
------------------------------------
                       Guess.
    1     5.546e+00  
    2     7.942e+00  
    3     1.397e+00  
    4     3.771e-01  
    5     1.008e-01  
    6     4.229e-02  
    7     1.290e-02  
    8     2.258e-03  
    9     8.584e-04  
   10     1.555e-04  
   11     5.056e-05  
   12     1.350e-05  
   13     4.992e-06  
   14     3.324e-06  
   15     5.854e-07  Converged.
   ... Converged in 15 steps (norm: 5.85415e-07)
------------------------------------
  Starting TPA DIIS iterations ... 
------------------------------------ 
   It     Res. Norm  Remark
------------------------------------
                       Guess.
    1     5.262e+00  
    2     7.530e+00  
    3     1.334e+00  
    4     3.740e-01  
    5     1.002e-01  
    6     4.231e-02  
    7     1.271e-02  
    8     2.267e-03  
    9     8.561e-04  
   10     1.514e-04  
   11     4.936e-05  
   12     1.166e-05  
   13     4.649e-06  
   14     2.601e-06  
   15     4.984e-07  Converged.
   ... Converged in 15 steps (norm: 4.98438e-07)
------------------------------------
  Starting TPA DIIS iterations ... 
------------------------------------ 
   It     Res. Norm  Remark
------------------------------------
                       Guess.
    1     7.325e-01  
    2     5.515e-01  
    3     2.098e-01  
    4     1.139e-01  
    5     2.350e-02  
    6     9.076e-03  
    7     1.632e-03  
    8     8.018e-04  
    9     2.364e-04  
   10     4.166e-05  
   11     7.907e-06  
   12     2.972e-06  
   13     2.142e-06  
   14     6.571e-07  Converged.
   ... Converged in 14 steps (norm: 6.57057e-07)
------------------------------------
  Starting TPA DIIS iterations ... 
------------------------------------ 
   It     Res. Norm  Remark
------------------------------------
                       Guess.
    1     6.056e+00  
    2     8.927e+00  
    3     1.540e+00  
    4     4.366e-01  
    5     1.181e-01  
    6     5.009e-02  
    7     1.520e-02  
    8     2.657e-03  
    9     1.021e-03  
   10     1.873e-04  
   11     6.215e-05  
   12     1.771e-05  
   13     6.798e-06  
   14     4.580e-06  
   15     7.970e-07  Converged.
   ... Converged in 15 steps (norm: 7.97038e-07)
------------------------------------
  Starting TPA DIIS iterations ... 
------------------------------------ 
   It     Res. Norm  Remark
------------------------------------
                       Guess.
    1     5.745e+00  
    2     8.464e+00  
    3     1.469e+00  
    4     4.325e-01  
    5     1.175e-01  
    6     5.015e-02  
    7     1.499e-02  
    8     2.667e-03  
    9     1.017e-03  
   10     1.817e-04  
   11     6.011e-05  
   12     1.507e-05  
   13     6.061e-06  
   14     3.527e-06  
   15     6.405e-07  Converged.
   ... Converged in 15 steps (norm: 6.40535e-07)
------------------------------------
  Starting TPA DIIS iterations ... 
------------------------------------ 
   It     Res. Norm  Remark
------------------------------------
                       Guess.
    1     7.491e-01  
    2     5.787e-01  
    3     2.264e-01  
    4     1.348e-01  
    5     2.604e-02  
    6     1.039e-02  
    7     1.945e-03  
    8     9.748e-04  
    9     2.902e-04  
   10     4.301e-05  
   11     9.292e-06  
   12     3.665e-06  
   13     2.814e-06  
   14     8.474e-07  Converged.
   ... Converged in 14 steps (norm: 8.47384e-07)
------------------------------------
  Starting TPA DIIS iterations ... 
------------------------------------ 
   It     Res. Norm  Remark
------------------------------------
                       Guess.
    1     6.556e+00  
    2     9.917e+00  
    3     1.678e+00  
    4     4.978e-01  
    5     1.359e-01  
    6     5.818e-02  
    7     1.757e-02  
    8     3.068e-03  
    9     1.190e-03  
   10     2.208e-04  
   11     7.467e-05  
   12     2.256e-05  
   13     8.999e-06  
   14     6.079e-06  
   15     1.054e-06  
   16     8.203e-07  Converged.
   ... Converged in 16 steps (norm: 8.20339e-07)
------------------------------------
  Starting TPA DIIS iterations ... 
------------------------------------ 
   It     Res. Norm  Remark
------------------------------------
                       Guess.
    1     6.219e+00  
    2     9.401e+00  
    3     1.601e+00  
    4     4.926e-01  
    5     1.352e-01  
    6     5.831e-02  
    7     1.733e-02  
    8     3.077e-03  
    9     1.183e-03  
   10     2.135e-04  
   11     7.152e-05  
   12     1.896e-05  
   13     7.656e-06  
   14     4.629e-06  
   15     8.083e-07  Converged.
   ... Converged in 15 steps (norm: 8.08333e-07)
------------------------------------
  Starting TPA DIIS iterations ... 
------------------------------------ 
   It     Res. Norm  Remark
------------------------------------
                       Guess.
    1     7.638e-01  
    2     6.041e-01  
    3     2.422e-01  
    4     1.563e-01  
    5     2.861e-02  
    6     1.175e-02  
    7     2.281e-03  
    8     1.139e-03  
    9     3.418e-04  
   10     4.360e-05  
   11     1.075e-05  
   12     4.388e-06  
   13     3.555e-06  
   14     1.060e-06  
   15     3.577e-07  Converged.
   ... Converged in 15 steps (norm: 3.57684e-07)
------------------------------------
  Starting TPA DIIS iterations ... 
------------------------------------ 
   It     Res. Norm  Remark
------------------------------------
                       Guess.
    1     8.661e+00  
    2     1.432e+01  
    3     2.251e+00  
    4     7.829e-01  
    5     2.190e-01  
    6     9.672e-02  
    7     2.864e-02  
    8     4.985e-03  
    9     2.000e-03  
   10     3.863e-04  
   11     1.400e-04  
   12     5.187e-05  
   13     2.425e-05  
   14     1.578e-05  
   15     2.875e-06  
   16     1.846e-06  
   17     4.285e-07  Converged.
   ... Converged in 17 steps (norm: 4.2848e-07)
------------------------------------
  Starting TPA DIIS iterations ... 
------------------------------------ 
   It     Res. Norm  Remark
------------------------------------
                       Guess.
    1     8.212e+00  
    2     1.358e+01  
    3     2.145e+00  
    4     7.716e-01  
    5     2.181e-01  
    6     9.717e-02  
    7     2.827e-02  
    8     4.982e-03  
    9     1.970e-03  
   10     3.676e-04  
   11     1.280e-04  
   12     4.192e-05  
   13     1.676e-05  
   14     1.191e-05  
   15     1.888e-06  
   16     1.677e-06  
   17     3.442e-07  Converged.
   ... Converged in 17 steps (norm: 3.44192e-07)
------------------------------------
  Starting TPA DIIS iterations ... 
------------------------------------ 
   It     Res. Norm  Remark
------------------------------------
                       Guess.
    1     8.149e-01  
    2     7.010e-01  
    3     3.051e-01  
    4     2.512e-01  
    5     4.019e-02  
    6     1.800e-02  
    7     3.959e-03  
    8     1.665e-03  
    9     5.407e-04  
   10     5.251e-05  
   11     1.813e-05  
   12     7.744e-06  
   13     7.404e-06  
   14     2.254e-06  
   15     7.901e-07  Converged.
   ... Converged in 15 steps (norm: 7.901e-07)
------------------------------------
  Starting TPA DIIS iterations ... 
------------------------------------ 
   It     Res. Norm  Remark
------------------------------------
                       Guess.
    1     1.049e+01  
    2     1.842e+01  
    3     2.734e+00  
    4     1.058e+00  
    5     2.999e-01  
    6     1.351e-01  
    7     3.942e-02  
    8     6.858e-03  
    9     2.815e-03  
   10     5.596e-04  
   11     2.131e-04  
   12     9.019e-05  
   13     4.728e-05  
   14     2.918e-05  
   15     5.715e-06  
   16     3.021e-06  
   17     7.576e-07  Converged.
   ... Converged in 17 steps (norm: 7.57579e-07)
------------------------------------
  Starting TPA DIIS iterations ... 
------------------------------------ 
   It     Res. Norm  Remark
------------------------------------
                       Guess.
    1     9.941e+00  
    2     1.746e+01  
    3     2.605e+00  
    4     1.040e+00  
    5     2.988e-01  
    6     1.360e-01  
    7     3.891e-02  
    8     6.825e-03  
    9     2.750e-03  
   10     5.254e-04  
   11     1.866e-04  
   12     7.149e-05  
   13     2.828e-05  
   14     2.259e-05  
   15     3.391e-06  
   16     3.109e-06  
   17     5.854e-07  Converged.
   ... Converged in 17 steps (norm: 5.85351e-07)
------------------------------------
  Starting TPA DIIS iterations ... 
------------------------------------ 
   It     Res. Norm  Remark
------------------------------------
                       Guess.
    1     8.495e-01  
    2     7.756e-01  
    3     3.559e-01  
    4     3.300e-01  
    5     5.100e-02  
    6     2.372e-02  
    7     5.658e-03  
    8     1.882e-03  
    9     6.937e-04  
   10     7.060e-05  
   11     2.597e-05  
   12     1.092e-05  
   13     1.152e-05  
   14     3.719e-06  
   15     1.541e-06  
   16     1.177e-06  
   17     5.455e-07  Converged.
   ... Converged in 17 steps (norm: 5.4554e-07)
------------------------------------
  Starting TPA DIIS iterations ... 
------------------------------------ 
   It     Res. Norm  Remark
------------------------------------
                       Guess.
    1     1.143e+01  
    2     2.062e+01  
    3     2.979e+00  
    4     1.207e+00  
    5     3.441e-01  
    6     1.564e-01  
    7     4.531e-02  
    8     7.886e-03  
    9     3.271e-03  
   10     6.588e-04  
   11     2.569e-04  
   12     1.149e-04  
   13     6.294e-05  
   14     3.789e-05  
   15     7.608e-06  
   16     3.735e-06  
   17     9.367e-07  Converged.
   ... Converged in 17 steps (norm: 9.36682e-07)
------------------------------------
  Starting TPA DIIS iterations ... 
------------------------------------ 
   It     Res. Norm  Remark
------------------------------------
                       Guess.
    1     1.083e+01  
    2     1.955e+01  
    3     2.837e+00  
    4     1.185e+00  
    5     3.430e-01  
    6     1.575e-01  
    7     4.473e-02  
    8     7.830e-03  
    9     3.181e-03  
   10     6.145e-04  
   11     2.200e-04  
   12     9.052e-05  
   13     3.592e-05  
   14     2.987e-05  
   15     4.467e-06  
   16     4.029e-06  
   17     7.502e-07  Converged.
   ... Converged in 17 steps (norm: 7.50183e-07)
------------------------------------
  Starting TPA DIIS iterations ... 
------------------------------------ 
   It     Res. Norm  Remark
------------------------------------
                       Guess.
    1     8.650e-01  
    2     8.117e-01  
    3     3.808e-01  
    4     3.668e-01  
    5     5.675e-02  
    6     2.661e-02  
    7     6.583e-03  
    8     1.941e-03  
    9     7.681e-04  
   10     8.156e-05  
   11     3.045e-05  
   12     1.267e-05  
   13     1.396e-05  
   14     4.643e-06  
   15     2.120e-06  
   16     1.552e-06  
   17     7.485e-07  Converged.
   ... Converged in 17 steps (norm: 7.48493e-07)
------------------------------------
  Starting TPA DIIS iterations ... 
------------------------------------ 
   It     Res. Norm  Remark
------------------------------------
                       Guess.
    1     1.239e+01  
    2     2.295e+01  
    3     3.227e+00  
    4     1.365e+00  
    5     3.915e-01  
    6     1.794e-01  
    7     5.162e-02  
    8     8.989e-03  
    9     3.766e-03  
   10     7.680e-04  
   11     3.069e-04  
   12     1.440e-04  
   13     8.157e-05  
   14     4.807e-05  
   15     9.818e-06  
   16     4.607e-06  
   17     1.127e-06  
   18     4.564e-07  Converged.
   ... Converged in 18 steps (norm: 4.56417e-07)
------------------------------------
  Starting TPA DIIS iterations ... 
------------------------------------ 
   It     Res. Norm  Remark
------------------------------------
                       Guess.
    1     1.175e+01  
    2     2.175e+01  
    3     3.073e+00  
    4     1.338e+00  
    5     3.902e-01  
    6     1.807e-01  
    7     5.095e-02  
    8     8.903e-03  
    9     3.645e-03  
   10     7.116e-04  
   11     2.570e-04  
   12     1.130e-04  
   13     4.537e-05  
   14     3.865e-05  
   15     5.862e-06  
   16     5.141e-06  
   17     9.534e-07  Converged.
   ... Converged in 17 steps (norm: 9.53351e-07)
------------------------------------
  Starting TPA DIIS iterations ... 
------------------------------------ 
   It     Res. Norm  Remark
------------------------------------
                       Guess.
    1     8.796e-01  
    2     8.475e-01  
    3     4.058e-01  
    4     4.014e-01  
    5     6.278e-02  
    6     2.949e-02  
    7     7.559e-03  
    8     1.984e-03  
    9     8.426e-04  
   10     9.329e-05  
   11     3.536e-05  
   12     1.461e-05  
   13     1.677e-05  
   14     5.728e-06  
   15     2.869e-06  
   16     1.996e-06  
   17     9.915e-07  Converged.
   ... Converged in 17 steps (norm: 9.9146e-07)
------------------------------------
  Two-photon absorbption ...  CPU 71.85 s  wall 18.49 s
  Transition density matrix of state singlet_A_1 printed to ASCII file 'State_singlet_A_1_Transition.txt'
  Transition density matrix of state singlet_A_2 printed to ASCII file 'State_singlet_A_2_Transition.txt'
  Transition density matrix of state singlet_A_3 printed to ASCII file 'State_singlet_A_3_Transition.txt'
  Transition density matrix of state singlet_A_4 printed to ASCII file 'State_singlet_A_4_Transition.txt'
  Transition density matrix of state singlet_A_5 printed to ASCII file 'State_singlet_A_5_Transition.txt'
  Transition density matrix of state singlet_A_6 printed to ASCII file 'State_singlet_A_6_Transition.txt'
  Transition density matrix of state singlet_A_7 printed to ASCII file 'State_singlet_A_7_Transition.txt'
  Transition density matrix of state singlet_A_8 printed to ASCII file 'State_singlet_A_8_Transition.txt'
  Transition density matrix of state singlet_A_9 printed to ASCII file 'State_singlet_A_9_Transition.txt'
  Transition density matrix of state singlet_A_10 printed to ASCII file 'State_singlet_A_10_Transition.txt'
  Transition properties ...  CPU 0.16 s  wall 0.39 s
  Difference density matrix of state singlet_A_1 printed to ASCII file 'State_singlet_A_1_Difference.txt'
  Total density matrix of state singlet_A_1 printed to ASCII file 'State_singlet_A_1_Total.txt'
  Difference density matrix of state singlet_A_2 printed to ASCII file 'State_singlet_A_2_Difference.txt'
  Total density matrix of state singlet_A_2 printed to ASCII file 'State_singlet_A_2_Total.txt'
  Difference density matrix of state singlet_A_3 printed to ASCII file 'State_singlet_A_3_Difference.txt'
  Total density matrix of state singlet_A_3 printed to ASCII file 'State_singlet_A_3_Total.txt'
  Difference density matrix of state singlet_A_4 printed to ASCII file 'State_singlet_A_4_Difference.txt'
  Total density matrix of state singlet_A_4 printed to ASCII file 'State_singlet_A_4_Total.txt'
  Difference density matrix of state singlet_A_5 printed to ASCII file 'State_singlet_A_5_Difference.txt'
  Total density matrix of state singlet_A_5 printed to ASCII file 'State_singlet_A_5_Total.txt'
  Difference density matrix of state singlet_A_6 printed to ASCII file 'State_singlet_A_6_Difference.txt'
  Total density matrix of state singlet_A_6 printed to ASCII file 'State_singlet_A_6_Total.txt'
  Difference density matrix of state singlet_A_7 printed to ASCII file 'State_singlet_A_7_Difference.txt'
  Total density matrix of state singlet_A_7 printed to ASCII file 'State_singlet_A_7_Total.txt'
  Difference density matrix of state singlet_A_8 printed to ASCII file 'State_singlet_A_8_Difference.txt'
  Total density matrix of state singlet_A_8 printed to ASCII file 'State_singlet_A_8_Total.txt'
  Difference density matrix of state singlet_A_9 printed to ASCII file 'State_singlet_A_9_Difference.txt'
  Total density matrix of state singlet_A_9 printed to ASCII file 'State_singlet_A_9_Total.txt'
  Difference density matrix of state singlet_A_10 printed to ASCII file 'State_singlet_A_10_Difference.txt'
  Total density matrix of state singlet_A_10 printed to ASCII file 'State_singlet_A_10_Total.txt'
  Properties ...  CPU 0.30 s  wall 0.57 s
  ISR TDMS ...  CPU 8.89 s  wall 3.17 s
  ISR transition properties ...  CPU 0.17 s  wall 0.08 s
  Sum-over-states TPA ...  CPU 0.00 s  wall 0.00 s

--------------------------------------------------------------------------------
                   State-averaged natural transition orbitals
--------------------------------------------------------------------------------
--------------------------------------------------------------------------------
  SA-NTO decomposition ...  CPU 0.01 s  wall 0.02 s

--------------------------------------------------------------------------------
                             Excited State Summary
--------------------------------------------------------------------------------
--------------------------------------------------------------------------------

  Excited state 1 (singlet, A)                                     [converged]
  ----------------------------------------------------------------------------
  Term symbol:  2 (1) A                                     R^2 =  2.75718e-14

  Total energy:                                            -77.9985792402 a.u.
  Excitation energy:                                               8.736480 eV

  Osc. strength:                                                      0.444785
  Trans. dip. moment [a.u.]:           [  -1.044721,    0.993231,    0.009817]
  <i|r^2|0> [a.u.]:                    [  -6.164565,    0.245029,    0.005922]
  Two-photon absorption cross-section (SoS) [a.u.]:                   0.000450
  Two-photon absorption matrix (SoS) [a.u.]:
                                       |   -0.005390    0.000777   -0.001489 |
                                       |    0.000777   -0.001750    0.001344 |
                                       |   -0.001489    0.001344   -0.003628 |
  Two-photon absorption cross-section [a.u.]:                         0.007466
  Two-photon absorption matrix [a.u.]:
                                       |    0.002056    0.004334   -0.023617 |
                                       |    0.004334    0.007687   -0.017282 |
                                       |   -0.023617   -0.017282   -0.006994 |

  Dip. moment [a.u.]:                  [  -0.000276,    0.000559,   -0.002758]
  Total dipole [Debye]:                                               0.007187
  <r^2> [a.u.]:                        [ 176.120933,   35.646444,   11.874359]
  Total <r^2> [a.u.]:                                               223.641737

  V1^2 = 0.9714, V2^2 = 0.0286

  Important amplitudes:
      occ i     occ j     vir a      vir b          v   
    -----------------------------------------------------
     8 (A) A              9 (A) A                 0.6806
     6 (A) A             14 (A) A                 0.0622
     4 (A) A             10 (A) A                 0.0606
     7 (A) A             16 (A) A                -0.0569
     5 (A) A             13 (A) A                 0.0513
     6 (A) A             23 (A) A                 0.0486
     8 (A) A             20 (A) A                 0.0349
     6 (A) A             19 (A) A                 0.0308
     3 (A) A             12 (A) A                -0.0281
     7 (A) A              9 (A) A                -0.0249
     5 (A) A             22 (A) A                -0.0215
     7 (A) A             11 (A) A                -0.0209
     4 (A) A             24 (A) A                 0.0187
     3 (A) A             26 (A) A                 0.0185
     8 (A) A   8 (A) B   17 (A) A   20 (A) B     -0.0184
     8 (A) A   8 (A) B    9 (A) A   28 (A) B      0.0166
     6 (A) A             26 (A) A                 0.0163
     7 (A) A             21 (A) A                -0.0148
     3 (A) A             14 (A) A                 0.0139
     6 (A) A             12 (A) A                 0.0132
     3 (A) A   4 (A) B    9 (A) A    9 (A) B     -0.0129
     3 (A) A             19 (A) A                 0.0119
     8 (A) A   8 (A) B   18 (A) A   19 (A) B     -0.0113
     7 (A) A             32 (A) A                -0.0096
     7 (A) A             36 (A) A                -0.0086
     3 (A) A             23 (A) A                 0.0080
     8 (A) A   8 (A) B   25 (A) A   29 (A) B     -0.0076
     6 (A) A             35 (A) A                 0.0072
     6 (A) A             40 (A) A                 0.0068
     3 (A) A   6 (A) B    9 (A) A   28 (A) B      0.0064
     6 (A) A   8 (A) A   19 (A) A   28 (A) A     -0.0060
     5 (A) A   7 (A) B    9 (A) A    9 (A) B      0.0060
     5 (A) A   8 (A) B   11 (A) A   20 (A) B     -0.0059
     7 (A) A   8 (A) B   13 (A) A   20 (A) B      0.0059
     5 (A) A   8 (A) B   16 (A) A    9 (A) B     -0.0059
     5 (A) A   8 (A) B   11 (A) A    9 (A) B      0.0059
     3 (A) A   5 (A) B    9 (A) A   25 (A) B     -0.0058
     3 (A) A             40 (A) A                 0.0057
     7 (A) A   8 (A) B   22 (A) A   20 (A) B     -0.0057
     6 (A) A   8 (A) A    9 (A) A   18 (A) A     -0.0057
    -----------------------------------------------------

  Density matrix analysis:
  ------------------------
  NOs
    Occupation of frontier NOs:
       0.9496   1.0216
    Number of electrons: 16.000000
    Number of unpaired electrons: n_u =  2.31349, n_u,nl =  2.03265
    NO participation ratio (PR_NO):  2.863806
  
  
  Mulliken Population Analysis
  Atom      Charge (e)              h+              e-           Del q
  --------------------------------------------------------------------
   1 H        0.058890        0.020473       -0.012533        0.007941
   2 C       -0.116254        0.490460       -0.506029       -0.015569
   3 H        0.058280        0.020324       -0.012590        0.007734
   4 C       -0.117601        0.490312       -0.506206       -0.015894
   5 H        0.057988        0.020382       -0.012562        0.007820
   6 H        0.058697        0.020483       -0.012515        0.007968
  --------------------------------------------------------------------
  Sum:        0.000000        1.062434       -1.062434       -0.000000
  
  Multipole moment analysis of the density matrix
    Molecular charge:                      0.000000
    Number of electrons:                   16.000000
      Center of electronic charge [Ang]: [ -1.560567,  -0.065621,   0.001444]
    Total nuclear charge:                  16.000000
      Center of nuclear charge [Ang]:    [ -1.560576,  -0.065602,   0.001353]
    Dipole moment [D]:                     0.007187
      Cartesian components [D]:          [ -0.000702,   0.001422,  -0.007010]
    RMS size of the density [Ang]:         1.214270
      Cartesian components [Ang]:        [  0.804401,   0.787128,   0.455873]
  
  Exciton analysis of the difference density matrix
    <r_h> [Ang]:                  [ -1.560268,  -0.065813,   0.002567]
    <r_e> [Ang]:                  [ -1.560339,  -0.065746,   0.002823]
    |<r_e - r_h>| [Ang]:            0.000274
    Hole size [Ang]:                1.285825
      Cartesian components [Ang]: [  0.729181,   0.713176,   0.782956]
    Electron size [Ang]:            1.463164
      Cartesian components [Ang]: [  0.854065,   0.830505,   0.849519]

  Transition density matrix analysis:
  -----------------------------------
  
  CT numbers (Mulliken)
    omega =     0.9535
    <Phe> =    -0.1605
  
  Exciton analysis of the transition density matrix
    Trans. dipole moment [D]:             1.832018
      Cartesian components [D]:         [ -1.327708,   1.262271,   0.012476]
    <r_h> [Ang]:                        [ -1.560106,  -0.065923,   0.002385]
    <r_e> [Ang]:                        [ -1.560382,  -0.065759,   0.003007]
    |<r_e - r_h>| [Ang]:                  0.000700
    Hole size [Ang]:                      1.214735
      Cartesian components [Ang]:       [  0.650629,   0.637253,   0.803848]
    Electron size [Ang]:                  1.485940
      Cartesian components [Ang]:       [  0.864489,   0.839355,   0.869574]
    RMS electron-hole separation [Ang]:   1.936937
      Cartesian components [Ang]:       [  1.107328,   1.075507,   1.169972]
    Covariance(r_h, r_e) [Ang^2]:        -0.034063
    Correlation coefficient:             -0.018871
    Center-of-mass size [Ang]:            0.950720
      Cartesian components [Ang]:       [  0.528002,   0.515873,   0.599130]

  Decomposition into state-averaged NTOs
    H- 0 -> L+ 0: -0.6695 ( 89.6%)
    H- 2 -> L+ 5:  0.0836 (  1.4%)
                   omega =  95.3%
  ----------------------------------------------------------------------------


  Excited state 2 (singlet, A)                                     [converged]
  ----------------------------------------------------------------------------
  Term symbol:  3 (1) A                                     R^2 =  1.13325e-13

  Total energy:                                            -77.9868963881 a.u.
  Excitation energy:                                               9.054387 eV

  Osc. strength:                                                      0.000777
  Trans. dip. moment [a.u.]:           [   0.043683,   -0.039780,    0.003469]
  <i|r^2|0> [a.u.]:                    [   0.194640,   -0.102552,    0.155640]
  Two-photon absorption cross-section (SoS) [a.u.]:                   4.912740
  Two-photon absorption matrix (SoS) [a.u.]:
                                       |   -0.047597   -0.060672    0.542609 |
                                       |   -0.060672   -0.073367    0.551965 |
                                       |    0.542609    0.551965    0.122446 |
  Two-photon absorption cross-section [a.u.]:                         0.078422
  Two-photon absorption matrix [a.u.]:
                                       |    0.026995    0.008105   -0.057488 |
                                       |    0.008105   -0.011663   -0.076740 |
                                       |   -0.057488   -0.076740   -0.014889 |

  Dip. moment [a.u.]:                  [  -0.002480,    0.011503,   -0.004591]
  Total dipole [Debye]:                                               0.032104
  <r^2> [a.u.]:                        [ 174.534127,   33.979197,   13.172922]
  Total <r^2> [a.u.]:                                               221.686246

  V1^2 = 0.9542, V2^2 = 0.0458

  Important amplitudes:
      occ i     occ j     vir a      vir b          v   
    -----------------------------------------------------
     7 (A) A              9 (A) A                -0.6687
     8 (A) A             11 (A) A                 0.1485
     7 (A) A             20 (A) A                -0.0758
     5 (A) A   8 (A) B    9 (A) A    9 (A) B     -0.0316
     8 (A) A             16 (A) A                -0.0274
     8 (A) A              9 (A) A                -0.0244
     8 (A) A             21 (A) A                 0.0176
     5 (A) A             28 (A) A                 0.0149
     4 (A) A   7 (A) B    9 (A) A   19 (A) B      0.0135
     5 (A) A   7 (A) B    9 (A) A   16 (A) B     -0.0134
     7 (A) A   8 (A) B   20 (A) A   17 (A) B      0.0105
     7 (A) A   8 (A) A    9 (A) A   28 (A) A      0.0096
     5 (A) A   8 (A) B    9 (A) A   20 (A) B     -0.0095
     4 (A) A   6 (A) B    9 (A) A   16 (A) B     -0.0091
     5 (A) A   6 (A) A    9 (A) A   23 (A) A      0.0091
     5 (A) A   6 (A) A    9 (A) A   14 (A) A      0.0089
     5 (A) A   6 (A) B    9 (A) A   19 (A) B      0.0087
     4 (A) A   5 (A) A    9 (A) A   10 (A) A     -0.0085
     8 (A) A   7 (A) B    9 (A) A   28 (A) B     -0.0084
     6 (A) A   7 (A) B    9 (A) A   18 (A) B      0.0083
     5 (A) A   6 (A) B    9 (A) A   23 (A) B      0.0080
     3 (A) A   7 (A) B    9 (A) A   18 (A) B     -0.0080
     5 (A) A   7 (A) A    9 (A) A   16 (A) A     -0.0079
     4 (A) A   8 (A) B    9 (A) A   25 (A) B     -0.0077
     8 (A) A             10 (A) A                -0.0075
     7 (A) A   8 (A) B   17 (A) A   20 (A) B      0.0074
     4 (A) A   7 (A) B   19 (A) A    9 (A) B      0.0074
     5 (A) A   5 (A) B    9 (A) A   13 (A) B      0.0072
     7 (A) A   8 (A) B   19 (A) A   18 (A) B      0.0072
     5 (A) A   8 (A) A    9 (A) A   20 (A) A     -0.0069
     4 (A) A   5 (A) B    9 (A) A   18 (A) B      0.0068
     7 (A) A   7 (A) B   20 (A) A   22 (A) B      0.0065
     7 (A) A   8 (A) B   17 (A) A    9 (A) B      0.0065
     5 (A) A   6 (A) B    9 (A) A   14 (A) B      0.0063
     4 (A) A   7 (A) A    9 (A) A   19 (A) A      0.0061
     4 (A) A   5 (A) B   10 (A) A    9 (A) B      0.0061
     5 (A) A   7 (A) B   11 (A) A   20 (A) B      0.0060
     5 (A) A             38 (A) A                -0.0060
     4 (A) A   7 (A) B    9 (A) A   14 (A) B     -0.0060
     4 (A) A   8 (A) A    9 (A) A   25 (A) A     -0.0057
    -----------------------------------------------------

  Density matrix analysis:
  ------------------------
  NOs
    Occupation of frontier NOs:
       0.9577   1.0539
    Number of electrons: 16.000000
    Number of unpaired electrons: n_u =  2.35529, n_u,nl =  2.06286
    NO participation ratio (PR_NO):  3.028640
  
  
  Mulliken Population Analysis
  Atom      Charge (e)              h+              e-           Del q
  --------------------------------------------------------------------
   1 H        0.149077        0.121327       -0.023199        0.098128
   2 C       -0.301381        0.271057       -0.471753       -0.200696
   3 H        0.151447        0.126821       -0.025919        0.100902
   4 C       -0.302242        0.273424       -0.473959       -0.200535
   5 H        0.154467        0.127476       -0.023177        0.104299
   6 H        0.148631        0.123575       -0.025672        0.097902
  --------------------------------------------------------------------
  Sum:        0.000000        1.043680       -1.043680       -0.000000
  
  Multipole moment analysis of the density matrix
    Molecular charge:                      0.000000
    Number of electrons:                   16.000000
      Center of electronic charge [Ang]: [ -1.560494,  -0.065983,   0.001505]
    Total nuclear charge:                  16.000000
      Center of nuclear charge [Ang]:    [ -1.560576,  -0.065602,   0.001353]
    Dipole moment [D]:                     0.032104
      Cartesian components [D]:          [ -0.006303,   0.029237,  -0.011668]
    RMS size of the density [Ang]:         1.200169
      Cartesian components [Ang]:        [  0.787093,   0.768338,   0.480153]
  
  Exciton analysis of the difference density matrix
    <r_h> [Ang]:                  [ -1.565602,  -0.063193,   0.001018]
    <r_e> [Ang]:                  [ -1.564558,  -0.068674,   0.002208]
    |<r_e - r_h>| [Ang]:            0.005705
    Hole size [Ang]:                1.486083
      Cartesian components [Ang]: [  0.999318,   1.001118,   0.455597]
    Electron size [Ang]:            1.477428
      Cartesian components [Ang]: [  0.881848,   0.859385,   0.816453]

  Transition density matrix analysis:
  -----------------------------------
  
  CT numbers (Mulliken)
    omega =     0.9218
    <Phe> =    -0.0123
  
  Exciton analysis of the transition density matrix
    Trans. dipole moment [D]:             0.075215
      Cartesian components [D]:         [  0.055516,  -0.050555,   0.004409]
    <r_h> [Ang]:                        [ -1.566248,  -0.062545,   0.000664]
    <r_e> [Ang]:                        [ -1.564211,  -0.069375,   0.002523]
    |<r_e - r_h>| [Ang]:                  0.007365
    Hole size [Ang]:                      1.514515
      Cartesian components [Ang]:       [  1.021799,   1.025348,   0.445358]
    Electron size [Ang]:                  1.474529
      Cartesian components [Ang]:       [  0.872549,   0.848756,   0.832171]
    RMS electron-hole separation [Ang]:   2.094008
      Cartesian components [Ang]:       [  1.327842,   1.316176,   0.943072]
    Covariance(r_h, r_e) [Ang^2]:         0.041588
    Correlation coefficient:              0.018623
    Center-of-mass size [Ang]:            1.066673
      Cartesian components [Ang]:       [  0.679645,   0.672900,   0.472314]

  Decomposition into state-averaged NTOs
    H- 1 -> L+ 0:  0.6611 ( 87.4%)
    H- 0 -> L+ 2: -0.1484 (  4.4%)
                   omega =  92.2%
  ----------------------------------------------------------------------------


  Excited state 3 (singlet, A)                                     [converged]
  ----------------------------------------------------------------------------
  Term symbol:  4 (1) A                                     R^2 =  1.09044e-13

  Total energy:                                            -77.9826555902 a.u.
  Excitation energy:                                               9.169785 eV

  Osc. strength:                                                      0.025160
  Trans. dip. moment [a.u.]:           [   0.020880,    0.016281,   -0.333607]
  <i|r^2|0> [a.u.]:                    [   0.146615,   -0.017550,    0.002317]
  Two-photon absorption cross-section (SoS) [a.u.]:                   0.183173
  Two-photon absorption matrix (SoS) [a.u.]:
                                       |    0.147073    0.008004   -0.004037 |
                                       |    0.008004   -0.150574   -0.014756 |
                                       |   -0.004037   -0.014756   -0.023192 |
  Two-photon absorption cross-section [a.u.]:                         0.099828
  Two-photon absorption matrix [a.u.]:
                                       |    0.099113    0.009475   -0.010391 |
                                       |    0.009475   -0.116826   -0.012220 |
                                       |   -0.010391   -0.012220   -0.015489 |

  Dip. moment [a.u.]:                  [   0.006471,    0.012738,    0.004137]
  Total dipole [Debye]:                                               0.037805
  <r^2> [a.u.]:                        [ 180.900749,   40.604797,   11.035147]
  Total <r^2> [a.u.]:                                               232.540693

  V1^2 = 0.9587, V2^2 = 0.0413

  Important amplitudes:
      occ i     occ j     vir a      vir b          v   
    -----------------------------------------------------
     8 (A) A             10 (A) A                 0.6890
     8 (A) A             24 (A) A                 0.0507
     8 (A) A             18 (A) A                -0.0313
     4 (A) A              9 (A) A                 0.0238
     8 (A) A   8 (A) B    9 (A) A   12 (A) B     -0.0219
     8 (A) A   8 (A) B   10 (A) A   17 (A) B      0.0173
     8 (A) A             15 (A) A                 0.0169
     5 (A) A   8 (A) B   11 (A) A   10 (A) B      0.0165
     7 (A) A   8 (A) B   13 (A) A   10 (A) B     -0.0141
     4 (A) A   8 (A) B   12 (A) A   10 (A) B     -0.0111
     6 (A) A   8 (A) A   10 (A) A   15 (A) A     -0.0110
     7 (A) A   8 (A) B   22 (A) A   10 (A) B      0.0108
     6 (A) A   8 (A) B   15 (A) A   10 (A) B      0.0108
     4 (A) A   8 (A) A   10 (A) A   12 (A) A      0.0106
     7 (A) A   8 (A) A   10 (A) A   22 (A) A     -0.0099
     7 (A) A   8 (A) A   10 (A) A   13 (A) A      0.0097
     5 (A) A   8 (A) B   21 (A) A   10 (A) B      0.0094
     5 (A) A   8 (A) A   10 (A) A   11 (A) A     -0.0094
     6 (A) A   8 (A) A   10 (A) A   18 (A) A     -0.0088
     6 (A) A   8 (A) B   10 (A) A   10 (A) B     -0.0087
     7 (A) A   8 (A) A   12 (A) A   16 (A) A      0.0082
     5 (A) A   8 (A) A   10 (A) A   21 (A) A     -0.0080
     3 (A) A   4 (A) B   10 (A) A    9 (A) B     -0.0079
     7 (A) A              9 (A) A                -0.0076
     4 (A) A   8 (A) B   19 (A) A   10 (A) B      0.0075
     8 (A) A   8 (A) B    9 (A) A   23 (A) B     -0.0075
     8 (A) A   8 (A) B   10 (A) A   28 (A) B      0.0072
     3 (A) A   8 (A) B   10 (A) A   10 (A) B      0.0072
     5 (A) A   8 (A) B   10 (A) A   11 (A) B      0.0071
     3 (A) A   8 (A) A   10 (A) A   24 (A) A     -0.0071
     7 (A) A   8 (A) B   16 (A) A   12 (A) B     -0.0070
     3 (A) A   8 (A) B   10 (A) A   18 (A) B     -0.0069
     8 (A) A   8 (A) B    9 (A) A   19 (A) B      0.0068
     6 (A) A   8 (A) B   18 (A) A   10 (A) B      0.0067
     3 (A) A   6 (A) B   10 (A) A   28 (A) B      0.0062
     7 (A) A   8 (A) B   12 (A) A   11 (A) B      0.0058
     6 (A) A             28 (A) A                -0.0056
     3 (A) A   5 (A) B   10 (A) A   25 (A) B     -0.0056
     5 (A) A   8 (A) A   10 (A) A   16 (A) A      0.0056
     3 (A) A   8 (A) A   10 (A) A   18 (A) A     -0.0056
    -----------------------------------------------------

  Density matrix analysis:
  ------------------------
  NOs
    Occupation of frontier NOs:
       0.9815   0.9849
    Number of electrons: 16.000000
    Number of unpaired electrons: n_u =  2.28549, n_u,nl =  2.02445
    NO participation ratio (PR_NO):  2.692455
  
  
  Mulliken Population Analysis
  Atom      Charge (e)              h+              e-           Del q
  --------------------------------------------------------------------
   1 H       -0.161755        0.053952       -0.266657       -0.212705
   2 C        0.327405        0.538570       -0.110479        0.428091
   3 H       -0.166040        0.053712       -0.270298       -0.216586
   4 C        0.326363        0.537676       -0.109606        0.428070
   5 H       -0.162173        0.054007       -0.266348       -0.212341
   6 H       -0.163800        0.053851       -0.268380       -0.214529
  --------------------------------------------------------------------
  Sum:        0.000000        1.291768       -1.291768       -0.000000
  
  Multipole moment analysis of the density matrix
    Molecular charge:                      0.000000
    Number of electrons:                   16.000000
      Center of electronic charge [Ang]: [ -1.560790,  -0.066024,   0.001216]
    Total nuclear charge:                  16.000000
      Center of nuclear charge [Ang]:    [ -1.560576,  -0.065602,   0.001353]
    Dipole moment [D]:                     0.037805
      Cartesian components [D]:          [  0.016447,   0.032376,   0.010514]
    RMS size of the density [Ang]:         1.276499
      Cartesian components [Ang]:        [  0.854412,   0.840415,   0.439469]
  
  Exciton analysis of the difference density matrix
    <r_h> [Ang]:                  [ -1.560261,  -0.065950,   0.002051]
    <r_e> [Ang]:                  [ -1.563084,  -0.070884,  -0.000563]
    |<r_e - r_h>| [Ang]:            0.006257
    Hole size [Ang]:                1.410276
      Cartesian components [Ang]: [  0.834104,   0.819804,   0.788080]
    Electron size [Ang]:            2.075965
      Cartesian components [Ang]: [  1.373274,   1.376673,   0.726995]

  Transition density matrix analysis:
  -----------------------------------
  
  CT numbers (Mulliken)
    omega =     0.9259
    <Phe> =    -0.0109
  
  Exciton analysis of the transition density matrix
    Trans. dipole moment [D]:             0.425305
      Cartesian components [D]:         [  0.026536,   0.020691,  -0.423972]
    <r_h> [Ang]:                        [ -1.559706,  -0.065601,   0.002721]
    <r_e> [Ang]:                        [ -1.563808,  -0.072676,  -0.001282]
    |<r_e - r_h>| [Ang]:                  0.009105
    Hole size [Ang]:                      1.212981
      Cartesian components [Ang]:       [  0.636692,   0.623558,   0.822874]
    Electron size [Ang]:                  2.296270
      Cartesian components [Ang]:       [  1.517865,   1.524113,   0.803756]
    RMS electron-hole separation [Ang]:   2.587060
      Cartesian components [Ang]:       [  1.638496,   1.639766,   1.148641]
    Covariance(r_h, r_e) [Ang^2]:         0.025693
    Correlation coefficient:              0.009224
    Center-of-mass size [Ang]:            1.303415
      Cartesian components [Ang]:       [  0.826729,   0.826848,   0.575963]

  Decomposition into state-averaged NTOs
    H- 0 -> L+ 1:  0.6797 ( 92.4%)
                   omega =  92.6%
  ----------------------------------------------------------------------------


  Excited state 4 (singlet, A)                                     [converged]
  ----------------------------------------------------------------------------
  Term symbol:  5 (1) A                                     R^2 =  1.44387e-13

  Total energy:                                            -77.9583071507 a.u.
  Excitation energy:                                               9.832339 eV

  Osc. strength:                                                      0.000127
  Trans. dip. moment [a.u.]:           [   0.016662,   -0.015689,    0.002030]
  <i|r^2|0> [a.u.]:                    [   0.115883,    0.015968,   -0.037531]
  Two-photon absorption cross-section (SoS) [a.u.]:                 149.389131
  Two-photon absorption matrix (SoS) [a.u.]:
                                       |    0.274831    0.335081   -3.013712 |
                                       |    0.335081    0.396681   -3.022668 |
                                       |   -3.013712   -3.022668   -0.672215 |
  Two-photon absorption cross-section [a.u.]:                        91.761591
  Two-photon absorption matrix [a.u.]:
                                       |    0.198606    0.261513   -2.358796 |
                                       |    0.261513    0.327098   -2.371894 |
                                       |   -2.358796   -2.371894   -0.526867 |

  Dip. moment [a.u.]:                  [  -0.017972,   -0.014181,    0.001678]
  Total dipole [Debye]:                                               0.058344
  <r^2> [a.u.]:                        [ 181.217600,   40.501883,   10.772530]
  Total <r^2> [a.u.]:                                               232.492013

  V1^2 = 0.9635, V2^2 = 0.0365

  Important amplitudes:
      occ i     occ j     vir a      vir b          v   
    -----------------------------------------------------
     8 (A) A             11 (A) A                -0.6696
     7 (A) A              9 (A) A                -0.1504
     8 (A) A             21 (A) A                -0.0781
     8 (A) A             16 (A) A                 0.0645
     8 (A) A   8 (A) B    9 (A) A   13 (A) B     -0.0167
     5 (A) A   8 (A) B   11 (A) A   11 (A) B     -0.0155
     8 (A) A   8 (A) B   11 (A) A   17 (A) B     -0.0140
     7 (A) A             20 (A) A                -0.0137
     7 (A) A   8 (A) B   13 (A) A   11 (A) B      0.0127
     8 (A) A             12 (A) A                -0.0122
     5 (A) A   8 (A) A   11 (A) A   21 (A) A      0.0110
     4 (A) A   8 (A) B   12 (A) A   11 (A) B      0.0110
     8 (A) A   8 (A) B    9 (A) A   22 (A) B      0.0107
     7 (A) A   8 (A) A   11 (A) A   22 (A) A      0.0096
     6 (A) A   8 (A) B   15 (A) A   11 (A) B     -0.0090
     6 (A) A   8 (A) B   10 (A) A   11 (A) B      0.0090
     7 (A) A   8 (A) B   22 (A) A   11 (A) B     -0.0089
     3 (A) A   4 (A) B   11 (A) A    9 (A) B      0.0083
     3 (A) A   8 (A) B   11 (A) A   18 (A) B      0.0081
     6 (A) A   8 (A) A   11 (A) A   15 (A) A      0.0080
     6 (A) A              9 (A) A                 0.0079
     7 (A) A   8 (A) A   13 (A) A   16 (A) A      0.0078
     7 (A) A   8 (A) A   11 (A) A   13 (A) A     -0.0077
     5 (A) A   8 (A) B   21 (A) A   11 (A) B     -0.0071
     4 (A) A   8 (A) B   19 (A) A   11 (A) B     -0.0070
     5 (A) A   8 (A) B    9 (A) A    9 (A) B     -0.0068
     4 (A) A   8 (A) A   11 (A) A   12 (A) A     -0.0062
     6 (A) A   8 (A) A   11 (A) A   18 (A) A      0.0062
     6 (A) A   8 (A) B   18 (A) A   11 (A) B     -0.0060
     3 (A) A   6 (A) B   11 (A) A   28 (A) B     -0.0060
     7 (A) A   8 (A) B   16 (A) A   13 (A) B     -0.0057
     3 (A) A   8 (A) A   11 (A) A   18 (A) A      0.0056
     5 (A) A   8 (A) B   10 (A) A   10 (A) B     -0.0056
     3 (A) A   8 (A) B   11 (A) A   30 (A) B      0.0055
     3 (A) A   5 (A) B   11 (A) A   25 (A) B      0.0054
     6 (A) A   8 (A) B   11 (A) A   10 (A) B      0.0054
     7 (A) A   8 (A) B   12 (A) A   10 (A) B     -0.0054
     8 (A) A   8 (A) B   20 (A) A   22 (A) B      0.0053
     3 (A) A   8 (A) A   11 (A) A   24 (A) A      0.0053
     5 (A) A   8 (A) A   11 (A) A   16 (A) A     -0.0049
    -----------------------------------------------------

  Density matrix analysis:
  ------------------------
  NOs
    Occupation of frontier NOs:
       0.9406   1.0279
    Number of electrons: 16.000000
    Number of unpaired electrons: n_u =  2.31919, n_u,nl =  2.04920
    NO participation ratio (PR_NO):  2.915316
  
  
  Mulliken Population Analysis
  Atom      Charge (e)              h+              e-           Del q
  --------------------------------------------------------------------
   1 H       -0.148525        0.045782       -0.245257       -0.199475
   2 C        0.274811        0.497014       -0.121517        0.375497
   3 H       -0.126287        0.046962       -0.223794       -0.176833
   4 C        0.272736        0.496792       -0.122349        0.374443
   5 H       -0.131220        0.047102       -0.228491       -0.181389
   6 H       -0.141514        0.045827       -0.238070       -0.192243
  --------------------------------------------------------------------
  Sum:        0.000000        1.179479       -1.179479       -0.000000
  
  Multipole moment analysis of the density matrix
    Molecular charge:                      0.000000
    Number of electrons:                   16.000000
      Center of electronic charge [Ang]: [ -1.559982,  -0.065133,   0.001298]
    Total nuclear charge:                  16.000000
      Center of nuclear charge [Ang]:    [ -1.560576,  -0.065602,   0.001353]
    Dipole moment [D]:                     0.058344
      Cartesian components [D]:          [ -0.045679,  -0.036045,   0.004266]
    RMS size of the density [Ang]:         1.277199
      Cartesian components [Ang]:        [  0.859120,   0.839412,   0.434208]
  
  Exciton analysis of the difference density matrix
    <r_h> [Ang]:                  [ -1.560005,  -0.065252,   0.002213]
    <r_e> [Ang]:                  [ -1.552131,  -0.058579,   0.000454]
    |<r_e - r_h>| [Ang]:            0.010471
    Hole size [Ang]:                1.394887
      Cartesian components [Ang]: [  0.818441,   0.806856,   0.790473]
    Electron size [Ang]:            2.124047
      Cartesian components [Ang]: [  1.443153,   1.402763,   0.679072]

  Transition density matrix analysis:
  -----------------------------------
  
  CT numbers (Mulliken)
    omega =     0.9298
    <Phe> =    -0.0135
  
  Exciton analysis of the transition density matrix
    Trans. dipole moment [D]:             0.029199
      Cartesian components [D]:         [  0.021175,  -0.019938,   0.002580]
    <r_h> [Ang]:                        [ -1.560495,  -0.065706,   0.002599]
    <r_e> [Ang]:                        [ -1.550681,  -0.057110,   0.000243]
    |<r_e - r_h>| [Ang]:                  0.013257
    Hole size [Ang]:                      1.228003
      Cartesian components [Ang]:       [  0.658024,   0.650393,   0.807457]
    Electron size [Ang]:                  2.262023
      Cartesian components [Ang]:       [  1.537605,   1.494028,   0.721387]
    RMS electron-hole separation [Ang]:   2.563194
      Cartesian components [Ang]:       [  1.663941,   1.621696,   1.082298]
    Covariance(r_h, r_e) [Ang^2]:         0.027476
    Correlation coefficient:              0.009891
    Center-of-mass size [Ang]:            1.292255
      Cartesian components [Ang]:       [  0.840513,   0.818602,   0.541620]

  Decomposition into state-averaged NTOs
    H- 0 -> L+ 2:  0.6649 ( 88.4%)
    H- 1 -> L+ 0:  0.1484 (  4.4%)
                   omega =  93.0%
  ----------------------------------------------------------------------------


  Excited state 5 (singlet, A)                                     [converged]
  ----------------------------------------------------------------------------
  Term symbol:  6 (1) A                                     R^2 =  1.78464e-13

  Total energy:                                            -77.9443836690 a.u.
  Excitation energy:                                              10.211217 eV

  Osc. strength:                                                      0.000003
  Trans. dip. moment [a.u.]:           [   0.001673,    0.002636,    0.000717]
  <i|r^2|0> [a.u.]:                    [   0.102015,   -0.105657,    0.012546]
[...]
    16   -1.508214722959e-03
    17   -1.660428206014e-03
    18   -1.073215341698e-04
    19   -3.310256671893e-03
    20    1.087881289568e-02
    21    9.354266850447e-01
    22   -2.663745307389e-04
    23    1.399281473982e-02
    24    7.697243425183e-04
    25    7.030651864648e-02
    26   -5.232756139702e-02
    27   -1.399172809249e+00
    28    9.807774836947e-02
    29   -9.264177394353e-02
    30    5.344889719444e-04
    31    3.849721430610e-01
    32   -3.624462162334e-01
    33    2.245840626565e-03
    34    1.558893519838e-02
    35   -1.780536017391e-03
    36   -1.784571013443e-03
    37   -7.071618835410e-06
    38   -3.124932049660e-03
    39    9.912169473776e-03
    40    9.316023862844e-01
    41    2.576667331930e-04
    42   -1.392836612948e-02
    43   -8.078528382387e-04
    44    1.021038065258e-02
    45    9.404518297549e-01
    46    1.411027167933e-02
    47    3.642445320940e-04
    48    8.445073718202e-04
Sym=X
Ene= 0.232934
Spin=Alpha
Occup=0
     1    2.625971529860e-02
     2    1.237630458083e+00
     3   -1.437889752491e-02
     4   -3.849208119331e-03
     5   -8.848831896169e-04
     6    3.362547370543e-03
     7   -3.734474530547e-03
     8   -5.429170075350e-02
     9   -1.550952622772e-01
    10   -1.583245904620e-01
    11   -1.588342790614e-02
    12   -5.574016217791e-01
    13   -5.571276527582e-01
    14   -5.555570537530e-02
    15    5.976736720565e-04
    16   -5.834829384220e-05
    17   -1.874191495309e-04
    18   -2.038096317441e-04
    19   -3.877635801955e-04
    20   -2.502486616791e-02
    21   -1.155760527008e+00
    22   -2.472689682828e-03
    23   -1.350092350875e-02
    24   -8.443892728187e-04
    25   -2.946038008697e-03
    26    3.400998422308e-03
    27    4.297964652778e-02
    28   -1.539969493605e-01
    29   -1.588593293495e-01
    30   -1.884454961460e-02
    31   -5.478408576331e-01
    32   -5.549703050001e-01
    33   -6.724960432843e-02
    34   -4.968127941649e-04
    35    2.649286946908e-04
    36    9.120220692434e-05
    37    3.716693682965e-04
    38    3.455995924367e-04
    39    2.496190957398e-02
    40    1.156218248966e+00
    41   -2.445043878000e-03
    42   -1.358768953841e-02
    43   -1.004299782567e-03
    44   -2.633726629318e-02
    45   -1.223839206813e+00
    46   -1.423678685539e-02
    47   -3.774595811065e-03
    48   -1.053599809296e-03
Sym=X
Ene= 0.239398
Spin=Alpha
Occup=0
     1   -1.595832129984e-02
     2   -1.047992581779e+00
     3    1.648364074869e-02
     4    9.093516737472e-03
     5    1.320251250937e-03
     6   -8.652930415948e-02
     7    7.975809207518e-02
     8    1.593661837815e+00
     9    5.277666946793e-02
    10   -6.111728976020e-02
    11   -1.553465759890e-03
    12    2.097514438171e-01
    13   -2.373081595481e-01
    14   -6.315373911677e-03
    15   -2.254525948283e-02
    16    2.586354860996e-03
    17    3.074714275193e-03
    18   -5.128124792055e-04
    19    1.287059489008e-02
    20   -1.703945442818e-02
    21   -1.128603807185e+00
    22   -8.544985826198e-03
    23   -1.781193694313e-02
    24   -1.506980189869e-03
    25    8.641292798259e-02
    26   -7.930600866371e-02
    27   -1.594904999954e+00
    28    5.288624219680e-02
    29   -6.166754035370e-02
    30    2.109846140971e-04
    31    2.088316486078e-01
    32   -2.426892506056e-01
    33    8.006916446868e-04
    34    2.255418179975e-02
    35   -2.857728423811e-03
    36   -3.037173911552e-03
    37    7.680620494660e-04
    38   -1.277066177843e-02
    39    1.694968493165e-02
    40    1.133902929687e+00
    41   -8.613450783013e-03
    42   -1.793789538467e-02
    43   -1.452090270679e-03
    44    1.563242111199e-02
    45    1.043867347753e+00
    46    1.634278974090e-02
    47    9.240021601098e-03
    48    1.498443216724e-03
Sym=X
Ene= 0.303254
Spin=Alpha
Occup=0
     1   -2.078084875855e-02
     2    1.691545433764e+00
     3   -2.291546585170e-02
     4    2.737415841084e-04
     5   -1.018552012875e-03
     6   -2.193236545583e-04
     7    1.831339618019e-04
     8    2.603846750908e-03
     9   -1.339393678099e-01
    10   -1.396553763935e-01
    11   -1.434718536051e-02
    12   -1.144308729908e+00
    13   -1.193668249148e+00
    14   -1.268775116876e-01
    15   -1.178181953260e-04
    16   -1.585571395611e-03
    17    1.974591370849e-03
    18   -3.265735287589e-02
    19   -1.586830892014e-03
    20    1.999618741984e-02
    21   -1.690351517405e+00
    22    1.428175365444e-03
    23   -2.291125855377e-02
    24   -1.309489000632e-03
    25    8.957598246242e-05
    26    2.657075462137e-04
    27   -7.879267255528e-03
    28    1.346122113479e-01
    29    1.401600320066e-01
    30    1.607921399992e-02
    31    1.138936925240e+00
    32    1.197276341021e+00
    33    1.324416326028e-01
    34   -4.480010734699e-06
    35   -1.991364281009e-03
    36    1.693968049982e-03
    37   -3.248177603033e-02
    38   -1.642435624274e-03
    39    1.963750589961e-02
    40   -1.691717966232e+00
    41   -1.599112544319e-03
    42    2.283234499904e-02
    43    1.323158036844e-03
    44   -2.004394690317e-02
    45    1.697091218950e+00
    46    2.303304298004e-02
    47   -3.592077568867e-04
    48    1.233979717161e-03
Sym=X
Ene= 0.462011
Spin=Alpha
Occup=0
     1   -1.155119192512e-01
     2   -7.143762904441e-01
     3   -1.567791272824e-02
     4   -1.031834631956e-02
     5   -1.327388838145e-03
     6    6.079239415196e-02
     7    1.739143099837e-02
     8   -3.591566831353e+00
     9    1.030082510549e-01
    10   -9.905411607247e-02
    11   -6.425755613013e-04
    12    2.425961834217e+00
    13   -2.302508971168e+00
    14   -2.320802575557e-02
    15    5.366406653771e-02
    16   -3.452965137322e-03
    17   -4.363073723139e-03
    18   -7.620010423088e-04
    19    1.801494099482e-02
    20   -1.210536102104e-01
    21   -7.021268225804e-01
    22    8.719245373535e-03
    23    1.637822090971e-02
    24    1.328127580457e-03
    25   -6.094303625533e-02
    26   -1.633377142058e-02
    27    3.591775235386e+00
    28    1.050711625653e-01
    29   -1.004772472265e-01
    30    4.892392730067e-04
    31    2.421915920915e+00
    32   -2.298594404475e+00
    33   -1.810703261971e-02
    34   -5.268300924167e-02
    35    3.700727357115e-03
    36    4.847600001481e-03
    37    6.790640356562e-04
    38   -1.906571478446e-02
    39    1.152925498837e-01
    40    7.094311498505e-01
    41    8.594206696610e-03
    42    1.624169349553e-02
    43    1.539952695403e-03
    44    1.112129575508e-01
    45    7.163874715030e-01
    46   -1.545565871775e-02
    47   -9.931842685183e-03
    48   -1.433990940773e-03
Sym=X
Ene= 0.577483
Spin=Alpha
Occup=0
     1    2.471100051406e-01
     2    4.109321109847e-02
     3   -1.844630110697e-02
     4    2.571887449455e-02
     5    6.363580490981e-04
     6   -4.468280586627e-03
     7   -1.571296527199e-01
     8   -4.649624043741e-01
     9    2.987172481935e-01
    10   -2.878410434732e-01
    11   -2.709161006177e-03
    12   -7.204356029830e-01
    13    6.971080638080e-01
    14    5.659889506753e-03
    15   -5.890543045665e-03
    16    3.923454865824e-03
    17    3.926558580682e-03
    18   -4.311671222750e-03
    19    6.023621299261e-02
    20    2.553835182168e-01
    21    2.960788445288e-02
    22   -2.642558093917e-02
    23    1.645203676149e-02
    24   -2.959327991581e-04
    25   -5.611513635358e-03
    26   -1.578340921244e-01
    27   -4.102160712342e-01
    28   -2.974240061547e-01
    29    2.851666366598e-01
    30    2.824850457124e-03
    31    7.612151962944e-01
    32   -7.325033713779e-01
    33   -4.673978643298e-03
    34   -5.889288264329e-03
    35    4.008689091371e-03
    36    3.912736326329e-03
    37   -3.727546036686e-03
    38    6.019191623478e-02
    39    2.508324223138e-01
    40    4.979926362158e-02
    41    2.720330156620e-02
    42   -1.700130038193e-02
    43    4.386849216003e-04
    44    2.492492743151e-01
    45    5.473857305077e-02
    46    1.844583175853e-02
    47   -2.591815076866e-02
    48   -5.701197361929e-04
Sym=X
Ene= 0.615181
Spin=Alpha
Occup=0
     1   -5.222115457926e-01
     2    2.001890136816e-01
     3   -6.134325956163e-02
     4    3.762525705431e-02
     5   -8.151502349377e-04
     6   -5.908895873111e-04
     7    9.448181239245e-05
     8   -1.566764372325e-02
     9   -4.036671359981e-02
    10   -3.852315406041e-02
    11   -4.772509219116e-03
    12    3.047041927584e-01
    13    2.802043278341e-01
    14    2.864315115293e-02
    15    1.881238231318e-03
    16   -7.673912220314e-03
    17    8.612859082413e-03
    18   -1.479920324496e-01
    19   -6.460621096734e-03
    20    5.082789826338e-01
    21   -2.046197921853e-01
    22    4.178307574033e-02
    23   -5.846749077341e-02
    24   -1.625395319219e-03
    25    4.093546673984e-04
    26   -1.240111626597e-03
    27    2.483634526285e-02
    28   -3.974773124395e-02
    29   -4.018610779055e-02
    30   -3.986827788326e-03
    31    3.016083233966e-01
    32    2.896718376001e-01
    33    3.621070969271e-02
    34   -1.343629169380e-03
    35    8.688633445657e-03
    36   -7.985164843437e-03
    37    1.491637157856e-01
    38    6.303650219193e-03
    39   -5.147303232015e-01
    40    2.071187869093e-01
    41    4.093037656275e-02
    42   -5.861489400040e-02
    43   -1.190863891222e-03
    44    5.221110910469e-01
    45   -2.058967465610e-01
    46   -6.149862692662e-02
    47    3.765904068227e-02
    48   -9.135643236264e-04
Sym=X
Ene= 0.689147
Spin=Alpha
Occup=0
     1   -2.552280538736e-03
     2    8.240248438364e-04
     3    5.642030965432e-04
     4    7.658709499542e-04
     5   -2.105809425768e-02
     6   -1.465970585537e-04
     7   -1.303361884731e-03
     8   -5.813707747420e-04
     9    3.266002844868e-02
    10    3.854295375891e-02
    11   -6.703651527082e-01
    12   -2.604869432725e-02
    13   -3.767363620340e-02
    14    6.136430651083e-01
    15   -6.384332497808e-04
    16    8.254579149139e-02
    17   -7.838940815983e-02
    18   -9.383782581175e-03
    19   -1.667034745438e-03
    20   -1.911279607488e-03
    21   -2.017346871658e-03
    22    1.041312225575e-03
    23    1.461709618883e-03
    24   -2.091146255317e-02
    25   -3.313290643575e-05
    26   -2.410007421048e-03
    27    2.792936842681e-03
    28    3.483259819638e-02
    29    4.230397574270e-02
    30   -6.698413517189e-01
    31   -2.923922653673e-02
    32   -4.245608021208e-02
    33    6.128618963932e-01
    34    1.852435009217e-03
    35   -8.280609934273e-02
    36    7.839459582672e-02
    37    8.366223304951e-03
    38    1.168730642757e-03
    39   -2.673346867055e-05
    40    1.335479320504e-03
    41    1.329900796421e-03
    42    8.374892053671e-04
    43   -2.108622019084e-02
    44   -6.526339494164e-04
    45    4.221942221634e-03
    46    1.801015693473e-03
    47    1.520117450617e-03
    48   -2.087020457119e-02
Sym=X
Ene= 0.708816
Spin=Alpha
Occup=0
     1   -4.752844659678e-01
     2    1.576087832501e-01
     3   -8.065084406840e-02
     4   -4.421080512285e-02
     5   -6.286577167715e-03
     6   -4.771389072281e-02
     7   -3.200585179147e-01
     8    5.071030336068e-01
     9    2.036310095541e-01
    10   -1.926527354894e-01
    11    6.716982660772e-04
    12   -9.667838854783e-02
    13    8.041029710992e-02
    14   -1.312768194614e-04
    15    1.938232242581e-01
    16   -2.082853008228e-02
    17   -2.404199176871e-02
    18    3.119741978846e-03
    19   -7.733483938188e-02
    20   -4.776099381045e-01
    21    1.494129238923e-01
    22    4.094025656980e-02
    23    8.158463792057e-02
    24    6.994381758958e-03
    25   -4.678995641419e-02
    26   -3.206199954348e-01
    27    4.637241696595e-01
    28   -2.046756005154e-01
    29    1.914791283424e-01
    30    3.542351660700e-03
    31    6.788258617439e-02
    32   -5.213216818045e-02
    33   -4.713998279054e-03
    34    1.934790787302e-01
    35   -2.193448228048e-02
    36   -2.497865337096e-02
    37    2.428695132286e-03
    38   -7.549441552572e-02
    39   -4.727571750846e-01
    40    1.356077890254e-01
    41   -4.060772843293e-02
    42   -8.103059515088e-02
    43   -7.188345878504e-03
    44   -4.750486102985e-01
    45    1.487426320498e-01
    46    8.056148403579e-02
    47    4.399992036148e-02
    48    6.888040524669e-03
Sym=X
Ene= 0.784461
Spin=Alpha
Occup=0
     1    5.268569543055e-01
     2   -4.696682817036e-01
     3    1.103710647143e-01
     4    2.611170108882e-02
     5    6.678636430450e-03
     6    9.101076612200e-02
     7   -2.152573299797e-01
     8   -6.442020230261e-01
     9    1.103918513286e-01
    10   -1.056565435729e-01
    11   -5.145784435826e-03
    12    3.181695761675e-01
    13   -2.940901834642e-01
    14    5.222881875043e-03
    15   -2.065205781030e-01
    16    1.724246156922e-02
    17    2.152901119386e-02
    18   -9.993632893324e-04
    19    9.421373527240e-03
    20    5.367232408529e-01
    21   -4.684750165066e-01
    22   -2.028807625482e-02
    23   -1.123175690142e-01
    24   -7.604293455017e-03
    25   -9.130672473926e-02
    26    2.137624210256e-01
    27    6.556908137614e-01
    28    1.108395897125e-01
    29   -1.063723412938e-01
    30    2.229945112653e-03
    31    3.129481254439e-01
    32   -2.873342037560e-01
    33   -9.168304415420e-03
    34    2.070742346408e-01
    35   -2.034623120717e-02
    36   -2.273043420371e-02
    37    1.799261820524e-03
    38   -8.728436666766e-03
    39   -5.411328511500e-01
    40    4.659738632788e-01
    41   -2.038319142630e-02
    42   -1.126682418787e-01
    43   -8.078575596794e-03
    44   -5.313464985135e-01
    45    4.674139165181e-01
    46    1.099836954895e-01
    47    2.677540655546e-02
    48    7.544275541968e-03
Sym=X
Ene= 0.807965
Spin=Alpha
Occup=0
     1    2.224216226086e-03
     2    1.288910866644e-03
     3   -1.458808455393e-03
     4   -2.373072205956e-03
     5    3.379758243588e-02
     6    4.859176851242e-04
     7   -1.857786543509e-03
     8   -3.032735523373e-04
     9   -3.409288607226e-02
    10   -4.507761613063e-02
    11    7.631080902707e-01
    12    5.254327754878e-02
    13    6.363623015916e-02
    14   -1.127148688802e+00
    15   -2.258640360906e-03
    16    6.526188983617e-02
    17   -6.167535804851e-02
    18   -8.027303686040e-03
    19   -1.352524302315e-03
    20    2.460776381368e-03
    21   -6.456239304369e-03
    22   -1.908314365350e-03
    23   -3.081201474588e-03
    24    3.441012622861e-02
    25   -4.019031803896e-04
    26   -2.710471752804e-05
    27    1.344384335288e-03
    28    4.212031339664e-02
    29    4.766101696443e-02
    30   -7.628048749950e-01
    31   -5.969832320571e-02
    32   -7.375553194592e-02
    33    1.126251866547e+00
    34    4.229089237908e-04
    35    6.513871649629e-02
    36   -6.203487672266e-02
    37   -5.979717494365e-03
    38   -6.639719370619e-04
    39   -2.427212461016e-03
    40    7.017598708613e-03
    41    1.697658163744e-03
    42    6.169244429209e-04
    43   -3.434667427375e-02
    44   -2.236723752400e-03
    45   -8.347376902189e-04
    46    2.369258620486e-03
    47    1.585960427823e-03
    48   -3.363849797991e-02
Sym=X
Ene= 0.862220
Spin=Alpha
Occup=0
     1    1.300745114423e-02
     2   -1.095006807206e+00
     3    1.481891958829e-01
     4    5.643798873244e-02
     5    1.061600347351e-02
     6    1.350266525858e-04
     7    2.877206678770e-04
     8    1.014753162077e-03
     9   -4.069373054483e-01
    10   -4.285765373884e-01
    11   -4.203754740536e-02
    12    9.477069880335e-01
    13    9.981786684167e-01
    14    9.832298398899e-02
    15   -5.447267591230e-04
    16    1.255350575945e-02
    17   -1.351730009929e-02
    18    2.351418119679e-01
    19    9.538765220209e-03
    20   -1.357054072629e-02
    21    1.102692364727e+00
    22    5.037130206906e-02
    23    1.513133681272e-01
    24    1.128506055074e-02
    25    1.724546835859e-05
    26    2.319896281740e-03
    27   -2.538782767083e-03
    28   -4.070144231046e-01
    29   -4.293993460680e-01
    30   -5.071791586655e-02
    31    9.469652711034e-01
    32    1.002051040037e+00
    33    1.177789382378e-01
    34   -1.330128347831e-04
    35   -1.279445033650e-02
    36    1.348229129318e-02
    37   -2.362580716562e-01
    38   -1.029039396181e-02
    39    1.251256067089e-02
    40   -1.102737646181e+00
    41    4.895442942446e-02
    42    1.517458882329e-01
    43    1.155464203407e-02
    44   -1.128948552366e-02
    45    1.095085117621e+00
    46    1.486342211155e-01
    47    5.572969351930e-02
    48    1.155001429451e-02
Sym=X
Ene= 0.935854
Spin=Alpha
Occup=0
     1   -1.136617426035e-01
     2    1.278554212144e+00
     3   -1.812930142178e-01
     4    5.534856687610e-03
     5   -7.926318175335e-03
     6   -1.033706911573e-04
     7   -2.093741777648e-03
     8   -3.673054766981e-03
     9    4.718955682931e-01
    10    5.007529194443e-01
    11    5.258515213481e-02
    12   -1.462464320497e+00
    13   -1.543612876933e+00
    14   -1.628227107318e-01
    15   -5.951063963697e-04
    16   -4.818526397452e-03
    17    7.341574949773e-03
    18   -1.206064982147e-01
    19   -1.708274031159e-03
    20    1.174394014722e-01
    21   -1.288798186359e+00
    22    1.138629809809e-02
    23   -1.830844055925e-01
    24   -1.048732434956e-02
    25    1.948618822368e-04
    26    6.748950422709e-04
    27    1.221499036237e-03
    28   -4.757650355617e-01
    29   -4.955663880183e-01
    30   -5.531930057307e-02
    31    1.472212135052e+00
    32    1.526481178282e+00
    33    1.703361835824e-01
    34   -1.134209447170e-03
    35   -7.285627702733e-03
    36    7.346163590017e-03
    37   -1.202619417440e-01
    38   -5.610517281746e-03
    39    1.169554341912e-01
    40   -1.277546044311e+00
    41   -1.370218823339e-02
    42    1.816077198360e-01
    43    1.063282401963e-02
    44   -1.153569456428e-01
    45    1.287412323945e+00
    46    1.819835315627e-01
    47   -5.152909962322e-03
    48    9.342840060898e-03
Sym=X
Ene= 0.972415
Spin=Alpha
Occup=0
     1   -6.431687975547e-02
     2    9.294634336895e-01
     3   -9.130746876635e-02
     4   -9.841983151927e-02
     5   -1.042469880754e-02
     6    2.534726017983e-02
     7    2.521096558393e-01
     8    5.201278852426e-01
     9    4.825731385882e-01
    10   -4.528427083166e-01
    11   -4.437038308093e-03
    12   -1.500093687452e+00
    13    1.401100884385e+00
    14    1.341272394175e-02
    15   -5.397102560827e-02
    16   -1.342014913857e-02
    17   -9.930613950726e-03
    18    1.322588913043e-02
    19   -3.014561821239e-01
    20   -6.249460628783e-02
    21    9.044648616483e-01
    22    9.525450814529e-02
    23    9.228698826324e-02
    24    1.022633549540e-02
    25   -2.520236545989e-02
    26   -2.385595858860e-01
    27   -5.426440965983e-01
    28    4.763780712116e-01
    29   -4.571544808568e-01
    30   -2.177362424289e-03
    31   -1.477442316492e+00
    32    1.423155425443e+00
    33    8.115049468365e-03
    34    5.305969721702e-02
    35    1.341790302680e-02
    36    9.799640906200e-03
    37   -1.483159977606e-02
    38    2.991000117557e-01
    39    6.217318225829e-02
    40   -9.150627172714e-01
    41    9.421475458684e-02
    42    9.360973504185e-02
    43    9.945300672341e-03
    44    6.577367067950e-02
    45   -9.052549099432e-01
    46   -8.812657997917e-02
    47   -9.780154801860e-02
    48   -1.102909386982e-02
[5D]

======= END OF MOLDEN-FORMATTED INPUT FILE =======


        *************************************************************
        *                                                           *
        *  Thank you very much for using Q-Chem.  Have a nice day.  *
        *                                                           *
        *************************************************************


