                  Welcome to Q-Chem
     A Quantum Leap Into The Future Of Chemistry


 Q-Chem 5.4 (devel), Q-Chem, Inc., Pleasanton, CA (2021)

 E. Epifanovsky,  A. T. B. Gilbert,  Xintian Feng,  Joonho Lee,  Yuezhi Mao,  
 N. Mardirossian,  P. Pokhilko,  A. White,  M. Wormit,  M. P. Coons,  
 A. L. Dempwolff,  Zhengting Gan,  D. Hait,  P. R. Horn,  L. D. Jacobson,  
 I. Kaliman,  J. Kussmann,  A. W. Lange,  Ka Un Lao,  D. S. Levine,  Jie Liu,  
 S. C. McKenzie,  A. F. Morrison,  K. Nanda,  F. Plasser,  D. R. Rehn,  
 M. L. Vidal,  Zhi-Qiang You,  Ying Zhu,  B. Alam,  B. Albrecht,  
 A. Aldossary,  E. Alguire,  J. H. Andersen,  D. Barton,  K. Begam,  A. Behn,  
 Y. A. Bernard,  E. J. Berquist,  H. Burton,  A. Carreras,  K. Carter-Fenk,  
 R. Chakraborty,  A. D. Chien,  K. D. Closser,  V. Cofer-Shabica,  
 S. Dasgupta,  Jia Deng,  M. de Wergifosse,  M. Diedenhofen,  Hainam Do,  
 S. Ehlert,  Po-Tung Fang,  S. Fatehi,  Qingguo Feng,  T. Friedhoff,  
 J. Gayvert,  Qinghui Ge,  G. Gidofalvi,  M. Goldey,  J. Gomes,  
 C. Gonzalez-Espinoza,  S. Gulania,  A. Gunina,  M. W. D. Hanson-Heine,  
 P. H. P. Harbach,  A. W. Hauser,  M. F. Herbst,  M. Hernandez Vera,  
 M. Hodecker,  Z. C. Holden,  S. Houck,  Xunkun Huang,  Kerwin Hui,  
 B. C. Huynh,  M. Ivanov,  Hyunjun Ji,  Hanjie Jiang,  B. Kaduk,  S. Kaehler,  
 K. Khistyaev,  Jaehoon Kim,  P. Klunzinger,  Z. Koczor-Benda,  
 Joong Hoon Koh,  D. Kosenkov,  L. Koulias,  T. Kowalczyk,  C. M. Krauter,  
 K. Kue,  A. Kunitsa,  T. Kus,  A. Landau,  K. V. Lawler,  D. Lefrancois,  
 S. Lehtola,  Rain Li,  Yi-Pei Li,  Jiashu Liang,  M. Liebenthal,  
 Hung-Hsuan Lin,  You-Sheng Lin,  Fenglai Liu,  Kuan-Yu Liu,  
 M. Loipersberger,  A. Luenser,  A. Manjanath,  P. Manohar,  E. Mansoor,  
 S. F. Manzer,  Shan-Ping Mao,  A. V. Marenich,  T. Markovich,  S. Mason,  
 S. A. Maurer,  P. F. McLaughlin,  M. F. S. J. Menger,  J.-M. Mewes,  
 S. A. Mewes,  P. Morgante,  J. W. Mullinax,  K. J. Oosterbaan,  G. Paran,  
 Alexander C. Paul,  Suranjan K. Paul,  F. Pavosevic,  Zheng Pei,  S. Prager,  
 E. I. Proynov,  E. Ramos,  B. Rana,  A. E. Rask,  A. Rettig,  R. M. Richard,  
 F. Rob,  E. Rossomme,  T. Scheele,  M. Scheurer,  M. Schneider,  
 N. Sergueev,  S. M. Sharada,  W. Skomorowski,  D. W. Small,  C. J. Stein,  
 Yu-Chuan Su,  E. J. Sundstrom,  Zhen Tao,  J. Thirman,  T. Tsuchimochi,  
 N. M. Tubman,  S. P. Veccham,  O. Vydrov,  J. Wenzel,  J. Witte,  A. Yamada,  
 Kun Yao,  S. Yeganeh,  S. R. Yost,  A. Zech,  Igor Ying Zhang,  Xing Zhang,  
 Yu Zhang,  D. Zuev,  A. Aspuru-Guzik,  A. T. Bell,  N. A. Besley,  
 K. B. Bravaya,  B. R. Brooks,  D. Casanova,  Jeng-Da Chai,  S. Coriani,  
 C. J. Cramer,  A. E. DePrince, III,  R. A. DiStasio Jr.,  A. Dreuw,  
 B. D. Dunietz,  T. R. Furlani,  W. A. Goddard III,  S. Grimme,  
 S. Hammes-Schiffer,  T. Head-Gordon,  W. J. Hehre,  Chao-Ping Hsu,  
 T.-C. Jagau,  Yousung Jung,  A. Klamt,  Jing Kong,  D. S. Lambrecht,  
 WanZhen Liang,  N. J. Mayhall,  C. W. McCurdy,  J. B. Neaton,  
 C. Ochsenfeld,  J. A. Parkhill,  R. Peverati,  V. A. Rassolov,  Yihan Shao,  
 L. V. Slipchenko,  T. Stauch,  R. P. Steele,  J. E. Subotnik,  
 A. J. W. Thom,  A. Tkatchenko,  D. G. Truhlar,  T. Van Voorhis,  
 T. A. Wesolowski,  K. B. Whaley,  H. L. Woodcock III,  P. M. Zimmerman,  
 S. Faraji,  P. M. W. Gill,  M. Head-Gordon,  J. M. Herbert,  A. I. Krylov

 Additional authors for Version 5.4.1: 
 S. Kotaru,  Shaozhi Li,  Xiangyuan Li,  F. Matz,  A. Molle,  Haisheng Ren,  
 Yingli Su,  Hung-Yi Tsai,  C. Utku,  Fang Wang

 Contributors to earlier versions of Q-Chem not listed above: 
 R. D. Adamson,  B. Austin,  R. Baer,  J. Baker,  G. J. O. Beran,  
 K. Brandhorst,  S. T. Brown,  E. F. C. Byrd,  A. K. Chakraborty,  
 G. K. L. Chan,  Chun-Min Chang,  Yunqing Chen,  C.-L. Cheng,  
 Siu Hung Chien,  D. M. Chipman,  D. L. Crittenden,  H. Dachsel,  
 R. J. Doerksen,  A. D. Dutoi,  R. G. Edgar,  J. Fosso-Tande,  
 L. Fusti-Molnar,  D. Ghosh,  A. Ghysels,  A. Golubeva-Zadorozhnaya,  
 J. Gonthier,  M. S. Gordon,  S. R. Gwaltney,  G. Hawkins,  J. E. Herr,  
 A. Heyden,  S. Hirata,  E. G. Hohenstein,  G. Kedziora,  F. J. Keil,  
 C. Kelley,  Jihan Kim,  R. A. King,  R. Z. Khaliullin,  P. P. Korambath,  
 W. Kurlancheek,  A. Laurent,  A. M. Lee,  M. S. Lee,  S. V. Levchenko,  
 Ching Yeh Lin,  D. Liotard,  E. Livshits,  R. C. Lochan,  I. Lotan,  
 L. A. Martinez-Martinez,  P. E. Maslen,  N. Nair,  D. P. O'Neill,  
 D. Neuhauser,  E. Neuscamman,  C. M. Oana,  R. Olivares-Amaya,  R. Olson,  
 T. M. Perrine,  B. Peters,  P. A. Pieniazek,  A. Prociuk,  Y. M. Rhee,  
 J. Ritchie,  M. A. Rohrdanz,  E. Rosta,  N. J. Russ,  H. F. Schaefer III,  
 M. W. Schmidt,  N. E. Schultz,  S. Sharma,  N. Shenvi,  C. D. Sherrill,  
 A. C. Simmonett,  A. Sodt,  T. Stein,  D. Stuck,  K. S. Thanthiriwatte,  
 V. Vanovschi,  L. Vogt,  Tao Wang,  A. Warshel,  M. A. Watson,  
 C. F. Williams,  Q. Wu,  X. Xu,  Jun Yang,  W. Zhang,  Yan Zhao

 Please cite Q-Chem as follows:
 Y. Shao et al., Mol. Phys. 113, 184-215 (2015)
 DOI: 10.1080/00268976.2014.952696

 Q-Chem 5.4.1 for Intel X86 EM64T Linux

 Parts of Q-Chem use Armadillo 9.800.1 (Horizon Scraper).
 http://arma.sourceforge.net/

 Q-Chem begins on Wed Mar 15 17:55:16 2023  

 Host: cpu121.yggdrasil
0

     Scratch files written to /srv/beegfs/scratch/users/f/fum/qchem94335//
 Processing $rem in /home/share/wesolowski/qc5.aug2021.FDE/config/preferences:
 Processing $rem in /home/fum/.qchemrc:

 Checking the input file for inconsistencies... 	...done.

--------------------------------------------------------------
User input:
--------------------------------------------------------------
$comment
generated from CCJob.Templates
$end

$rem
sym_ignore = true
method = adc(2)
ee_states = 10
basis = cc-pVDZ
mem_static = 1024
mem_total = 40000
adc_davidson_maxiter = 900
adc_davidson_conv = 6
adc_print = 3
adc_prop_es = true
adc_prop_es2es = true
adc_prop_tpa = true
molden_format = True
state_analysis = true
print_orbitals = 15
gen_scfman = false
fde_export_density = true
fde_details = 3
$end

$molecule
0 1
H -0.0348278765 -0.2442097827 0.0636489606
C -1.0765972949 -0.5242748755 -0.0023551776
H -1.313264467 -1.5367591607 -0.0757276926
C -2.043634118 0.3926884087 0.0061254933
H -1.8137616575 1.4459188338 0.0804456828
H -3.085977293 0.114931858 -0.0593381042                     
$end
--------------------------------------------------------------
 ----------------------------------------------------------------
             Standard Nuclear Orientation (Angstroms)
    I     Atom           X                Y                Z
 ----------------------------------------------------------------
    1      H      -0.0348278765    -0.2442097827     0.0636489606
    2      C      -1.0765972949    -0.5242748755    -0.0023551776
    3      H      -1.3132644670    -1.5367591607    -0.0757276926
    4      C      -2.0436341180     0.3926884087     0.0061254933
    5      H      -1.8137616575     1.4459188338     0.0804456828
    6      H      -3.0859772930     0.1149318580    -0.0593381042
 ----------------------------------------------------------------
 Nuclear Repulsion Energy =          33.56977193 hartrees
 There are        8 alpha and        8 beta electrons
 Requested basis set is cc-pVDZ
 There are 24 shells and 48 basis functions
 Total memory of 40000 MB is distributed as follows: 
   MEM_STATIC is set to 1024 MB
   QALLOC/CCMAN JOB total memory use is  38976 MB
 Warning: actual memory use might exceed 40000 MB

 Total QAlloc Memory Limit  40000 MB
 Mega-Array Size      1001 MB
 MEM_STATIC part      1024 MB

                       Distance Matrix (Angstroms)
             H (  1)   C (  2)   H (  3)   C (  4)   H (  5)
   C (  2)  1.080776
   H (  3)  1.823324  1.042362
   C (  4)  2.108139  1.332687  2.064681
   H (  5)  2.453859  2.105215  3.028408  1.080583
   H (  6)  3.074674  2.109370  2.422986  1.080700  1.846510

 A cutoff of  1.0D-11 yielded    300 shell pairs
 There are      1220 function pairs (      1329 Cartesian)
 Smallest overlap matrix eigenvalue = 4.81E-03

 Scale SEOQF with 1.000000e-01/1.000000e-01/1.000000e+00

 Standard Electronic Orientation quadrupole field applied
 Nucleus-field energy     =     0.0000000021 hartrees
 Guess from superposition of atomic densities
 Warning:  Energy on first SCF cycle will be non-variational
 SAD guess density has 16.000000 electrons
 A restricted Hartree-Fock SCF calculation will be
 performed using Pulay DIIS extrapolation
 SCF converges when DIIS error is below 1.0E-08
 using 10 threads for integral computing
 -------------------------------------------------------
 OpenMP Integral computing Module                
 Release: version 1.0, May 2013, Q-Chem Inc. Pittsburgh 
 -------------------------------------------------------
 ---------------------------------------
  Cycle       Energy         DIIS Error
 ---------------------------------------
    1     -78.4670120162      1.02E-01
    2     -78.0161728815      7.27E-03
    3     -78.0369623918      1.87E-03
    4     -78.0384575825      5.88E-04
    5     -78.0385854007      6.76E-05
    6     -78.0385875246      2.12E-05
    7     -78.0385877170      6.72E-06
    8     -78.0385877366      1.45E-06
    9     -78.0385877385      4.70E-07
   10     -78.0385877387      9.02E-08
   11     -78.0385877387      6.30E-09 Convergence criterion met
 ---------------------------------------
 SCF time:  CPU 2.01 s  wall 2.83 s
 SCF   energy in the final basis set = -78.03858774
 Total energy in the final basis set = -78.03858774
Exporting Density Matrix to file 'Densmat_SCF.txt'.
Export successful
================================================================================
|                                                                              |
|                                 A D C  M A N                                 |
|                                                                              |
 ------------------------------------------------------------------------------ 
|                                                                              |
| Components:                                                                  |
|                                                                              |
| - libvmm - 1.3-trunk                                                         |
|   Authors:                                                                   |
|   Evgeny Epifanovsky, Ilya Kaliman                                           |
|                                                                              |
| - libtensor - 2.5-trunk                                                      |
|   Authors:                                                                   |
|   Evgeny Epifanovsky, Michael Wormit, Dmitry Zuev, Sam Manzer,               |
|   Ilya Kaliman                                                               |
|                                                                              |
| - libwfa - 1.1-trunk                                                         |
|   Authors:                                                                   |
|   Felix Plasser, Stefanie Mewes (Baeppler), Benjamin Thomitzni,              |
|   Michael Wormit, Feng Chen, Anna I. Krylov, Pavel Pokhilko                  |
|                                                                              |
| - libadc - 1.1-trunk                                                         |
|   Authors:                                                                   |
|   Michael Wormit, Adrian L. Dempwolff, Philipp H. P. Harbach,                |
|   Caroline Krauter, Dirk Rehn, Matthias Schneider, Jan Wenzel                |
|                                                                              |
| - adcman - 2.6-trunk                                                         |
|   Authors:                                                                   |
|   Michael Wormit, Adrian L. Dempwolff, Philipp H. P. Harbach,                |
|   Caroline Krauter, Daniel Lefrancois, Jan-Michael Mewes, Dirk Rehn,         |
|   Matthias Schneider, Jan Wenzel, Andreas Dreuw                              |
|                                                                              |
| Authors of earlier versions of ADCMAN:                                       |
| Andreas Dreuw, Jan Hendrik Starcke, Dirk Rehn, Michael Wormit                |
|                                                                              |
================================================================================

 Created directory /srv/beegfs/scratch/users/f/fum/qchem94335/plots
  Import QC data ...  CPU 0.00 s  wall 0.01 s

 Alpha MOs, Restricted
 -- Occupied --                  
-11.234 -11.230  -1.034  -0.794  -0.645  -0.583  -0.508  -0.374
  1 A     2 A     3 A     4 A     5 A     6 A     7 A     8 A                  
 -- Virtual --                   
  0.168   0.204   0.234   0.241   0.303   0.462   0.577   0.618
  9 A    10 A    11 A    12 A    13 A    14 A    15 A    16 A                  
  0.689   0.713   0.790   0.808   0.865   0.941   0.974   1.013
 17 A    18 A    19 A    20 A    21 A    22 A    23 A    24 A                  
  1.131   1.233   1.259   1.267   1.296   1.607   1.732   1.758
 25 A    26 A    27 A    28 A    29 A    30 A    31 A    32 A                  
  1.824   1.861   1.873   1.935   1.978   1.991   2.223   2.263
 33 A    34 A    35 A    36 A    37 A    38 A    39 A    40 A                  
  2.389   2.472   2.520   2.646   2.747   2.852   3.170   3.427
 41 A    42 A    43 A    44 A    45 A    46 A    47 A    48 A                  

 Beta MOs, Restricted
 -- Occupied --                  
-11.234 -11.230  -1.034  -0.794  -0.645  -0.583  -0.508  -0.374
  1 A     2 A     3 A     4 A     5 A     6 A     7 A     8 A                  
 -- Virtual --                   
  0.168   0.204   0.234   0.241   0.303   0.462   0.577   0.618
  9 A    10 A    11 A    12 A    13 A    14 A    15 A    16 A                  
  0.689   0.713   0.790   0.808   0.865   0.941   0.974   1.013
 17 A    18 A    19 A    20 A    21 A    22 A    23 A    24 A                  
  1.131   1.233   1.259   1.267   1.296   1.607   1.732   1.758
 25 A    26 A    27 A    28 A    29 A    30 A    31 A    32 A                  
  1.824   1.861   1.873   1.935   1.978   1.991   2.223   2.263
 33 A    34 A    35 A    36 A    37 A    38 A    39 A    40 A                  
  2.389   2.472   2.520   2.646   2.747   2.852   3.170   3.427
 41 A    42 A    43 A    44 A    45 A    46 A    47 A    48 A                  
  Import AO data ...  CPU 0.01 s  wall 0.06 s
  Using point group: C1
  Irreducible representations in point group: A
  Molecular orbitals: 
  Occupied MOs:
  Block   0:   1 (  A) A   2 (  A) A   3 (  A) A   4 (  A) A   5 (  A) A
                  -11.23      -11.23      -1.034     -0.7935     -0.6448
               6 (  A) A   7 (  A) A   8 (  A) A
                 -0.5825     -0.5078     -0.3737
  Block   1:   1 (  A) B   2 (  A) B   3 (  A) B   4 (  A) B   5 (  A) B
                  -11.23      -11.23      -1.034     -0.7935     -0.6448
               6 (  A) B   7 (  A) B   8 (  A) B
                 -0.5825     -0.5078     -0.3737
  Virtual MOs:
  Block   0:   9 (  A) A  10 (  A) A  11 (  A) A  12 (  A) A  13 (  A) A
                  0.1685      0.2045       0.234      0.2414      0.3034
              14 (  A) A  15 (  A) A  16 (  A) A  17 (  A) A  18 (  A) A
                  0.4624      0.5767      0.6176      0.6895      0.7126
              19 (  A) A  20 (  A) A  21 (  A) A  22 (  A) A
                  0.7903      0.8081      0.8651      0.9413
  Block   1:  23 (  A) A  24 (  A) A  25 (  A) A  26 (  A) A  27 (  A) A
                  0.9742       1.013       1.131       1.233       1.259
              28 (  A) A  29 (  A) A  30 (  A) A  31 (  A) A  32 (  A) A
                   1.267       1.296       1.607       1.732       1.758
              33 (  A) A  34 (  A) A  35 (  A) A  36 (  A) A
                   1.824       1.861       1.873       1.935
  Block   2:  37 (  A) A  38 (  A) A  39 (  A) A  40 (  A) A  41 (  A) A
                   1.978       1.991       2.223       2.263       2.389
              42 (  A) A  43 (  A) A  44 (  A) A  45 (  A) A  46 (  A) A
                   2.472        2.52       2.646       2.747       2.852
              47 (  A) A  48 (  A) A
                    3.17       3.427
  Block   3:   9 (  A) B  10 (  A) B  11 (  A) B  12 (  A) B  13 (  A) B
                  0.1685      0.2045       0.234      0.2414      0.3034
              14 (  A) B  15 (  A) B  16 (  A) B  17 (  A) B  18 (  A) B
                  0.4624      0.5767      0.6176      0.6895      0.7126
              19 (  A) B  20 (  A) B  21 (  A) B  22 (  A) B
                  0.7903      0.8081      0.8651      0.9413
  Block   4:  23 (  A) B  24 (  A) B  25 (  A) B  26 (  A) B  27 (  A) B
                  0.9742       1.013       1.131       1.233       1.259
              28 (  A) B  29 (  A) B  30 (  A) B  31 (  A) B  32 (  A) B
                   1.267       1.296       1.607       1.732       1.758
              33 (  A) B  34 (  A) B  35 (  A) B  36 (  A) B
                   1.824       1.861       1.873       1.935
  Block   5:  37 (  A) B  38 (  A) B  39 (  A) B  40 (  A) B  41 (  A) B
                   1.978       1.991       2.223       2.263       2.389
              42 (  A) B  43 (  A) B  44 (  A) B  45 (  A) B  46 (  A) B
                   2.472        2.52       2.646       2.747       2.852
              47 (  A) B  48 (  A) B
                    3.17       3.427
  Import MO data ...  CPU 0.01 s  wall 0.02 s
  Import HF data ...  CPU 0.07 s  wall 0.03 s
  Import 2e integrals ...  CPU 0.85 s  wall 0.13 s

--------------------------------------------------------------------------------
                                   HF Summary                                   
--------------------------------------------------------------------------------
  Energy:                                                  -78.0385877387 a.u.
  Dip. moment [a.u.]:                  [  -0.001548,   -0.005598,   -0.000619]
  Total dipole [Debye]:                                               0.014846
  <r^2> [a.u.]:                        [ 175.298380,   34.470813,   11.589284]
  Total <r^2> [a.u.]:                                               221.358477
--------------------------------------------------------------------------------
  HF properties ...  CPU 0.01 s  wall 0.01 s
  MP(1) calculation ...  CPU 0.01 s  wall 0.01 s
  N^6 prerequesite intermediates ...  CPU 0.42 s  wall 0.07 s
  Difference density matrix of state mp2_gs printed to ASCII file 'State_mp2_gs_Difference.txt'
Exporting MP density matrix to file 'Densmat_MP.txt'.
Export successful
  Total density matrix of state mp2_gs printed to ASCII file 'State_mp2_gs_Total.txt'
Exporting MP density matrix to file 'Densmat_MP.txt'.
Export successful

--------------------------------------------------------------------------------
                                 MP(2) Summary                                  
--------------------------------------------------------------------------------
  MP energy contribution:                                   -0.2791627203 a.u.
  Total energy:                                            -78.3177504590 a.u.
  Dip. moment [a.u.]:                  [  -0.001028,   -0.005124,   -0.000564]
  Total dipole [Debye]:                                               0.013361
  <r^2> [a.u.]:                        [ 175.349530,   34.517044,   11.423748]
  Total <r^2> [a.u.]:                                               221.290322

  Density matrix analysis:
  ------------------------
  NOs
    Occupation of frontier NOs:
       0.0453   1.9384
    Number of electrons: 16.000000
    Number of unpaired electrons: n_u =  0.40090, n_u,nl =  0.04463
    NO participation ratio (PR_NO): 13.821499
  
  
  Mulliken Population Analysis
  Atom      Charge (e)              h+              e-           Del q
  --------------------------------------------------------------------
   1 H        0.049866        0.014080       -0.011093        0.002987
   2 C       -0.080514        0.090800       -0.097697       -0.006897
   3 H        0.038929        0.014703       -0.011011        0.003692
   4 C       -0.107727        0.093352       -0.098967       -0.005616
   5 H        0.049425        0.014107       -0.011172        0.002936
   6 H        0.050020        0.014065       -0.011167        0.002899
  --------------------------------------------------------------------
  Sum:       -0.000000        0.241107       -0.241107        0.000000
  
  Multipole moment analysis of the density matrix
    Molecular charge:                      -0.000000
    Number of electrons:                   16.000000
      Center of electronic charge [Ang]: [ -1.560542,  -0.062933,   0.001997]
    Total nuclear charge:                  16.000000
      Center of nuclear charge [Ang]:    [ -1.560576,  -0.063102,   0.001978]
    Dipole moment [D]:                     0.013361
      Cartesian components [D]:          [ -0.002612,  -0.013025,  -0.001432]
    RMS size of the density [Ang]:         1.197380
      Cartesian components [Ang]:        [  0.796013,   0.774693,   0.447138]
  
  Exciton analysis of the difference density matrix
    <r_h> [Ang]:                  [ -1.562187,  -0.057980,   0.002249]
    <r_e> [Ang]:                  [ -1.563328,  -0.059020,   0.002126]
    |<r_e - r_h>| [Ang]:            0.001549
    Hole size [Ang]:                1.388937
      Cartesian components [Ang]: [  0.846822,   0.826344,   0.727457]
    Electron size [Ang]:            1.358786
      Cartesian components [Ang]: [  0.879174,   0.858146,   0.580462]
--------------------------------------------------------------------------------
  MP(2) calculation ...  CPU 0.11 s  wall 0.35 s
  Start ADC(2)-s ...  CPU 0.01 s  wall 0.00 s
  ADC(2) intermediates ...  CPU 0.02 s  wall 0.01 s
  Starting Davidson for singlet states of irrep A ... 
--------------------------------------------------------------------------------
   It NVec Conv  Avg. Norm  Max. Norm  Conv. states           Remark
--------------------------------------------------------------------------------
        10    0  1.330e-01  4.690e-01  0.4123 n n n n n n n n Guess.
    1   20    0  2.334e-02  1.111e-01  0.3262 n n n n n n n n 
    2   30    0  5.951e-03  2.789e-02  0.3214 n n n n n n n n 
    3   40    0  2.119e-03  1.490e-02  0.3210 n n n n n n n n 
    4   50    0  7.146e-04  5.526e-03  0.3210 n n n n n n n n 
    5   20    0  3.270e-04  2.473e-03  0.3210 n n n n n n n n Subspace collapsed.
    6   30    0  2.384e-04  2.145e-03  0.3210 n n n n n n n n 
    7   40    0  1.566e-04  1.416e-03  0.3210 n n n n n n n n 
    8   50    0  9.885e-05  8.842e-04  0.3210 n n n n n n n n 
    9   20    2  7.976e-05  7.320e-04  0.3210 n y n y n n n n Subspace collapsed.
   10   30    2  6.334e-05  5.848e-04  0.3210 n y n y n n n n 
   11   40    4  5.343e-05  5.201e-04  0.3210 n y y y y n n n 
   12   50    5  4.067e-05  4.013e-04  0.3210 n y y y y y n n 
   13   20    6  1.955e-05  1.935e-04  0.3210 y y y y y y n n Subspace collapsed.
   14   30    6  1.328e-05  1.311e-04  0.3210 y y y y y y n n 
   15   40    6  8.211e-06  8.111e-05  0.3210 y y y y y y n n 
   16   50    6  8.531e-06  8.486e-05  0.3210 y y y y y y n n 
   17   20    7  4.702e-06  4.652e-05  0.3210 y y y y y y n y Subspace collapsed.
   18   30    7  8.016e-06  7.999e-05  0.3210 y y y y y y n y 
   19   40    7  7.363e-06  7.351e-05  0.3210 y y y y y y n y 
   20   50    8  5.869e-06  5.867e-05  0.3210 y y y y y y n y 
   21   20    8  3.431e-06  3.428e-05  0.3210 y y y y y y n y Subspace collapsed.
   22   30    9  2.966e-06  2.965e-05  0.3210 y y y y y y y y 
   23   40    9  1.451e-06  1.450e-05  0.3210 y y y y y y y y 
   24   49    9  1.569e-06  1.569e-05  0.3210 y y y y y y y y 
   25   50    9  1.542e-06  1.542e-05  0.3210 y y y y y y y y 
   26   17    9  8.233e-07  8.233e-06  0.3210 y y y y y y y y Subspace collapsed.
   27   23    9  1.461e-06  1.461e-05  0.3210 y y y y y y y y 
   28   28    9  1.143e-06  1.143e-05  0.3210 y y y y y y y y 
   29   33    9  1.185e-06  1.185e-05  0.3210 y y y y y y y y 
   30   33    9  1.185e-06  1.185e-05  0.3210 y y y y y y y y 
   31   43    9  7.238e-07  7.238e-06  0.3210 y y y y y y y y 
   32   47    9  3.394e-07  3.394e-06  0.3210 y y y y y y y y 
   33   50    9  1.943e-07  1.943e-06  0.3210 y y y y y y y y 
   34   14   10  8.337e-08  8.337e-07  0.3210 y y y y y y y y Converged.
--------------------------------------------------------------------------------
  Davidson Summary: 
 ------------------------------------------------------------
  State  0: excitation energy =   0.3210 a.u.   (converged)
  State  1: excitation energy =   0.3348 a.u.   (converged)
  State  2: excitation energy =   0.3381 a.u.   (converged)
  State  3: excitation energy =   0.3634 a.u.   (converged)
  State  4: excitation energy =   0.3765 a.u.   (converged)
  State  5: excitation energy =   0.3881 a.u.   (converged)
  State  6: excitation energy =   0.4278 a.u.   (converged)
  State  7: excitation energy =   0.4487 a.u.   (converged)
  State  8: excitation energy =   0.4579 a.u.   (converged)
  State  9: excitation energy =   0.4683 a.u.   (converged)
 ------------------------------------------------------------

  Singlet states of irrep A ...  CPU 102.58 s  wall 26.84 s
  TDMs ...  CPU 0.60 s  wall 0.24 s
  SDMs ...  CPU 1.26 s  wall 0.44 s
  Starting TPA DIIS iterations ... 
------------------------------------ 
   It     Res. Norm  Remark
------------------------------------
                       Guess.
    1     4.407e+00  
    2     5.850e+00  
    3     1.080e+00  
    4     2.581e-01  
    5     6.639e-02  
    6     2.705e-02  
    7     8.200e-03  
    8     1.458e-03  
    9     5.360e-04  
   10     8.854e-05  
   11     2.814e-05  
   12     4.360e-06  
   13     1.408e-06  
   14     4.732e-07  Converged.
   ... Converged in 14 steps (norm: 4.73224e-07)
------------------------------------
  Starting TPA DIIS iterations ... 
------------------------------------ 
   It     Res. Norm  Remark
------------------------------------
                       Guess.
    1     4.204e+00  
    2     5.563e+00  
    3     1.019e+00  
    4     2.465e-01  
    5     6.459e-02  
    6     2.517e-02  
    7     7.895e-03  
    8     1.315e-03  
    9     4.818e-04  
   10     8.297e-05  
   11     2.511e-05  
   12     4.108e-06  
   13     1.283e-06  
   14     4.418e-07  Converged.
   ... Converged in 14 steps (norm: 4.41768e-07)
------------------------------------
  Starting TPA DIIS iterations ... 
------------------------------------ 
   It     Res. Norm  Remark
------------------------------------
                       Guess.
    1     6.881e-01  
    2     4.856e-01  
    3     1.720e-01  
    4     5.814e-02  
    5     1.801e-02  
    6     6.646e-03  
    7     1.083e-03  
    8     4.106e-04  
    9     1.595e-04  
   10     2.685e-05  
   11     1.839e-05  
   12     7.204e-06  
   13     3.697e-06  
   14     1.560e-06  
   15     4.506e-07  Converged.
   ... Converged in 15 steps (norm: 4.50553e-07)
------------------------------------
  Starting TPA DIIS iterations ... 
------------------------------------ 
   It     Res. Norm  Remark
------------------------------------
                       Guess.
    1     4.750e+00  
    2     6.467e+00  
    3     1.177e+00  
    4     2.925e-01  
    5     7.642e-02  
    6     3.145e-02  
    7     9.509e-03  
    8     1.688e-03  
    9     6.262e-04  
   10     1.040e-04  
   11     3.347e-05  
   12     5.242e-06  
   13     1.716e-06  
   14     5.838e-07  Converged.
   ... Converged in 14 steps (norm: 5.83765e-07)
------------------------------------
  Starting TPA DIIS iterations ... 
------------------------------------ 
   It     Res. Norm  Remark
------------------------------------
                       Guess.
    1     4.531e+00  
    2     6.150e+00  
    3     1.110e+00  
    4     2.790e-01  
    5     7.438e-02  
    6     2.924e-02  
    7     9.153e-03  
    8     1.521e-03  
    9     5.620e-04  
   10     9.750e-05  
   11     2.987e-05  
   12     4.955e-06  
   13     1.556e-06  
   14     5.470e-07  Converged.
   ... Converged in 14 steps (norm: 5.47023e-07)
------------------------------------
  Starting TPA DIIS iterations ... 
------------------------------------ 
   It     Res. Norm  Remark
------------------------------------
                       Guess.
    1     7.023e-01  
    2     5.065e-01  
    3     1.839e-01  
    4     6.720e-02  
    5     1.970e-02  
    6     7.378e-03  
    7     1.253e-03  
    8     4.813e-04  
    9     1.895e-04  
   10     3.461e-05  
   11     2.248e-05  
   12     8.938e-06  
   13     4.799e-06  
   14     2.098e-06  
   15     5.723e-07  Converged.
   ... Converged in 15 steps (norm: 5.72295e-07)
------------------------------------
  Starting TPA DIIS iterations ... 
------------------------------------ 
   It     Res. Norm  Remark
------------------------------------
                       Guess.
    1     4.839e+00  
    2     6.629e+00  
    3     1.202e+00  
    4     3.017e-01  
    5     7.909e-02  
    6     3.263e-02  
    7     9.858e-03  
    8     1.750e-03  
    9     6.504e-04  
   10     1.082e-04  
   11     3.491e-05  
   12     5.482e-06  
   13     1.800e-06  
   14     6.145e-07  Converged.
   ... Converged in 14 steps (norm: 6.14534e-07)
------------------------------------
  Starting TPA DIIS iterations ... 
------------------------------------ 
   It     Res. Norm  Remark
------------------------------------
                       Guess.
    1     4.615e+00  
    2     6.304e+00  
    3     1.134e+00  
    4     2.876e-01  
    5     7.699e-02  
    6     3.033e-02  
    7     9.489e-03  
    8     1.575e-03  
    9     5.834e-04  
   10     1.014e-04  
   11     3.116e-05  
   12     5.187e-06  
   13     1.631e-06  
   14     5.765e-07  Converged.
   ... Converged in 14 steps (norm: 5.7645e-07)
------------------------------------
  Starting TPA DIIS iterations ... 
------------------------------------ 
   It     Res. Norm  Remark
------------------------------------
                       Guess.
    1     7.058e-01  
    2     5.117e-01  
    3     1.869e-01  
    4     6.966e-02  
    5     2.013e-02  
    6     7.572e-03  
    7     1.299e-03  
    8     5.000e-04  
    9     1.975e-04  
   10     3.686e-05  
   11     2.361e-05  
   12     9.428e-06  
   13     5.118e-06  
   14     2.255e-06  
   15     6.042e-07  Converged.
   ... Converged in 15 steps (norm: 6.04248e-07)
------------------------------------
  Starting TPA DIIS iterations ... 
------------------------------------ 
   It     Res. Norm  Remark
------------------------------------
                       Guess.
    1     5.624e+00  
    2     8.097e+00  
    3     1.422e+00  
    4     3.875e-01  
    5     1.041e-01  
    6     4.377e-02  
    7     1.313e-02  
    8     2.325e-03  
    9     8.788e-04  
   10     1.475e-04  
   11     4.883e-05  
   12     7.804e-06  
   13     2.648e-06  
   14     9.294e-07  Converged.
   ... Converged in 14 steps (norm: 9.29375e-07)
------------------------------------
  Starting TPA DIIS iterations ... 
------------------------------------ 
   It     Res. Norm  Remark
------------------------------------
                       Guess.
    1     5.361e+00  
    2     7.700e+00  
    3     1.341e+00  
    4     3.683e-01  
    5     1.014e-01  
    6     4.065e-02  
    7     1.263e-02  
    8     2.084e-03  
    9     7.861e-04  
   10     1.383e-04  
   11     4.363e-05  
   12     7.453e-06  
   13     2.378e-06  
   14     8.806e-07  Converged.
   ... Converged in 14 steps (norm: 8.80647e-07)
------------------------------------
  Starting TPA DIIS iterations ... 
------------------------------------ 
   It     Res. Norm  Remark
------------------------------------
                       Guess.
    1     7.340e-01  
    2     5.557e-01  
    3     2.131e-01  
    4     9.347e-02  
    5     2.390e-02  
    6     9.394e-03  
    7     1.743e-03  
    8     6.672e-04  
    9     2.724e-04  
   10     6.081e-05  
   11     3.496e-05  
   12     1.458e-05  
   13     8.662e-06  
   14     3.951e-06  
   15     9.062e-07  Converged.
   ... Converged in 15 steps (norm: 9.06192e-07)
------------------------------------
  Starting TPA DIIS iterations ... 
------------------------------------ 
   It     Res. Norm  Remark
------------------------------------
                       Guess.
    1     6.116e+00  
    2     9.051e+00  
    3     1.559e+00  
    4     4.455e-01  
    5     1.210e-01  
    6     5.138e-02  
    7     1.533e-02  
    8     2.712e-03  
    9     1.034e-03  
   10     1.743e-04  
   11     5.851e-05  
   12     9.428e-06  
   13     3.267e-06  
   14     1.169e-06  
   15     4.773e-07  Converged.
   ... Converged in 15 steps (norm: 4.77318e-07)
------------------------------------
  Starting TPA DIIS iterations ... 
------------------------------------ 
   It     Res. Norm  Remark
------------------------------------
                       Guess.
    1     5.830e+00  
    2     8.607e+00  
    3     1.470e+00  
    4     4.226e-01  
    5     1.179e-01  
    6     4.768e-02  
    7     1.475e-02  
    8     2.425e-03  
    9     9.241e-04  
   10     1.636e-04  
   11     5.237e-05  
   12     9.067e-06  
   13     2.921e-06  
   14     1.116e-06  
   15     3.099e-07  Converged.
   ... Converged in 15 steps (norm: 3.09883e-07)
------------------------------------
  Starting TPA DIIS iterations ... 
------------------------------------ 
   It     Res. Norm  Remark
------------------------------------
                       Guess.
    1     7.494e-01  
    2     5.815e-01  
    3     2.289e-01  
    4     1.102e-01  
    5     2.629e-02  
    6     1.062e-02  
    7     2.055e-03  
    8     7.677e-04  
    9     3.220e-04  
   10     7.906e-05  
   11     4.336e-05  
   12     1.861e-05  
   13     1.168e-05  
   14     5.272e-06  
   15     1.139e-06  
   16     5.019e-07  Converged.
   ... Converged in 16 steps (norm: 5.01939e-07)
------------------------------------
  Starting TPA DIIS iterations ... 
------------------------------------ 
   It     Res. Norm  Remark
------------------------------------
                       Guess.
    1     6.611e+00  
    2     1.003e+01  
    3     1.696e+00  
    4     5.066e-01  
    5     1.388e-01  
    6     5.947e-02  
    7     1.766e-02  
    8     3.120e-03  
    9     1.200e-03  
   10     2.028e-04  
   11     6.887e-05  
   12     1.118e-05  
   13     3.951e-06  
   14     1.445e-06  
   15     6.071e-07  Converged.
   ... Converged in 15 steps (norm: 6.07134e-07)
------------------------------------
  Starting TPA DIIS iterations ... 
------------------------------------ 
   It     Res. Norm  Remark
------------------------------------
                       Guess.
    1     6.301e+00  
    2     9.541e+00  
    3     1.599e+00  
    4     4.797e-01  
    5     1.352e-01  
    6     5.515e-02  
    7     1.698e-02  
    8     2.783e-03  
    9     1.071e-03  
   10     1.904e-04  
   11     6.177e-05  
   12     1.083e-05  
   13     3.522e-06  
   14     1.391e-06  
   15     3.920e-07  Converged.
   ... Converged in 15 steps (norm: 3.92016e-07)
------------------------------------
  Starting TPA DIIS iterations ... 
------------------------------------ 
   It     Res. Norm  Remark
------------------------------------
                       Guess.
    1     7.637e-01  
    2     6.061e-01  
    3     2.444e-01  
    4     1.282e-01  
    5     2.876e-02  
    6     1.192e-02  
    7     2.391e-03  
    8     8.611e-04  
    9     3.730e-04  
   10     9.944e-05  
   11     5.279e-05  
   12     2.330e-05  
   13     1.544e-05  
   14     6.776e-06  
   15     1.435e-06  
   16     6.299e-07  Converged.
   ... Converged in 16 steps (norm: 6.29874e-07)
------------------------------------
  Starting TPA DIIS iterations ... 
------------------------------------ 
   It     Res. Norm  Remark
------------------------------------
                       Guess.
    1     8.910e+00  
    2     1.487e+01  
    3     2.320e+00  
    4     8.216e-01  
    5     2.305e-01  
    6     1.021e-01  
    7     2.965e-02  
    8     5.215e-03  
    9     2.068e-03  
   10     3.513e-04  
   11     1.228e-04  
   12     2.054e-05  
   13     7.823e-06  
   14     3.258e-06  
   15     1.462e-06  
   16     6.071e-07  Converged.
   ... Converged in 16 steps (norm: 6.07071e-07)
------------------------------------
  Starting TPA DIIS iterations ... 
------------------------------------ 
   It     Res. Norm  Remark
------------------------------------
                       Guess.
    1     8.487e+00  
    2     1.414e+01  
    3     2.188e+00  
    4     7.727e-01  
    5     2.248e-01  
    6     9.449e-02  
    7     2.848e-02  
    8     4.612e-03  
    9     1.840e-03  
   10     3.308e-04  
   11     1.119e-04  
   12     2.075e-05  
   13     6.971e-06  
   14     3.279e-06  
   15     1.042e-06  
   16     7.377e-07  Converged.
   ... Converged in 16 steps (norm: 7.37744e-07)
------------------------------------
  Starting TPA DIIS iterations ... 
------------------------------------ 
   It     Res. Norm  Remark
------------------------------------
                       Guess.
    1     8.170e-01  
    2     7.079e-01  
    3     3.120e-01  
    4     2.236e-01  
    5     4.113e-02  
    6     1.840e-02  
    7     4.199e-03  
    8     1.186e-03  
    9     6.204e-04  
   10     2.133e-04  
   11     1.089e-04  
   12     5.296e-05  
   13     4.203e-05  
   14     1.570e-05  
   15     3.886e-06  
   16     1.402e-06  
   17     4.449e-07  Converged.
   ... Converged in 17 steps (norm: 4.44932e-07)
------------------------------------
  Starting TPA DIIS iterations ... 
------------------------------------ 
   It     Res. Norm  Remark
------------------------------------
                       Guess.
    1     1.068e+01  
    2     1.889e+01  
    3     2.789e+00  
    4     1.091e+00  
    5     3.099e-01  
    6     1.398e-01  
    7     4.001e-02  
    8     7.021e-03  
    9     2.831e-03  
   10     4.808e-04  
   11     1.679e-04  
   12     2.904e-05  
   13     1.155e-05  
   14     5.331e-06  
   15     2.437e-06  
   16     1.018e-06  
   17     4.232e-07  Converged.
   ... Converged in 17 steps (norm: 4.23177e-07)
------------------------------------
  Starting TPA DIIS iterations ... 
------------------------------------ 
   It     Res. Norm  Remark
------------------------------------
                       Guess.
    1     1.017e+01  
    2     1.795e+01  
    3     2.629e+00  
    4     1.023e+00  
    5     3.022e-01  
    6     1.293e-01  
    7     3.841e-02  
    8     6.177e-03  
    9     2.519e-03  
   10     4.540e-04  
   11     1.557e-04  
   12     3.029e-05  
   13     1.032e-05  
   14     5.553e-06  
   15     1.996e-06  
   16     1.406e-06  
   17     6.523e-07  Converged.
   ... Converged in 17 steps (norm: 6.52257e-07)
------------------------------------
  Starting TPA DIIS iterations ... 
------------------------------------ 
   It     Res. Norm  Remark
------------------------------------
                       Guess.
    1     8.487e-01  
    2     7.763e-01  
    3     3.599e-01  
    4     3.032e-01  
    5     5.153e-02  
    6     2.350e-02  
    7     5.774e-03  
    8     1.383e-03  
    9     8.193e-04  
   10     3.150e-04  
   11     1.647e-04  
   12     8.288e-05  
   13     6.840e-05  
   14     2.438e-05  
   15     7.068e-06  
   16     2.243e-06  
   17     6.285e-07  Converged.
   ... Converged in 17 steps (norm: 6.28543e-07)
------------------------------------
  Starting TPA DIIS iterations ... 
------------------------------------ 
   It     Res. Norm  Remark
------------------------------------
                       Guess.
    1     1.164e+01  
    2     2.115e+01  
    3     3.038e+00  
    4     1.245e+00  
    5     3.556e-01  
    6     1.618e-01  
    7     4.597e-02  
    8     8.059e-03  
    9     3.275e-03  
   10     5.554e-04  
   11     1.932e-04  
   12     3.416e-05  
   13     1.392e-05  
   14     6.734e-06  
   15     3.106e-06  
   16     1.283e-06  
   17     5.659e-07  Converged.
   ... Converged in 17 steps (norm: 5.65928e-07)
------------------------------------
  Starting TPA DIIS iterations ... 
------------------------------------ 
   It     Res. Norm  Remark
------------------------------------
                       Guess.
    1     1.109e+01  
    2     2.011e+01  
    3     2.865e+00  
    4     1.165e+00  
    5     3.468e-01  
    6     1.495e-01  
    7     4.412e-02  
    8     7.073e-03  
    9     2.915e-03  
   10     5.252e-04  
   11     1.807e-04  
   12     3.619e-05  
   13     1.242e-05  
   14     7.118e-06  
   15     2.728e-06  
   16     1.887e-06  
   17     8.704e-07  Converged.
   ... Converged in 17 steps (norm: 8.70371e-07)
------------------------------------
  Starting TPA DIIS iterations ... 
------------------------------------ 
   It     Res. Norm  Remark
------------------------------------
                       Guess.
    1     8.635e-01  
    2     8.108e-01  
    3     3.846e-01  
    4     3.457e-01  
    5     5.738e-02  
    6     2.616e-02  
    7     6.665e-03  
    8     1.503e-03  
    9     9.297e-04  
   10     3.732e-04  
   11     1.989e-04  
   12     1.010e-04  
   13     8.284e-05  
   14     2.963e-05  
   15     9.255e-06  
   16     2.827e-06  
   17     7.750e-07  Converged.
   ... Converged in 17 steps (norm: 7.74963e-07)
------------------------------------
  Starting TPA DIIS iterations ... 
------------------------------------ 
   It     Res. Norm  Remark
------------------------------------
                       Guess.
    1     1.290e+01  
    2     2.420e+01  
    3     3.359e+00  
    4     1.452e+00  
    5     4.177e-01  
    6     1.920e-01  
    7     5.408e-02  
    8     9.470e-03  
    9     3.882e-03  
   10     6.569e-04  
   11     2.269e-04  
   12     4.142e-05  
   13     1.749e-05  
   14     8.887e-06  
   15     4.153e-06  
   16     1.659e-06  
   17     8.028e-07  Converged.
   ... Converged in 17 steps (norm: 8.02838e-07)
------------------------------------
  Starting TPA DIIS iterations ... 
------------------------------------ 
   It     Res. Norm  Remark
------------------------------------
                       Guess.
    1     1.228e+01  
    2     2.301e+01  
    3     3.167e+00  
    4     1.356e+00  
    5     4.074e-01  
    6     1.774e-01  
    7     5.188e-02  
    8     8.288e-03  
    9     3.458e-03  
   10     6.225e-04  
   11     2.147e-04  
   12     4.469e-05  
   13     1.552e-05  
   14     9.529e-06  
   15     3.941e-06  
   16     2.651e-06  
   17     1.195e-06  
   18     5.407e-07  Converged.
   ... Converged in 18 steps (norm: 5.40663e-07)
------------------------------------
  Starting TPA DIIS iterations ... 
------------------------------------ 
   It     Res. Norm  Remark
------------------------------------
                       Guess.
    1     8.811e-01  
    2     8.535e-01  
    3     4.158e-01  
    4     3.988e-01  
    5     6.520e-02  
    6     2.944e-02  
    7     7.849e-03  
    8     1.689e-03  
    9     1.077e-03  
   10     4.512e-04  
   11     2.472e-04  
   12     1.263e-04  
   13     1.005e-04  
   14     3.702e-05  
   15     1.259e-05  
   16     3.775e-06  
   17     1.048e-06  
   18     7.295e-07  Converged.
   ... Converged in 18 steps (norm: 7.29537e-07)
------------------------------------
  Two-photon absorbption ...  CPU 102.91 s  wall 19.52 s
  Transition density matrix of state singlet_A_1 printed to ASCII file 'State_singlet_A_1_Transition.txt'
  Transition density matrix of state singlet_A_2 printed to ASCII file 'State_singlet_A_2_Transition.txt'
  Transition density matrix of state singlet_A_3 printed to ASCII file 'State_singlet_A_3_Transition.txt'
  Transition density matrix of state singlet_A_4 printed to ASCII file 'State_singlet_A_4_Transition.txt'
  Transition density matrix of state singlet_A_5 printed to ASCII file 'State_singlet_A_5_Transition.txt'
  Transition density matrix of state singlet_A_6 printed to ASCII file 'State_singlet_A_6_Transition.txt'
  Transition density matrix of state singlet_A_7 printed to ASCII file 'State_singlet_A_7_Transition.txt'
  Transition density matrix of state singlet_A_8 printed to ASCII file 'State_singlet_A_8_Transition.txt'
  Transition density matrix of state singlet_A_9 printed to ASCII file 'State_singlet_A_9_Transition.txt'
  Transition density matrix of state singlet_A_10 printed to ASCII file 'State_singlet_A_10_Transition.txt'
  Transition properties ...  CPU 0.14 s  wall 0.75 s
  Difference density matrix of state singlet_A_1 printed to ASCII file 'State_singlet_A_1_Difference.txt'
  Total density matrix of state singlet_A_1 printed to ASCII file 'State_singlet_A_1_Total.txt'
  Difference density matrix of state singlet_A_2 printed to ASCII file 'State_singlet_A_2_Difference.txt'
  Total density matrix of state singlet_A_2 printed to ASCII file 'State_singlet_A_2_Total.txt'
  Difference density matrix of state singlet_A_3 printed to ASCII file 'State_singlet_A_3_Difference.txt'
  Total density matrix of state singlet_A_3 printed to ASCII file 'State_singlet_A_3_Total.txt'
  Difference density matrix of state singlet_A_4 printed to ASCII file 'State_singlet_A_4_Difference.txt'
  Total density matrix of state singlet_A_4 printed to ASCII file 'State_singlet_A_4_Total.txt'
  Difference density matrix of state singlet_A_5 printed to ASCII file 'State_singlet_A_5_Difference.txt'
  Total density matrix of state singlet_A_5 printed to ASCII file 'State_singlet_A_5_Total.txt'
  Difference density matrix of state singlet_A_6 printed to ASCII file 'State_singlet_A_6_Difference.txt'
  Total density matrix of state singlet_A_6 printed to ASCII file 'State_singlet_A_6_Total.txt'
  Difference density matrix of state singlet_A_7 printed to ASCII file 'State_singlet_A_7_Difference.txt'
  Total density matrix of state singlet_A_7 printed to ASCII file 'State_singlet_A_7_Total.txt'
  Difference density matrix of state singlet_A_8 printed to ASCII file 'State_singlet_A_8_Difference.txt'
  Total density matrix of state singlet_A_8 printed to ASCII file 'State_singlet_A_8_Total.txt'
  Difference density matrix of state singlet_A_9 printed to ASCII file 'State_singlet_A_9_Difference.txt'
  Total density matrix of state singlet_A_9 printed to ASCII file 'State_singlet_A_9_Total.txt'
  Difference density matrix of state singlet_A_10 printed to ASCII file 'State_singlet_A_10_Difference.txt'
  Total density matrix of state singlet_A_10 printed to ASCII file 'State_singlet_A_10_Total.txt'
  Properties ...  CPU 0.26 s  wall 1.11 s
  ISR TDMS ...  CPU 7.58 s  wall 2.65 s
  ISR transition properties ...  CPU 0.15 s  wall 0.07 s
  Sum-over-states TPA ...  CPU 0.00 s  wall 0.00 s

--------------------------------------------------------------------------------
                   State-averaged natural transition orbitals
--------------------------------------------------------------------------------
--------------------------------------------------------------------------------
  SA-NTO decomposition ...  CPU 0.01 s  wall 0.05 s

--------------------------------------------------------------------------------
                             Excited State Summary
--------------------------------------------------------------------------------
--------------------------------------------------------------------------------

  Excited state 1 (singlet, A)                                     [converged]
  ----------------------------------------------------------------------------
  Term symbol:  2 (1) A                                     R^2 =  4.03062e-13

  Total energy:                                            -77.9967273339 a.u.
  Excitation energy:                                               8.735483 eV

  Osc. strength:                                                      0.444816
  Trans. dip. moment [a.u.]:           [   1.048659,   -0.989278,   -0.008650]
  <i|r^2|0> [a.u.]:                    [   6.175865,   -0.213723,    0.002400]
  Two-photon absorption cross-section (SoS) [a.u.]:                   0.036171
  Two-photon absorption matrix (SoS) [a.u.]:
                                       |    0.008328    0.042817    0.005249 |
                                       |    0.042817    0.056668    0.008123 |
                                       |    0.005249    0.008123   -0.039931 |
  Two-photon absorption cross-section [a.u.]:                         0.019298
  Two-photon absorption matrix [a.u.]:
                                       |   -0.013230    0.025070    0.000137 |
                                       |    0.025070    0.011855    0.002083 |
                                       |    0.000137    0.002083   -0.046036 |

  Dip. moment [a.u.]:                  [  -0.000710,   -0.004852,   -0.000654]
  Total dipole [Debye]:                                               0.012573
  <r^2> [a.u.]:                        [ 176.104920,   35.213008,   11.832606]
  Total <r^2> [a.u.]:                                               223.150533

  V1^2 = 0.9716, V2^2 = 0.0284

  Important amplitudes:
      occ i     occ j     vir a      vir b          v   
    -----------------------------------------------------
     8 (A) A              9 (A) A                 0.6812
     6 (A) A             14 (A) A                 0.0626
     4 (A) A             10 (A) A                 0.0597
     7 (A) A             16 (A) A                -0.0567
     5 (A) A             13 (A) A                 0.0504
     6 (A) A             23 (A) A                 0.0480
     8 (A) A             20 (A) A                 0.0350
     6 (A) A             19 (A) A                -0.0313
     3 (A) A             12 (A) A                -0.0271
     7 (A) A             11 (A) A                 0.0211
     5 (A) A             22 (A) A                 0.0209
     4 (A) A             24 (A) A                 0.0186
     3 (A) A             26 (A) A                -0.0184
     8 (A) A   8 (A) B   17 (A) A   20 (A) B     -0.0184
     8 (A) A   8 (A) B    9 (A) A   28 (A) B     -0.0168
     6 (A) A             26 (A) A                 0.0164
     7 (A) A             21 (A) A                -0.0143
     3 (A) A             14 (A) A                -0.0137
     3 (A) A   4 (A) B    9 (A) A    9 (A) B     -0.0129
     6 (A) A             12 (A) A                -0.0123
     3 (A) A             19 (A) A                 0.0117
     8 (A) A   8 (A) B   18 (A) A   19 (A) B     -0.0113
     7 (A) A             32 (A) A                -0.0094
     7 (A) A             36 (A) A                -0.0084
     3 (A) A             23 (A) A                -0.0077
     8 (A) A   8 (A) B   25 (A) A   29 (A) B      0.0076
     6 (A) A             35 (A) A                 0.0071
     6 (A) A             40 (A) A                 0.0069
     3 (A) A             11 (A) A                 0.0065
     3 (A) A   6 (A) B    9 (A) A   28 (A) B      0.0065
     6 (A) A             22 (A) A                 0.0064
     6 (A) A   8 (A) A   19 (A) A   28 (A) A     -0.0061
     5 (A) A   7 (A) B    9 (A) A    9 (A) B      0.0060
     5 (A) A   8 (A) B   16 (A) A    9 (A) B     -0.0059
     7 (A) A   8 (A) B   13 (A) A   20 (A) B      0.0059
     5 (A) A   8 (A) B   11 (A) A   20 (A) B      0.0058
     3 (A) A   5 (A) B    9 (A) A   25 (A) B     -0.0058
     3 (A) A             40 (A) A                -0.0057
     6 (A) A   8 (A) A    9 (A) A   18 (A) A      0.0057
     7 (A) A             12 (A) A                 0.0057
    -----------------------------------------------------

  Density matrix analysis:
  ------------------------
  NOs
    Occupation of frontier NOs:
       0.9498   1.0215
    Number of electrons: 16.000000
    Number of unpaired electrons: n_u =  2.31108, n_u,nl =  2.03221
    NO participation ratio (PR_NO):  2.856800
  
  
  Mulliken Population Analysis
  Atom      Charge (e)              h+              e-           Del q
  --------------------------------------------------------------------
   1 H        0.057780        0.020473       -0.012559        0.007914
   2 C       -0.094934        0.490860       -0.505280       -0.014421
   3 H        0.045888        0.019768       -0.012809        0.006959
   4 C       -0.123453        0.490812       -0.506537       -0.015725
   5 H        0.056927        0.020019       -0.012517        0.007502
   6 H        0.057791        0.020336       -0.012565        0.007771
  --------------------------------------------------------------------
  Sum:       -0.000000        1.062269       -1.062269        0.000000
  
  Multipole moment analysis of the density matrix
    Molecular charge:                      -0.000000
    Number of electrons:                   16.000000
      Center of electronic charge [Ang]: [ -1.560553,  -0.062942,   0.002000]
    Total nuclear charge:                  16.000000
      Center of nuclear charge [Ang]:    [ -1.560576,  -0.063102,   0.001978]
    Dipole moment [D]:                     0.012573
      Cartesian components [D]:          [ -0.001806,  -0.012332,  -0.001662]
    RMS size of the density [Ang]:         1.210885
      Cartesian components [Ang]:        [  0.804254,   0.782514,   0.455069]
  
  Exciton analysis of the difference density matrix
    <r_h> [Ang]:                  [ -1.560334,  -0.064833,   0.001972]
    <r_e> [Ang]:                  [ -1.560492,  -0.064969,   0.002017]
    |<r_e - r_h>| [Ang]:            0.000213
    Hole size [Ang]:                1.284347
      Cartesian components [Ang]: [  0.728632,   0.710251,   0.783700]
    Electron size [Ang]:            1.462673
      Cartesian components [Ang]: [  0.854132,   0.829400,   0.849686]

  Transition density matrix analysis:
  -----------------------------------
  
  CT numbers (Mulliken)
    omega =     0.9538
    <Phe> =    -0.1612
  
  Exciton analysis of the transition density matrix
    Trans. dipole moment [D]:             1.832188
      Cartesian components [D]:         [  1.332712,  -1.257247,  -0.010993]
    <r_h> [Ang]:                        [ -1.559855,  -0.066043,   0.001902]
    <r_e> [Ang]:                        [ -1.560531,  -0.064732,   0.002047]
    |<r_e - r_h>| [Ang]:                  0.001483
    Hole size [Ang]:                      1.214115
      Cartesian components [Ang]:       [  0.649778,   0.635934,   0.804644]
    Electron size [Ang]:                  1.485454
      Cartesian components [Ang]:       [  0.864519,   0.838321,   0.869712]
    RMS electron-hole separation [Ang]:   1.936730
      Cartesian components [Ang]:       [  1.106838,   1.075002,   1.170557]
    Covariance(r_h, r_e) [Ang^2]:        -0.035135
    Correlation coefficient:             -0.019481
    Center-of-mass size [Ang]:            0.950050
      Cartesian components [Ang]:       [  0.527759,   0.514481,   0.599479]

  Decomposition into state-averaged NTOs
    H- 0 -> L+ 0: -0.6701 ( 89.8%)
    H- 2 -> L+ 5: -0.0839 (  1.4%)
                   omega =  95.4%
  ----------------------------------------------------------------------------


  Excited state 2 (singlet, A)                                     [converged]
  ----------------------------------------------------------------------------
  Term symbol:  3 (1) A                                     R^2 =  1.49269e-13

  Total energy:                                            -77.9829820713 a.u.
  Excitation energy:                                               9.109511 eV

  Osc. strength:                                                      0.000724
  Trans. dip. moment [a.u.]:           [   0.003211,   -0.009058,    0.056140]
  <i|r^2|0> [a.u.]:                    [   0.087392,    0.078783,   -0.149558]
  Two-photon absorption cross-section (SoS) [a.u.]:                   5.800673
  Two-photon absorption matrix (SoS) [a.u.]:
                                       |    0.071054    0.065557   -0.652619 |
                                       |    0.065557    0.060234   -0.531539 |
                                       |   -0.652619   -0.531539   -0.126468 |
  Two-photon absorption cross-section [a.u.]:                         0.067945
  Two-photon absorption matrix [a.u.]:
                                       |    0.002563   -0.005022    0.091501 |
                                       |   -0.005022   -0.010077    0.001392 |
                                       |    0.091501    0.001392    0.008834 |

  Dip. moment [a.u.]:                  [  -0.113728,   -0.018747,   -0.006952]
  Total dipole [Debye]:                                               0.293502
  <r^2> [a.u.]:                        [ 173.930245,   33.784705,   13.090470]
  Total <r^2> [a.u.]:                                               220.805419

  V1^2 = 0.9544, V2^2 = 0.0456

  Important amplitudes:
      occ i     occ j     vir a      vir b          v   
    -----------------------------------------------------
     7 (A) A              9 (A) A                 0.6619
     8 (A) A             11 (A) A                 0.1445
     8 (A) A             10 (A) A                -0.1020
     7 (A) A             20 (A) A                 0.0752
     5 (A) A   8 (A) B    9 (A) A    9 (A) B      0.0313
     8 (A) A             16 (A) A                 0.0274
     8 (A) A             12 (A) A                 0.0230
     8 (A) A             21 (A) A                -0.0178
     5 (A) A             28 (A) A                 0.0148
     4 (A) A   7 (A) B    9 (A) A   19 (A) B     -0.0133
     5 (A) A   7 (A) B    9 (A) A   16 (A) B      0.0132
     7 (A) A   8 (A) B   20 (A) A   17 (A) B     -0.0104
     7 (A) A   8 (A) A    9 (A) A   28 (A) A      0.0096
     5 (A) A   8 (A) B    9 (A) A   20 (A) B      0.0095
     4 (A) A   6 (A) B    9 (A) A   16 (A) B     -0.0090
     5 (A) A   6 (A) A    9 (A) A   23 (A) A     -0.0089
     5 (A) A   6 (A) A    9 (A) A   14 (A) A     -0.0088
     5 (A) A   6 (A) B    9 (A) A   19 (A) B      0.0086
     8 (A) A   7 (A) B    9 (A) A   28 (A) B     -0.0084
     4 (A) A   5 (A) A    9 (A) A   10 (A) A      0.0083
     6 (A) A   7 (A) B    9 (A) A   18 (A) B      0.0081
     3 (A) A   7 (A) B    9 (A) A   18 (A) B      0.0079
     5 (A) A   7 (A) A    9 (A) A   16 (A) A      0.0078
     6 (A) A              9 (A) A                -0.0078
     5 (A) A   6 (A) B    9 (A) A   23 (A) B     -0.0078
     4 (A) A   8 (A) B    9 (A) A   25 (A) B      0.0076
     7 (A) A   8 (A) B   17 (A) A   20 (A) B     -0.0073
     4 (A) A   7 (A) B   19 (A) A    9 (A) B     -0.0072
     7 (A) A   8 (A) B   19 (A) A   18 (A) B     -0.0071
     5 (A) A   5 (A) B    9 (A) A   13 (A) B     -0.0071
     5 (A) A   8 (A) A    9 (A) A   20 (A) A      0.0069
     8 (A) A             24 (A) A                -0.0068
     4 (A) A   5 (A) B    9 (A) A   18 (A) B     -0.0066
     7 (A) A   8 (A) B   17 (A) A    9 (A) B     -0.0064
     7 (A) A   7 (A) B   20 (A) A   22 (A) B      0.0064
     5 (A) A   6 (A) B    9 (A) A   14 (A) B     -0.0063
     4 (A) A   7 (A) A    9 (A) A   19 (A) A     -0.0061
     4 (A) A   5 (A) B   10 (A) A    9 (A) B     -0.0061
     4 (A) A   7 (A) B    9 (A) A   14 (A) B     -0.0059
     5 (A) A   7 (A) B   11 (A) A   20 (A) B      0.0058
    -----------------------------------------------------

  Density matrix analysis:
  ------------------------
  NOs
    Occupation of frontier NOs:
       0.9378   1.0736
    Number of electrons: 16.000000
    Number of unpaired electrons: n_u =  2.35313, n_u,nl =  2.07686
    NO participation ratio (PR_NO):  3.139606
  
  
  Mulliken Population Analysis
  Atom      Charge (e)              h+              e-           Del q
  --------------------------------------------------------------------
   1 H        0.125440        0.124194       -0.048621        0.075574
   2 C       -0.269468        0.262869       -0.451824       -0.188955
   3 H        0.137595        0.109798       -0.011133        0.098665
   4 C       -0.293860        0.281050       -0.467183       -0.186133
   5 H        0.136177        0.131256       -0.044504        0.086752
   6 H        0.164116        0.125808       -0.011711        0.114097
  --------------------------------------------------------------------
  Sum:       -0.000000        1.034976       -1.034976        0.000000
  
  Multipole moment analysis of the density matrix
    Molecular charge:                      -0.000000
    Number of electrons:                   16.000000
      Center of electronic charge [Ang]: [ -1.556815,  -0.062482,   0.002208]
    Total nuclear charge:                  16.000000
      Center of nuclear charge [Ang]:    [ -1.560576,  -0.063102,   0.001978]
    Dipole moment [D]:                     0.293502
      Cartesian components [D]:          [ -0.289069,  -0.047649,  -0.017669]
    RMS size of the density [Ang]:         1.198711
      Cartesian components [Ang]:        [  0.787665,   0.766413,   0.478646]
  
  Exciton analysis of the difference density matrix
    <r_h> [Ang]:                  [ -1.574117,  -0.018773,   0.004015]
    <r_e> [Ang]:                  [ -1.516493,  -0.011808,   0.007281]
    |<r_e - r_h>| [Ang]:            0.058134
    Hole size [Ang]:                1.479942
      Cartesian components [Ang]: [  1.009168,   0.976756,   0.466642]
    Electron size [Ang]:            1.495760
      Cartesian components [Ang]: [  0.901388,   0.869552,   0.817726]

  Transition density matrix analysis:
  -----------------------------------
  
  CT numbers (Mulliken)
    omega =     0.9221
    <Phe> =    -0.0123
  
  Exciton analysis of the transition density matrix
    Trans. dipole moment [D]:             0.072385
      Cartesian components [D]:         [  0.004081,  -0.011511,   0.071347]
    <r_h> [Ang]:                        [ -1.578651,  -0.015759,   0.003964]
    <r_e> [Ang]:                        [ -1.509255,  -0.013226,   0.007564]
    |<r_e - r_h>| [Ang]:                  0.069535
    Hole size [Ang]:                      1.501036
      Cartesian components [Ang]:       [  1.028135,   0.994820,   0.454292]
    Electron size [Ang]:                  1.495069
      Cartesian components [Ang]:       [  0.894346,   0.862805,   0.831230]
    RMS electron-hole separation [Ang]:   2.101040
      Cartesian components [Ang]:       [  1.348003,   1.304352,   0.946532]
    Covariance(r_h, r_e) [Ang^2]:         0.039403
    Correlation coefficient:              0.017558
    Center-of-mass size [Ang]:            1.068544
      Cartesian components [Ang]:       [  0.689481,   0.664619,   0.474009]

  Decomposition into state-averaged NTOs
    H- 1 -> L+ 0: -0.6544 ( 85.6%)
    H- 0 -> L+ 2: -0.1509 (  4.6%)
    H- 0 -> L+ 1:  0.0896 (  1.6%)
                   omega =  92.2%
  ----------------------------------------------------------------------------


  Excited state 3 (singlet, A)                                     [converged]
  ----------------------------------------------------------------------------
  Term symbol:  4 (1) A                                     R^2 =  1.64965e-13

  Total energy:                                            -77.9796939979 a.u.
  Excitation energy:                                               9.198984 eV

  Osc. strength:                                                      0.025697
  Trans. dip. moment [a.u.]:           [   0.015791,    0.020397,   -0.336685]
  <i|r^2|0> [a.u.]:                    [   0.100530,    0.018848,   -0.018636]
  Two-photon absorption cross-section (SoS) [a.u.]:                   0.039618
  Two-photon absorption matrix (SoS) [a.u.]:
                                       |   -0.016180    0.002053   -0.067187 |
                                       |    0.002053    0.022438    0.004264 |
                                       |   -0.067187    0.004264   -0.008037 |
  Two-photon absorption cross-section [a.u.]:                         0.015329
  Two-photon absorption matrix [a.u.]:
                                       |   -0.018623   -0.003858    0.021908 |
                                       |   -0.003858    0.011738    0.034151 |
                                       |    0.021908    0.034151    0.004823 |

  Dip. moment [a.u.]:                  [   0.034278,   -0.147272,   -0.007007]
  Total dipole [Debye]:                                               0.384747
  <r^2> [a.u.]:                        [ 180.949640,   39.925532,   11.065218]
  Total <r^2> [a.u.]:                                               231.940390

  V1^2 = 0.9591, V2^2 = 0.0409

  Important amplitudes:
      occ i     occ j     vir a      vir b          v   
    -----------------------------------------------------
     8 (A) A             10 (A) A                 0.6814
     7 (A) A              9 (A) A                 0.1034
     8 (A) A             24 (A) A                 0.0497
     8 (A) A             18 (A) A                -0.0296
     4 (A) A              9 (A) A                 0.0231
     8 (A) A   8 (A) B    9 (A) A   12 (A) B     -0.0208
     8 (A) A             15 (A) A                 0.0172
     8 (A) A   8 (A) B   10 (A) A   17 (A) B      0.0171
     5 (A) A   8 (A) B   11 (A) A   10 (A) B     -0.0158
     7 (A) A   8 (A) B   13 (A) A   10 (A) B     -0.0138
     7 (A) A             20 (A) A                 0.0115
     6 (A) A   8 (A) A   10 (A) A   15 (A) A      0.0109
     6 (A) A   8 (A) B   15 (A) A   10 (A) B     -0.0106
     4 (A) A   8 (A) B   12 (A) A   10 (A) B     -0.0106
     7 (A) A   8 (A) B   22 (A) A   10 (A) B     -0.0105
     4 (A) A   8 (A) A   10 (A) A   12 (A) A      0.0101
     7 (A) A   8 (A) A   10 (A) A   22 (A) A      0.0096
     7 (A) A   8 (A) A   10 (A) A   13 (A) A      0.0096
     5 (A) A   8 (A) B   21 (A) A   10 (A) B      0.0093
     5 (A) A   8 (A) A   10 (A) A   11 (A) A      0.0090
     6 (A) A   8 (A) A   10 (A) A   18 (A) A      0.0087
     6 (A) A   8 (A) B   10 (A) A   10 (A) B      0.0085
     5 (A) A   8 (A) A   10 (A) A   21 (A) A     -0.0079
     3 (A) A   4 (A) B   10 (A) A    9 (A) B     -0.0078
     7 (A) A   8 (A) A   12 (A) A   16 (A) A      0.0077
     8 (A) A   8 (A) B    9 (A) A   23 (A) B      0.0074
     4 (A) A   8 (A) B   19 (A) A   10 (A) B      0.0073
     8 (A) A   8 (A) B   10 (A) A   28 (A) B     -0.0072
     3 (A) A   8 (A) B   10 (A) A   10 (A) B      0.0071
     3 (A) A   8 (A) A   10 (A) A   24 (A) A     -0.0070
     3 (A) A   8 (A) B   10 (A) A   18 (A) B     -0.0068
     5 (A) A   8 (A) B   10 (A) A   11 (A) B     -0.0068
     7 (A) A   8 (A) B   16 (A) A   12 (A) B     -0.0066
     6 (A) A   8 (A) B   18 (A) A   10 (A) B     -0.0066
     8 (A) A   8 (A) B    9 (A) A   19 (A) B      0.0065
     3 (A) A   6 (A) B   10 (A) A   28 (A) B      0.0061
     3 (A) A   8 (A) A   10 (A) A   18 (A) A     -0.0056
     3 (A) A   5 (A) B   10 (A) A   25 (A) B     -0.0055
     6 (A) A             28 (A) A                -0.0054
     4 (A) A   8 (A) A   10 (A) A   23 (A) A     -0.0054
    -----------------------------------------------------

  Density matrix analysis:
  ------------------------
  NOs
    Occupation of frontier NOs:
       0.9631   1.0035
    Number of electrons: 16.000000
    Number of unpaired electrons: n_u =  2.32135, n_u,nl =  2.03543
    NO participation ratio (PR_NO):  2.791296
  
  
  Mulliken Population Analysis
  Atom      Charge (e)              h+              e-           Del q
  --------------------------------------------------------------------
   1 H       -0.154226        0.054688       -0.258780       -0.204092
   2 C        0.334195        0.511607       -0.096898        0.414709
   3 H       -0.152312        0.055366       -0.246608       -0.191242
   4 C        0.318673        0.526206       -0.099806        0.426400
   5 H       -0.182081        0.053526       -0.285032       -0.231506
   6 H       -0.164250        0.057476       -0.271745       -0.214270
  --------------------------------------------------------------------
  Sum:       -0.000000        1.258869       -1.258869        0.000000
  
  Multipole moment analysis of the density matrix
    Molecular charge:                      -0.000000
    Number of electrons:                   16.000000
      Center of electronic charge [Ang]: [ -1.561710,  -0.058231,   0.002210]
    Total nuclear charge:                  16.000000
      Center of nuclear charge [Ang]:    [ -1.560576,  -0.063102,   0.001978]
    Dipole moment [D]:                     0.384747
      Cartesian components [D]:          [  0.087127,  -0.374329,  -0.017811]
    RMS size of the density [Ang]:         1.271627
      Cartesian components [Ang]:        [  0.853231,   0.833893,   0.440064]
  
  Exciton analysis of the difference density matrix
    <r_h> [Ang]:                  [ -1.568931,  -0.058784,   0.001901]
    <r_e> [Ang]:                  [ -1.583773,   0.000969,   0.004609]
    |<r_e - r_h>| [Ang]:            0.061628
    Hole size [Ang]:                1.417085
      Cartesian components [Ang]: [  0.842936,   0.822306,   0.788290]
    Electron size [Ang]:            2.081784
      Cartesian components [Ang]: [  1.381834,   1.372126,   0.735956]

  Transition density matrix analysis:
  -----------------------------------
  
  CT numbers (Mulliken)
    omega =     0.9264
    <Phe> =    -0.0112
  
  Exciton analysis of the transition density matrix
    Trans. dipole moment [D]:             0.429138
      Cartesian components [D]:         [  0.020068,   0.025922,  -0.427884]
    <r_h> [Ang]:                        [ -1.566327,  -0.069042,   0.001462]
    <r_e> [Ang]:                        [ -1.590749,   0.018870,   0.005317]
    |<r_e - r_h>| [Ang]:                  0.091323
    Hole size [Ang]:                      1.220946
      Cartesian components [Ang]:       [  0.649793,   0.634290,   0.816183]
    Electron size [Ang]:                  2.278586
      Cartesian components [Ang]:       [  1.511604,   1.501374,   0.808011]
    RMS electron-hole separation [Ang]:   2.576676
      Cartesian components [Ang]:       [  1.638046,   1.625051,   1.146852]
    Covariance(r_h, r_e) [Ang^2]:         0.025873
    Correlation coefficient:              0.009300
    Center-of-mass size [Ang]:            1.297537
      Cartesian components [Ang]:       [  0.826401,   0.818510,   0.575069]

  Decomposition into state-averaged NTOs
    H- 0 -> L+ 1: -0.6705 ( 89.9%)
    H- 1 -> L+ 0: -0.1023 (  2.1%)
                   omega =  92.6%
  ----------------------------------------------------------------------------


  Excited state 4 (singlet, A)                                     [converged]
  ----------------------------------------------------------------------------
  Term symbol:  5 (1) A                                     R^2 =  6.24977e-14

  Total energy:                                            -77.9543546492 a.u.
  Excitation energy:                                               9.888503 eV

  Osc. strength:                                                      0.000217
  Trans. dip. moment [a.u.]:           [   0.000959,   -0.003877,    0.029634]
  <i|r^2|0> [a.u.]:                    [  -0.019883,   -0.012675,    0.037062]
  Two-photon absorption cross-section (SoS) [a.u.]:                 155.892396
  Two-photon absorption matrix (SoS) [a.u.]:
                                       |   -0.341007   -0.335324    3.428117 |
                                       |   -0.335324   -0.317835    2.701604 |
                                       |    3.428117    2.701604    0.655434 |
  Two-photon absorption cross-section [a.u.]:                        99.435620
  Two-photon absorption matrix [a.u.]:
                                       |   -0.282121   -0.268951    2.771784 |
                                       |   -0.268951   -0.243419    2.113985 |
                                       |    2.771784    2.113985    0.521486 |

  Dip. moment [a.u.]:                  [   0.196955,    0.099702,    0.015471]
  Total dipole [Debye]:                                               0.562474
  <r^2> [a.u.]:                        [ 184.130391,   38.545549,   10.752147]
  Total <r^2> [a.u.]:                                               233.428087

  V1^2 = 0.9635, V2^2 = 0.0365

  Important amplitudes:
      occ i     occ j     vir a      vir b          v   
    -----------------------------------------------------
     8 (A) A             11 (A) A                -0.6670
     7 (A) A              9 (A) A                 0.1461
     8 (A) A             21 (A) A                 0.0770
     8 (A) A             16 (A) A                -0.0623
     8 (A) A             12 (A) A                -0.0598
     6 (A) A              9 (A) A                -0.0368
     8 (A) A             10 (A) A                -0.0190
     8 (A) A   8 (A) B    9 (A) A   13 (A) B      0.0165
     5 (A) A   8 (A) B   11 (A) A   11 (A) B      0.0155
     8 (A) A   8 (A) B   11 (A) A   17 (A) B     -0.0141
     7 (A) A             20 (A) A                 0.0133
     7 (A) A   8 (A) B   13 (A) A   11 (A) B      0.0128
     5 (A) A   8 (A) A   11 (A) A   21 (A) A      0.0109
     8 (A) A             19 (A) A                -0.0105
     8 (A) A   8 (A) B    9 (A) A   22 (A) B      0.0104
     4 (A) A   8 (A) B   12 (A) A   11 (A) B      0.0104
     7 (A) A   8 (A) A   11 (A) A   22 (A) A     -0.0096
     6 (A) A   8 (A) B   15 (A) A   11 (A) B      0.0091
     7 (A) A   8 (A) B   22 (A) A   11 (A) B      0.0088
     6 (A) A   8 (A) B   10 (A) A   11 (A) B     -0.0088
     3 (A) A   4 (A) B   11 (A) A    9 (A) B      0.0082
     6 (A) A   8 (A) A   11 (A) A   15 (A) A     -0.0082
     3 (A) A   8 (A) B   11 (A) A   18 (A) B      0.0080
     7 (A) A   8 (A) A   13 (A) A   16 (A) A     -0.0077
     7 (A) A   8 (A) A   11 (A) A   13 (A) A     -0.0077
     5 (A) A   8 (A) B   21 (A) A   11 (A) B     -0.0071
     4 (A) A   8 (A) B   19 (A) A   11 (A) B     -0.0068
     5 (A) A   8 (A) B    9 (A) A    9 (A) B      0.0066
     6 (A) A   8 (A) A   11 (A) A   18 (A) A     -0.0063
     4 (A) A   8 (A) A   11 (A) A   12 (A) A     -0.0062
     3 (A) A   6 (A) B   11 (A) A   28 (A) B     -0.0060
     6 (A) A   8 (A) B   18 (A) A   11 (A) B      0.0060
     8 (A) A             13 (A) A                 0.0057
     7 (A) A   8 (A) B   16 (A) A   13 (A) B      0.0057
     3 (A) A   8 (A) A   11 (A) A   18 (A) A      0.0056
     5 (A) A   8 (A) B   10 (A) A   10 (A) B      0.0054
     3 (A) A   5 (A) B   11 (A) A   25 (A) B      0.0054
     3 (A) A   8 (A) B   11 (A) A   30 (A) B      0.0053
     6 (A) A   8 (A) B   11 (A) A   10 (A) B     -0.0052
     3 (A) A   8 (A) A   11 (A) A   24 (A) A      0.0052
    -----------------------------------------------------

  Density matrix analysis:
  ------------------------
  NOs
    Occupation of frontier NOs:
       0.9407   1.0280
    Number of electrons: 16.000000
    Number of unpaired electrons: n_u =  2.31698, n_u,nl =  2.04887
    NO participation ratio (PR_NO):  2.909872
  
  
  Mulliken Population Analysis
  Atom      Charge (e)              h+              e-           Del q
  --------------------------------------------------------------------
   1 H       -0.172612        0.043948       -0.266426       -0.222478
   2 C        0.299233        0.493798       -0.114051        0.379747
   3 H       -0.107917        0.048882       -0.195728       -0.146846
   4 C        0.277215        0.502826       -0.117884        0.384942
   5 H       -0.051960        0.049223       -0.150608       -0.101385
   6 H       -0.243959        0.044694       -0.338673       -0.293979
  --------------------------------------------------------------------
  Sum:       -0.000000        1.183371       -1.183371        0.000000
  
  Multipole moment analysis of the density matrix
    Molecular charge:                      -0.000000
    Number of electrons:                   16.000000
      Center of electronic charge [Ang]: [ -1.567090,  -0.066400,   0.001466]
    Total nuclear charge:                  16.000000
      Center of nuclear charge [Ang]:    [ -1.560576,  -0.063102,   0.001978]
    Dipole moment [D]:                     0.562474
      Cartesian components [D]:          [  0.500610,   0.253417,   0.039324]
    RMS size of the density [Ang]:         1.274843
      Cartesian components [Ang]:        [  0.875693,   0.818662,   0.433797]
  
  Exciton analysis of the difference density matrix
    <r_h> [Ang]:                  [ -1.569167,  -0.063293,   0.001630]
    <r_e> [Ang]:                  [ -1.657700,  -0.110169,  -0.005540]
    |<r_e - r_h>| [Ang]:            0.100434
    Hole size [Ang]:                1.395499
      Cartesian components [Ang]: [  0.821338,   0.804816,   0.790627]
    Electron size [Ang]:            2.127394
      Cartesian components [Ang]: [  1.570599,   1.262097,   0.682743]

  Transition density matrix analysis:
  -----------------------------------
  
  CT numbers (Mulliken)
    omega =     0.9299
    <Phe> =    -0.0129
  
  Exciton analysis of the transition density matrix
    Trans. dipole moment [D]:             0.038002
      Cartesian components [D]:         [  0.001219,  -0.004927,   0.037661]
    <r_h> [Ang]:                        [ -1.561643,  -0.063097,   0.002029]
    <r_e> [Ang]:                        [ -1.676847,  -0.118482,  -0.006957]
    |<r_e - r_h>| [Ang]:                  0.128141
    Hole size [Ang]:                      1.227175
      Cartesian components [Ang]:       [  0.650517,   0.656090,   0.807670]
    Electron size [Ang]:                  2.267644
      Cartesian components [Ang]:       [  1.681136,   1.337446,   0.726104]
    RMS electron-hole separation [Ang]:   2.571046
      Cartesian components [Ang]:       [  1.797250,   1.483796,   1.085595]
    Covariance(r_h, r_e) [Ang^2]:         0.027154
    Correlation coefficient:              0.009758
    Center-of-mass size [Ang]:            1.294457
      Cartesian components [Ang]:       [  0.905807,   0.748306,   0.543296]

  Decomposition into state-averaged NTOs
    H- 0 -> L+ 2:  0.6561 ( 86.1%)
    H- 1 -> L+ 0: -0.1440 (  4.1%)
    H- 0 -> L+ 3:  0.0789 (  1.2%)
                   omega =  93.0%
  ----------------------------------------------------------------------------


  Excited state 5 (singlet, A)                                     [converged]
  ----------------------------------------------------------------------------
  Term symbol:  6 (1) A                                     R^2 =  1.38270e-13

  Total energy:                                            -77.9412052759 a.u.
  Excitation energy:                                              10.246316 eV

  Osc. strength:                                                      0.000066
  Trans. dip. moment [a.u.]:           [  -0.000930,   -0.001373,    0.016112]
  <i|r^2|0> [a.u.]:                    [   0.081135,   -0.113191,    0.026677]
  Two-photon absorption cross-section (SoS) [a.u.]:                 153.010308
  Two-photon absorption matrix (SoS) [a.u.]:
                                       |    0.255293   -0.014324   -2.596996 |
                                       |   -0.014324   -0.412439    3.499817 |
                                       |   -2.596996    3.499817    0.174703 |
  Two-photon absorption cross-section [a.u.]:                        61.893220
  Two-photon absorption matrix [a.u.]:
                                       |    0.157769   -0.014386   -1.561233 |
                                       |   -0.014386   -0.263891    2.289907 |
[...]
    16   -1.459309701208e-03
    17   -1.892936419473e-03
    18    4.901668651592e-04
    19   -3.011258425079e-03
    20    6.695421838085e-03
    21    9.033206159830e-01
    22   -2.684351089079e-04
    23    1.400729903133e-02
    24    8.536514545377e-04
    25    7.280522604069e-02
    26   -5.540952378922e-02
    27   -1.432816807498e+00
    28    9.526992415545e-02
    29   -9.674203341521e-02
    30   -1.556613374311e-03
    31    3.826481479068e-01
    32   -3.815630640382e-01
    33   -5.905564857899e-03
    34    1.611262860660e-02
    35   -1.563697840379e-03
    36   -1.822141572178e-03
    37   -9.215254001264e-04
    38   -3.726733922044e-03
    39    1.324846802392e-02
    40    9.873607337998e-01
    41   -1.945801617278e-04
    42   -1.445777745816e-02
    43   -8.844605246820e-04
    44    7.531703693892e-03
    45    9.382962862202e-01
    46    1.424983127383e-02
    47    4.374359486280e-04
    48    6.849722365177e-04
Sym=X
Ene= 0.234037
Spin=Alpha
Occup=0
     1   -3.007209498056e-02
     2   -1.395570148324e+00
     3    1.655629685580e-02
     4    5.040209808273e-03
     5    1.090197660524e-03
     6   -1.874064066072e-02
     7    1.963600919319e-02
     8    2.854627410617e-01
     9    1.587662829734e-01
    10    1.405197894066e-01
    11    1.614598985380e-02
    12    5.842840273289e-01
    13    5.104904079905e-01
    14    5.919075784341e-02
    15   -3.399347092286e-03
    16    3.698033323349e-04
    17    3.872462796272e-04
    18    1.729982545307e-04
    19    1.771384877592e-03
    20    1.704767307115e-02
    21    9.782789237025e-01
    22    1.145571268574e-03
    23    1.141122704663e-02
    24    7.551635992472e-04
    25    2.135532298163e-02
    26   -2.072288355487e-02
    27   -3.753796458382e-01
    28    1.641715308606e-01
    29    1.439629011380e-01
    30    1.625910468080e-02
    31    5.954588531263e-01
    32    4.938703949808e-01
    33    5.716393029356e-02
    34    5.283796559375e-03
    35   -6.598136539101e-04
    36   -5.785278040241e-04
    37   -1.600728253180e-03
    38   -3.039023634484e-03
    39   -1.887913360129e-02
    40   -9.050295135099e-01
    41    7.238111205947e-04
    42    1.004261538932e-02
    43    6.345863327334e-04
    44    2.682318235314e-02
    45    1.431007297996e+00
    46    1.771759741958e-02
    47    5.486345676291e-03
    48    1.151854826769e-03
Sym=X
Ene= 0.241359
Spin=Alpha
Occup=0
     1    7.923415848359e-03
     2    8.245863016153e-01
     3   -1.438266390479e-02
     4   -8.887858225919e-03
     5   -1.206328455885e-03
     6    8.565875044344e-02
     7   -7.714485247126e-02
     8   -1.656968929075e+00
     9   -2.697457085448e-02
    10    8.597470701413e-02
    11    4.147348127157e-03
    12   -1.067013456681e-01
    13    3.440413659228e-01
    14    1.665329023120e-02
    15    2.431292811228e-02
    16   -2.770658920958e-03
    17   -3.287872666747e-03
    18    1.178842079036e-03
    19   -1.328708500906e-02
    20    1.533892764242e-02
    21    1.407409081674e+00
    22    8.997690996703e-03
    23    2.260581965084e-02
    24    1.816899442721e-03
    25   -8.153972358982e-02
    26    7.343763657260e-02
    27    1.524695461635e+00
    28   -1.831896068355e-02
    29    9.163544446468e-02
    30    4.689663073684e-03
    31   -7.081890117722e-02
    32    3.417543510927e-01
    33    1.718601912216e-02
    34   -2.169463415028e-02
    35    2.409301086768e-03
    36    2.998767715647e-03
    37   -2.584378920471e-03
    38    1.204935440347e-02
    39   -1.738952736556e-02
    40   -1.323798005431e+00
    41    8.808260405435e-03
    42    2.051068971830e-02
    43    1.656830094328e-03
    44   -1.334593821883e-02
    45   -7.448525456063e-01
    46   -1.256650674656e-02
    47   -8.439811697586e-03
    48   -1.097628971431e-03
Sym=X
Ene= 0.303420
Spin=Alpha
Occup=0
     1    1.895356663245e-02
     2   -1.705117242917e+00
     3    2.241433062034e-02
     4   -9.886611315282e-04
     5    1.014250845584e-03
     6    1.174214213648e-03
     7   -2.509429444216e-05
     8   -9.526482108913e-02
     9    1.345414376624e-01
    10    1.376875617741e-01
    11    1.479835923527e-02
    12    1.167610982639e+00
    13    1.208245424721e+00
    14    1.286730696164e-01
    15    2.060733306188e-03
    16    1.359148046591e-03
    17   -2.239553407567e-03
    18    3.285265938170e-02
    19    1.182155482140e-04
    20   -2.448349309491e-02
    21    1.787958712174e+00
    22   -1.382771610792e-03
    23    2.285940231987e-02
    24    1.318308633304e-03
    25   -3.919745249916e-04
    26   -1.517918293174e-03
    27    3.463675677032e-02
    28   -1.336937525537e-01
    29   -1.376301272284e-01
    30   -1.450025263866e-02
    31   -1.129504319908e+00
    32   -1.199542562994e+00
    33   -1.254290530623e-01
    34   -1.508174244652e-04
    35    1.563498607031e-03
    36   -1.764654526826e-03
    37    3.086360645664e-02
    38    1.700400068010e-03
    39   -1.712620907280e-02
    40    1.676059081312e+00
    41    1.668779621324e-03
    42   -2.207715036613e-02
    43   -1.230064163536e-03
    44    1.722492697348e-02
    45   -1.698959908011e+00
    46   -2.288065966726e-02
    47    1.856939125810e-04
    48   -1.075869610806e-03
Sym=X
Ene= 0.462392
Spin=Alpha
Occup=0
     1   -1.169615107298e-01
     2   -6.921883690083e-01
     3   -1.632954020678e-02
     4   -1.035924964830e-02
     5   -1.421514289534e-03
     6    5.963306715548e-02
     7    1.732289798537e-02
     8   -3.538290525711e+00
     9    1.005984350095e-01
    10   -9.778555922463e-02
    11   -1.448642336430e-03
    12    2.408234588974e+00
    13   -2.342572330022e+00
    14   -2.524614829198e-02
    15    5.302850538027e-02
    16   -3.575433301204e-03
    17   -4.677180612954e-03
    18   -2.460527090940e-03
    19    1.617406152763e-02
    20   -1.167189777251e-01
    21   -7.780653091022e-01
    22    8.082828389084e-03
    23    1.659480959355e-02
    24    1.387694805832e-03
    25   -6.087015278650e-02
    26   -1.434703954526e-02
    27    3.586251367818e+00
    28    1.074173273723e-01
    29   -1.032108137019e-01
    30   -1.348239062163e-03
    31    2.427183565100e+00
    32   -2.283513802855e+00
    33   -2.026432744060e-02
    34   -5.250292548715e-02
    35    3.153925658998e-03
    36    4.540586909564e-03
    37    2.145912835732e-04
    38   -1.917021277971e-02
    39    1.134861348663e-01
    40    7.050610522111e-01
    41    8.390501346370e-03
    42    1.644171565256e-02
    43    1.369903900771e-03
    44    1.102887996332e-01
    45    7.323307420111e-01
    46   -1.527453163792e-02
    47   -9.683135206285e-03
    48   -1.298492534662e-03
Sym=X
Ene= 0.576742
Spin=Alpha
Occup=0
     1    2.331823525320e-01
     2    2.528141253204e-02
     3   -1.890886130874e-02
     4    2.639704293579e-02
     5    7.103874383534e-04
     6   -2.956233897732e-03
     7   -1.502612992739e-01
     8   -5.382467161658e-01
     9    2.938355247276e-01
    10   -2.919654027973e-01
    11   -3.432841059478e-03
    12   -6.622449670016e-01
    13    7.161040139150e-01
    14    1.206267018356e-02
    15   -5.796245665413e-03
    16    3.825510784083e-03
    17    3.868686013892e-03
    18   -6.293895264441e-03
    19    6.010957560572e-02
    20    2.757732756814e-01
    21    5.257161506104e-02
    22   -2.143678396672e-02
    23    1.045391776622e-02
    24   -3.783353803428e-04
    25   -6.107823399024e-03
    26   -1.550952454869e-01
    27   -3.715164838856e-01
    28   -2.945952547883e-01
    29    2.816295549441e-01
    30    2.743354675636e-03
    31    7.832353657934e-01
    32   -7.578987749427e-01
    33   -8.598343432486e-03
    34   -7.420498991021e-03
    35    4.257096581682e-03
    36    3.656865434272e-03
    37    6.158091169869e-05
    38    6.025213406906e-02
    39    2.396105493603e-01
    40    6.562871664664e-02
    41    2.885170309714e-02
    42   -1.808727757655e-02
    43    2.741933830234e-04
    44    2.656115917131e-01
    45    5.083382206823e-02
    46    1.602315119237e-02
    47   -2.502843342948e-02
    48   -7.499949712041e-04
Sym=X
Ene= 0.617633
Spin=Alpha
Occup=0
     1   -5.509824766070e-01
     2    1.869941847958e-01
     3   -6.269401479993e-02
     4    3.543013523806e-02
     5   -8.055826811743e-04
     6   -2.134473202455e-03
     7    1.078187156947e-02
     8   -3.345775759918e-02
     9   -5.135400097378e-02
    10   -4.314565242151e-02
    11   -5.013562300859e-03
    12    3.456619661564e-01
    13    3.250585976567e-01
    14    3.657246646927e-02
    15    1.057244192586e-02
    16   -8.200082757335e-03
    17    7.158382593818e-03
    18   -1.433273168406e-01
    19   -1.025820244198e-02
    20    4.626525732617e-01
    21   -9.435361925202e-02
    22    4.337912322596e-02
    23   -5.592182280217e-02
    24   -1.320604641574e-03
    25    6.533196583530e-04
    26   -4.942816986513e-03
    27    3.860871898207e-02
    28   -3.583050773408e-02
    29   -4.171378213008e-02
    30   -4.262848078870e-03
    31    2.619934934599e-01
    32    3.127541322625e-01
    33    3.076692480468e-02
    34    2.439936561021e-04
    35    7.257747717991e-03
    36   -9.025610901683e-03
    37    1.510292536473e-01
    38    2.575757940044e-03
    39   -5.310062664005e-01
    40    2.026381504597e-01
    41    3.979667815489e-02
    42   -5.944695626749e-02
    43   -1.702128195174e-03
    44    5.116207975605e-01
    45   -2.237942742690e-01
    46   -6.250417789155e-02
    47    3.960258194638e-02
    48   -5.954780821380e-04
Sym=X
Ene= 0.689494
Spin=Alpha
Occup=0
     1    3.269656902304e-04
     2    5.512147741153e-04
     3    9.101755043057e-04
     4    1.315383395554e-03
     5   -2.059697488371e-02
     6    1.625412024152e-05
     7   -3.982495402217e-04
     8    7.534845918350e-04
     9    3.204635491143e-02
    10    4.051280303239e-02
    11   -6.691393860448e-01
    12   -3.086827396717e-02
    13   -3.604333503268e-02
    14    6.154884365984e-01
    15   -1.349088851286e-03
    16    8.249422385391e-02
    17   -7.950829603644e-02
    18   -8.630974522100e-03
    19   -1.044237189978e-03
    20    2.403751736604e-04
    21    1.091239396186e-03
    22    1.330638811714e-03
    23    1.804800211827e-03
    24   -2.791094140627e-02
    25   -3.029769531491e-05
    26    6.263104253919e-05
    27   -5.869385953534e-04
    28    3.162262050529e-02
    29    4.015512492996e-02
    30   -6.704333332435e-01
    31   -3.017172673278e-02
    32   -3.531480894036e-02
    33    6.124373627731e-01
    34    1.362918713747e-03
    35   -8.221893689226e-02
    36    7.840342968340e-02
    37    8.712784304168e-03
    38    1.044810276864e-03
    39   -5.413873676713e-04
    40   -3.857506131126e-04
    41    9.077684135706e-04
    42    1.261465317541e-03
    43   -2.121420304108e-02
    44   -4.728799324648e-04
    45   -8.360614880517e-04
    46    9.693091753977e-04
    47    1.291657907968e-03
    48   -2.106632117844e-02
Sym=X
Ene= 0.712626
Spin=Alpha
Occup=0
     1   -4.348541938902e-01
     2    1.650762474674e-01
     3   -7.704661345128e-02
     4   -4.509369318334e-02
     5   -6.457012451495e-03
     6   -4.466512446541e-02
     7   -3.473746846802e-01
     8    5.280121261068e-01
     9    2.231833460572e-01
    10   -1.817517563794e-01
    11   -3.830825071653e-05
    12   -1.312986498768e-01
    13   -7.112513807098e-03
    14   -8.007461935722e-03
    15    1.854223704898e-01
    16   -1.993875441834e-02
    17   -2.333238398630e-02
    18    3.162121320727e-03
    19   -7.618683430122e-02
    20   -4.436650335060e-01
    21    1.951518484209e-02
    22    4.015424951172e-02
    23    7.717863280064e-02
    24    6.550294872156e-03
    25   -5.147261522191e-02
    26   -3.156388166466e-01
    27    4.975704405915e-01
    28   -2.018888671544e-01
    29    1.883004474634e-01
    30    1.850638274376e-03
    31    9.288247801584e-02
    32   -8.146596640494e-02
    33    3.406793332477e-04
    34    2.051495195713e-01
    35   -2.171191344280e-02
    36   -2.485003213116e-02
    37   -3.141818421969e-03
    38   -7.637310227680e-02
    39   -4.752867371541e-01
    40    1.526588719290e-01
    41   -4.379866590238e-02
    42   -8.380006452160e-02
    43   -7.032749666718e-03
    44   -5.200712338767e-01
    45    1.910282594308e-01
    46    8.929565722324e-02
    47    4.291986834138e-02
    48    6.857746984407e-03
Sym=X
Ene= 0.790335
Spin=Alpha
Occup=0
     1   -5.471640281779e-01
     2    5.521141236313e-01
     3   -1.247250065736e-01
     4   -3.076183307844e-02
     5   -7.831744516274e-03
     6   -9.548070999047e-02
     7    1.653972544563e-01
     8    7.426313613339e-01
     9   -6.733231992942e-02
    10    1.466015457090e-01
    11    6.013782761075e-03
    12   -4.104405694172e-01
    13    1.562315392057e-01
    14   -1.147717471970e-02
    15    2.211877740858e-01
    16   -1.954708791868e-02
    17   -2.344788022548e-02
    18   -1.017294492909e-02
    19   -1.181439872851e-02
    20   -5.429363591626e-01
    21    3.072516940243e-01
    22    1.891966186170e-02
    23    1.105261221414e-01
    24    7.610273958275e-03
    25    8.900381872345e-02
    26   -2.429102045616e-01
    27   -6.132162937139e-01
    28   -1.232597281795e-01
    29    1.235508806417e-01
    30    7.048280058173e-04
    31   -3.005310660878e-01
    32    2.659009243876e-01
    33    2.751284923349e-03
    34   -1.966612942120e-01
    35    1.627430578238e-02
    36    2.068895255423e-02
    37   -1.167790569306e-03
    38    3.300411076773e-03
    39    5.372841544536e-01
    40   -4.503875882744e-01
    41    1.400914973243e-02
    42    1.101808230941e-01
    43    7.216486318606e-03
    44    4.880877008213e-01
    45   -4.563420286574e-01
    46   -1.050038947737e-01
    47   -2.825750855864e-02
    48   -6.667452787905e-03
Sym=X
Ene= 0.808147
Spin=Alpha
Occup=0
     1   -4.289347722318e-04
     2    1.112001149200e-03
     3    1.300185242975e-03
     4    1.964623676838e-03
     5   -3.306418790758e-02
     6   -5.676734994538e-05
     7   -2.679389845913e-04
     8    5.211586101484e-04
     9    3.655216812850e-02
    10    4.626978584233e-02
    11   -7.611665454498e-01
    12   -5.469357618570e-02
    13   -6.825451025147e-02
    14    1.128899536160e+00
    15    1.218836893624e-03
    16   -6.499752769969e-02
    17    6.142024983106e-02
    18    6.628963458873e-03
    19    9.132142304073e-04
    20   -3.764965394921e-04
    21   -1.557712690395e-04
    22    1.934685895147e-03
    23    2.707307292504e-03
    24   -4.224236716549e-02
    25    8.384338839152e-05
    26   -5.839726223686e-04
    27    3.328025042574e-05
    28   -3.619592081048e-02
    29   -4.521398273809e-02
    30    7.629841482593e-01
    31    5.304646995736e-02
    32    6.697461912501e-02
    33   -1.127698247201e+00
    34    9.227456381509e-04
    35   -6.442915861959e-02
    36    6.189879113787e-02
    37    6.931181451305e-03
    38    8.296398530216e-04
    39    3.975156774456e-04
    40    3.161973287775e-04
    41   -1.648258096514e-03
    42   -2.091715656578e-03
    43    3.418000256957e-02
    44    3.214616301603e-04
    45   -8.782538593574e-04
    46   -1.667042653756e-03
    47   -2.087674046576e-03
    48    3.363099096342e-02
Sym=X
Ene= 0.865125
Spin=Alpha
Occup=0
     1   -2.250720706314e-02
     2   -1.060251815118e+00
     3    1.363271405099e-01
     4    5.617279096101e-02
     5    9.798217273279e-03
     6   -6.332688677067e-03
     7   -2.738410332856e-02
     8    2.029635762561e-02
     9   -3.969624972180e-01
    10   -3.786786328879e-01
    11   -4.227452853730e-02
    12    9.278979485942e-01
    13    9.279033632247e-01
    14    1.013380684712e-01
    15    1.910489280412e-02
    16    1.015017485230e-02
    17   -1.571739906806e-02
    18    2.347705507872e-01
    19    1.133195158188e-02
    20   -2.187232157783e-02
    21    1.086915809044e+00
    22    4.892873864646e-02
    23    1.504239343282e-01
    24    1.152279721828e-02
    25    3.768150370870e-03
    26   -2.767370515145e-02
    27    3.470084836791e-02
    28   -4.400819230026e-01
    29   -4.400176982585e-01
    30   -4.678249858323e-02
    31    1.000087654046e+00
    32    1.049246320739e+00
    33    1.093023683598e-01
    34   -8.065566969529e-03
    35   -1.184839378436e-02
    36    1.488944118734e-02
    37   -2.446923788940e-01
    38   -1.625200115250e-02
    39    4.345102659429e-02
    40   -1.172854568345e+00
    41    4.652414024743e-02
    42    1.661164241233e-01
    43    1.223836353342e-02
    44   -1.062079390485e-02
    45    1.126430419608e+00
    46    1.529814203708e-01
    47    5.500104327079e-02
    48    1.045560083615e-02
Sym=X
Ene= 0.941295
Spin=Alpha
Occup=0
     1   -8.567804227178e-02
     2    1.463936055831e+00
     3   -1.950093461947e-01
     4   -5.660001361338e-03
     5   -9.725287357122e-03
     6    8.140452107311e-03
     7    8.936384468702e-02
     8   -6.008700634138e-02
     9    5.429638093059e-01
    10    4.527218619415e-01
    11    5.324878059548e-02
    12   -1.710062098882e+00
    13   -1.474381052911e+00
    14   -1.706104326685e-01
    15   -2.654672907950e-02
    16   -5.954258544514e-03
    17    9.318389610868e-03
    18   -1.315954473233e-01
    19   -2.993799788556e-02
    20    1.148352928894e-01
    21   -1.275299905645e+00
    22    2.097598292446e-02
    23   -1.815149869332e-01
    24   -9.902553810280e-03
    25   -4.340107596449e-03
    26    5.751641170645e-02
    27   -1.814712338095e-01
    28   -4.133508954256e-01
    29   -5.177898831195e-01
    30   -5.058804521810e-02
    31    1.358355180459e+00
    32    1.623442126037e+00
    33    1.616012419279e-01
    34    8.611575287598e-03
    35   -4.435509376787e-03
    36    5.927608358211e-03
    37   -1.017775294472e-01
    38    1.919303717294e-02
    39    8.916964210439e-02
    40   -1.262385318808e+00
    41   -8.344666569309e-03
    42    1.690253417547e-01
    43    9.599079408003e-03
    44   -1.018499355827e-01
    45    1.225454593178e+00
    46    1.751380026870e-01
    47   -1.215871915654e-02
    48    7.651773168264e-03
Sym=X
Ene= 0.974218
Spin=Alpha
Occup=0
     1   -6.439010451427e-02
     2    7.142604723798e-01
     3   -6.310271516198e-02
     4   -9.395624192862e-02
     5   -8.515097545995e-03
     6    2.191419078290e-02
     7    1.684695703616e-01
     8    6.586958126015e-01
     9    4.129881053730e-01
    10   -4.879086828169e-01
    11   -9.892440247267e-03
    12   -1.284874143049e+00
    13    1.573611171297e+00
    14    3.385567303909e-02
    15   -4.386285260235e-02
    16   -1.222488058178e-02
    17   -1.173429016069e-02
    18    3.405112320256e-02
    19   -2.935269427951e-01
    20   -6.676894089708e-02
    21    1.049975826767e+00
    22    9.439744276649e-02
    23    1.089147341041e-01
    24    1.118669287367e-02
    25   -2.413756114688e-02
    26   -3.145523428881e-01
    27   -4.100443122388e-01
    28    5.191008154090e-01
    29   -4.246898226404e-01
    30   -7.982833147758e-04
    31   -1.651428600417e+00
    32    1.312815969473e+00
    33    6.835767777877e-05
    34    5.027448950672e-02
    35    1.353678159495e-02
    36    1.032960132019e-02
    37   -1.154971281187e-02
    38    3.056213839152e-01
    39    6.961908816701e-02
    40   -8.693947455511e-01
    41    9.911320042443e-02
    42    9.104203363682e-02
    43    1.029673670648e-02
    44    7.613285008395e-02
    45   -1.071997223781e+00
    46   -1.117906967144e-01
    47   -1.012181114521e-01
    48   -1.129884439356e-02
[5D]

======= END OF MOLDEN-FORMATTED INPUT FILE =======


        *************************************************************
        *                                                           *
        *  Thank you very much for using Q-Chem.  Have a nice day.  *
        *                                                           *
        *************************************************************


