                  Welcome to Q-Chem
     A Quantum Leap Into The Future Of Chemistry


 Q-Chem 5.4 (devel), Q-Chem, Inc., Pleasanton, CA (2021)

 E. Epifanovsky,  A. T. B. Gilbert,  Xintian Feng,  Joonho Lee,  Yuezhi Mao,  
 N. Mardirossian,  P. Pokhilko,  A. White,  M. Wormit,  M. P. Coons,  
 A. L. Dempwolff,  Zhengting Gan,  D. Hait,  P. R. Horn,  L. D. Jacobson,  
 I. Kaliman,  J. Kussmann,  A. W. Lange,  Ka Un Lao,  D. S. Levine,  Jie Liu,  
 S. C. McKenzie,  A. F. Morrison,  K. Nanda,  F. Plasser,  D. R. Rehn,  
 M. L. Vidal,  Zhi-Qiang You,  Ying Zhu,  B. Alam,  B. Albrecht,  
 A. Aldossary,  E. Alguire,  J. H. Andersen,  D. Barton,  K. Begam,  A. Behn,  
 Y. A. Bernard,  E. J. Berquist,  H. Burton,  A. Carreras,  K. Carter-Fenk,  
 R. Chakraborty,  A. D. Chien,  K. D. Closser,  V. Cofer-Shabica,  
 S. Dasgupta,  Jia Deng,  M. de Wergifosse,  M. Diedenhofen,  Hainam Do,  
 S. Ehlert,  Po-Tung Fang,  S. Fatehi,  Qingguo Feng,  T. Friedhoff,  
 J. Gayvert,  Qinghui Ge,  G. Gidofalvi,  M. Goldey,  J. Gomes,  
 C. Gonzalez-Espinoza,  S. Gulania,  A. Gunina,  M. W. D. Hanson-Heine,  
 P. H. P. Harbach,  A. W. Hauser,  M. F. Herbst,  M. Hernandez Vera,  
 M. Hodecker,  Z. C. Holden,  S. Houck,  Xunkun Huang,  Kerwin Hui,  
 B. C. Huynh,  M. Ivanov,  Hyunjun Ji,  Hanjie Jiang,  B. Kaduk,  S. Kaehler,  
 K. Khistyaev,  Jaehoon Kim,  P. Klunzinger,  Z. Koczor-Benda,  
 Joong Hoon Koh,  D. Kosenkov,  L. Koulias,  T. Kowalczyk,  C. M. Krauter,  
 K. Kue,  A. Kunitsa,  T. Kus,  A. Landau,  K. V. Lawler,  D. Lefrancois,  
 S. Lehtola,  Rain Li,  Yi-Pei Li,  Jiashu Liang,  M. Liebenthal,  
 Hung-Hsuan Lin,  You-Sheng Lin,  Fenglai Liu,  Kuan-Yu Liu,  
 M. Loipersberger,  A. Luenser,  A. Manjanath,  P. Manohar,  E. Mansoor,  
 S. F. Manzer,  Shan-Ping Mao,  A. V. Marenich,  T. Markovich,  S. Mason,  
 S. A. Maurer,  P. F. McLaughlin,  M. F. S. J. Menger,  J.-M. Mewes,  
 S. A. Mewes,  P. Morgante,  J. W. Mullinax,  K. J. Oosterbaan,  G. Paran,  
 Alexander C. Paul,  Suranjan K. Paul,  F. Pavosevic,  Zheng Pei,  S. Prager,  
 E. I. Proynov,  E. Ramos,  B. Rana,  A. E. Rask,  A. Rettig,  R. M. Richard,  
 F. Rob,  E. Rossomme,  T. Scheele,  M. Scheurer,  M. Schneider,  
 N. Sergueev,  S. M. Sharada,  W. Skomorowski,  D. W. Small,  C. J. Stein,  
 Yu-Chuan Su,  E. J. Sundstrom,  Zhen Tao,  J. Thirman,  T. Tsuchimochi,  
 N. M. Tubman,  S. P. Veccham,  O. Vydrov,  J. Wenzel,  J. Witte,  A. Yamada,  
 Kun Yao,  S. Yeganeh,  S. R. Yost,  A. Zech,  Igor Ying Zhang,  Xing Zhang,  
 Yu Zhang,  D. Zuev,  A. Aspuru-Guzik,  A. T. Bell,  N. A. Besley,  
 K. B. Bravaya,  B. R. Brooks,  D. Casanova,  Jeng-Da Chai,  S. Coriani,  
 C. J. Cramer,  A. E. DePrince, III,  R. A. DiStasio Jr.,  A. Dreuw,  
 B. D. Dunietz,  T. R. Furlani,  W. A. Goddard III,  S. Grimme,  
 S. Hammes-Schiffer,  T. Head-Gordon,  W. J. Hehre,  Chao-Ping Hsu,  
 T.-C. Jagau,  Yousung Jung,  A. Klamt,  Jing Kong,  D. S. Lambrecht,  
 WanZhen Liang,  N. J. Mayhall,  C. W. McCurdy,  J. B. Neaton,  
 C. Ochsenfeld,  J. A. Parkhill,  R. Peverati,  V. A. Rassolov,  Yihan Shao,  
 L. V. Slipchenko,  T. Stauch,  R. P. Steele,  J. E. Subotnik,  
 A. J. W. Thom,  A. Tkatchenko,  D. G. Truhlar,  T. Van Voorhis,  
 T. A. Wesolowski,  K. B. Whaley,  H. L. Woodcock III,  P. M. Zimmerman,  
 S. Faraji,  P. M. W. Gill,  M. Head-Gordon,  J. M. Herbert,  A. I. Krylov

 Additional authors for Version 5.4.1: 
 S. Kotaru,  Shaozhi Li,  Xiangyuan Li,  F. Matz,  A. Molle,  Haisheng Ren,  
 Yingli Su,  Hung-Yi Tsai,  C. Utku,  Fang Wang

 Contributors to earlier versions of Q-Chem not listed above: 
 R. D. Adamson,  B. Austin,  R. Baer,  J. Baker,  G. J. O. Beran,  
 K. Brandhorst,  S. T. Brown,  E. F. C. Byrd,  A. K. Chakraborty,  
 G. K. L. Chan,  Chun-Min Chang,  Yunqing Chen,  C.-L. Cheng,  
 Siu Hung Chien,  D. M. Chipman,  D. L. Crittenden,  H. Dachsel,  
 R. J. Doerksen,  A. D. Dutoi,  R. G. Edgar,  J. Fosso-Tande,  
 L. Fusti-Molnar,  D. Ghosh,  A. Ghysels,  A. Golubeva-Zadorozhnaya,  
 J. Gonthier,  M. S. Gordon,  S. R. Gwaltney,  G. Hawkins,  J. E. Herr,  
 A. Heyden,  S. Hirata,  E. G. Hohenstein,  G. Kedziora,  F. J. Keil,  
 C. Kelley,  Jihan Kim,  R. A. King,  R. Z. Khaliullin,  P. P. Korambath,  
 W. Kurlancheek,  A. Laurent,  A. M. Lee,  M. S. Lee,  S. V. Levchenko,  
 Ching Yeh Lin,  D. Liotard,  E. Livshits,  R. C. Lochan,  I. Lotan,  
 L. A. Martinez-Martinez,  P. E. Maslen,  N. Nair,  D. P. O'Neill,  
 D. Neuhauser,  E. Neuscamman,  C. M. Oana,  R. Olivares-Amaya,  R. Olson,  
 T. M. Perrine,  B. Peters,  P. A. Pieniazek,  A. Prociuk,  Y. M. Rhee,  
 J. Ritchie,  M. A. Rohrdanz,  E. Rosta,  N. J. Russ,  H. F. Schaefer III,  
 M. W. Schmidt,  N. E. Schultz,  S. Sharma,  N. Shenvi,  C. D. Sherrill,  
 A. C. Simmonett,  A. Sodt,  T. Stein,  D. Stuck,  K. S. Thanthiriwatte,  
 V. Vanovschi,  L. Vogt,  Tao Wang,  A. Warshel,  M. A. Watson,  
 C. F. Williams,  Q. Wu,  X. Xu,  Jun Yang,  W. Zhang,  Yan Zhao

 Please cite Q-Chem as follows:
 Y. Shao et al., Mol. Phys. 113, 184-215 (2015)
 DOI: 10.1080/00268976.2014.952696

 Q-Chem 5.4.1 for Intel X86 EM64T Linux

 Parts of Q-Chem use Armadillo 9.800.1 (Horizon Scraper).
 http://arma.sourceforge.net/

 Q-Chem begins on Thu Nov 17 00:22:07 2022  

 Host: cpu311.baobab
0

     Scratch files written to /scratch/fum/qchem242404//
 Processing $rem in /home/share/wesolowski/qc5.aug2021.FDE/config/preferences:
 Processing $rem in /home/fum/.qchemrc:

 Checking the input file for inconsistencies... 	...done.

--------------------------------------------------------------
User input:
--------------------------------------------------------------
$comment
generated from CCJob.Templates
$end

$rem
sym_ignore = true
method = adc(2)
ee_states = 10
basis = cc-pVDZ
mem_static = 1024
mem_total = 30000
adc_davidson_maxiter = 900
adc_davidson_conv = 6
adc_print = 3
adc_prop_es = true
adc_prop_es2es = true
adc_prop_tpa = true
molden_format = True
state_analysis = true
print_orbitals = 15
gen_scfman = false
fde_export_density = true
fde_details = 3
$end

$molecule
0 1
H -0.0348278765 -0.2442097827 0.0686489606
C -1.0765972949 -0.5242748755 -0.0023551776
H -1.313264467 -1.5767591607 -0.0757276926
C -2.043634118 0.3926884087 0.0061254933
H -1.8137616575 1.4459188338 0.0804456828
H -3.085977293 0.114931858 -0.0593381042                     
$end
--------------------------------------------------------------
 ----------------------------------------------------------------
             Standard Nuclear Orientation (Angstroms)
    I     Atom           X                Y                Z
 ----------------------------------------------------------------
    1      H      -0.0348278765    -0.2442097827     0.0686489606
    2      C      -1.0765972949    -0.5242748755    -0.0023551776
    3      H      -1.3132644670    -1.5767591607    -0.0757276926
    4      C      -2.0436341180     0.3926884087     0.0061254933
    5      H      -1.8137616575     1.4459188338     0.0804456828
    6      H      -3.0859772930     0.1149318580    -0.0593381042
 ----------------------------------------------------------------
 Nuclear Repulsion Energy =          33.42262040 hartrees
 There are        8 alpha and        8 beta electrons
 Requested basis set is cc-pVDZ
 There are 24 shells and 48 basis functions
 Total memory of 30000 MB is distributed as follows: 
   MEM_STATIC is set to 1024 MB
   QALLOC/CCMAN JOB total memory use is  28976 MB
 Warning: actual memory use might exceed 30000 MB

 Total QAlloc Memory Limit  30000 MB
 Mega-Array Size      1001 MB
 MEM_STATIC part      1024 MB

                       Distance Matrix (Angstroms)
             H (  1)   C (  2)   H (  3)   C (  4)   H (  5)
   C (  2)  1.081093
   H (  3)  1.852278  1.081258
   C (  4)  2.108282  1.332687  2.102109
   H (  5)  2.453830  2.105215  3.067812  1.080583
   H (  6)  3.074878  2.109370  2.450428  1.080700  1.846510

 A cutoff of  1.0D-11 yielded    300 shell pairs
 There are      1220 function pairs (      1329 Cartesian)
 Smallest overlap matrix eigenvalue = 4.80E-03

 Scale SEOQF with 1.000000e-01/1.000000e-01/1.000000e+00

 Standard Electronic Orientation quadrupole field applied
 Nucleus-field energy     =     0.0000000022 hartrees
 Guess from superposition of atomic densities
 Warning:  Energy on first SCF cycle will be non-variational
 SAD guess density has 16.000000 electrons
 A restricted Hartree-Fock SCF calculation will be
 performed using Pulay DIIS extrapolation
 SCF converges when DIIS error is below 1.0E-08
 using 8 threads for integral computing
 -------------------------------------------------------
 OpenMP Integral computing Module                
 Release: version 1.0, May 2013, Q-Chem Inc. Pittsburgh 
 -------------------------------------------------------
 ---------------------------------------
  Cycle       Energy         DIIS Error
 ---------------------------------------
    1     -78.4386119967      1.01E-01
    2     -78.0176888682      7.21E-03
    3     -78.0383202466      1.84E-03
    4     -78.0398031657      5.73E-04
    5     -78.0399247959      5.80E-05
    6     -78.0399266716      9.37E-06
    7     -78.0399267324      2.33E-06
    8     -78.0399267353      9.75E-07
    9     -78.0399267356      9.14E-08
   10     -78.0399267356      1.14E-08
   11     -78.0399267356      2.94E-09 Convergence criterion met
 ---------------------------------------
 SCF time:  CPU 1.49 s  wall 1.98 s
 SCF   energy in the final basis set = -78.03992674
 Total energy in the final basis set = -78.03992674
Exporting Density Matrix to file 'Densmat_SCF.txt'.
Export successful
================================================================================
|                                                                              |
|                                 A D C  M A N                                 |
|                                                                              |
 ------------------------------------------------------------------------------ 
|                                                                              |
| Components:                                                                  |
|                                                                              |
| - libvmm - 1.3-trunk                                                         |
|   Authors:                                                                   |
|   Evgeny Epifanovsky, Ilya Kaliman                                           |
|                                                                              |
| - libtensor - 2.5-trunk                                                      |
|   Authors:                                                                   |
|   Evgeny Epifanovsky, Michael Wormit, Dmitry Zuev, Sam Manzer,               |
|   Ilya Kaliman                                                               |
|                                                                              |
| - libwfa - 1.1-trunk                                                         |
|   Authors:                                                                   |
|   Felix Plasser, Stefanie Mewes (Baeppler), Benjamin Thomitzni,              |
|   Michael Wormit, Feng Chen, Anna I. Krylov, Pavel Pokhilko                  |
|                                                                              |
| - libadc - 1.1-trunk                                                         |
|   Authors:                                                                   |
|   Michael Wormit, Adrian L. Dempwolff, Philipp H. P. Harbach,                |
|   Caroline Krauter, Dirk Rehn, Matthias Schneider, Jan Wenzel                |
|                                                                              |
| - adcman - 2.6-trunk                                                         |
|   Authors:                                                                   |
|   Michael Wormit, Adrian L. Dempwolff, Philipp H. P. Harbach,                |
|   Caroline Krauter, Daniel Lefrancois, Jan-Michael Mewes, Dirk Rehn,         |
|   Matthias Schneider, Jan Wenzel, Andreas Dreuw                              |
|                                                                              |
| Authors of earlier versions of ADCMAN:                                       |
| Andreas Dreuw, Jan Hendrik Starcke, Dirk Rehn, Michael Wormit                |
|                                                                              |
================================================================================

 Created directory /scratch/fum/qchem242404/plots
  Import QC data ...  CPU 0.00 s  wall 0.00 s

 Alpha MOs, Restricted
 -- Occupied --                  
-11.235 -11.233  -1.032  -0.790  -0.641  -0.582  -0.505  -0.374
  1 A     2 A     3 A     4 A     5 A     6 A     7 A     8 A                  
 -- Virtual --                   
  0.168   0.204   0.233   0.239   0.303   0.462   0.577   0.615
  9 A    10 A    11 A    12 A    13 A    14 A    15 A    16 A                  
  0.689   0.709   0.785   0.808   0.862   0.936   0.972   1.010
 17 A    18 A    19 A    20 A    21 A    22 A    23 A    24 A                  
  1.130   1.235   1.254   1.266   1.293   1.601   1.726   1.750
 25 A    26 A    27 A    28 A    29 A    30 A    31 A    32 A                  
  1.819   1.859   1.867   1.921   1.977   1.978   2.221   2.258
 33 A    34 A    35 A    36 A    37 A    38 A    39 A    40 A                  
  2.376   2.454   2.506   2.633   2.721   2.822   3.140   3.399
 41 A    42 A    43 A    44 A    45 A    46 A    47 A    48 A                  

 Beta MOs, Restricted
 -- Occupied --                  
-11.235 -11.233  -1.032  -0.790  -0.641  -0.582  -0.505  -0.374
  1 A     2 A     3 A     4 A     5 A     6 A     7 A     8 A                  
 -- Virtual --                   
  0.168   0.204   0.233   0.239   0.303   0.462   0.577   0.615
  9 A    10 A    11 A    12 A    13 A    14 A    15 A    16 A                  
  0.689   0.709   0.785   0.808   0.862   0.936   0.972   1.010
 17 A    18 A    19 A    20 A    21 A    22 A    23 A    24 A                  
  1.130   1.235   1.254   1.266   1.293   1.601   1.726   1.750
 25 A    26 A    27 A    28 A    29 A    30 A    31 A    32 A                  
  1.819   1.859   1.867   1.921   1.977   1.978   2.221   2.258
 33 A    34 A    35 A    36 A    37 A    38 A    39 A    40 A                  
  2.376   2.454   2.506   2.633   2.721   2.822   3.140   3.399
 41 A    42 A    43 A    44 A    45 A    46 A    47 A    48 A                  
  Import AO data ...  CPU 0.00 s  wall 0.00 s
  Using point group: C1
  Irreducible representations in point group: A
  Molecular orbitals: 
  Occupied MOs:
  Block   0:   1 (  A) A   2 (  A) A   3 (  A) A   4 (  A) A   5 (  A) A
                  -11.24      -11.23      -1.032     -0.7897     -0.6411
               6 (  A) A   7 (  A) A   8 (  A) A
                 -0.5819     -0.5046      -0.374
  Block   1:   1 (  A) B   2 (  A) B   3 (  A) B   4 (  A) B   5 (  A) B
                  -11.24      -11.23      -1.032     -0.7897     -0.6411
               6 (  A) B   7 (  A) B   8 (  A) B
                 -0.5819     -0.5046      -0.374
  Virtual MOs:
  Block   0:   9 (  A) A  10 (  A) A  11 (  A) A  12 (  A) A  13 (  A) A
                  0.1684      0.2037      0.2329      0.2394      0.3033
              14 (  A) A  15 (  A) A  16 (  A) A  17 (  A) A  18 (  A) A
                   0.462      0.5775      0.6152      0.6891      0.7089
              19 (  A) A  20 (  A) A  21 (  A) A  22 (  A) A
                  0.7845       0.808      0.8622      0.9359
  Block   1:  23 (  A) A  24 (  A) A  25 (  A) A  26 (  A) A  27 (  A) A
                  0.9724        1.01        1.13       1.235       1.254
              28 (  A) A  29 (  A) A  30 (  A) A  31 (  A) A  32 (  A) A
                   1.266       1.293       1.601       1.726        1.75
              33 (  A) A  34 (  A) A  35 (  A) A  36 (  A) A
                   1.819       1.859       1.867       1.921
  Block   2:  37 (  A) A  38 (  A) A  39 (  A) A  40 (  A) A  41 (  A) A
                   1.977       1.978       2.221       2.258       2.376
              42 (  A) A  43 (  A) A  44 (  A) A  45 (  A) A  46 (  A) A
                   2.454       2.506       2.633       2.721       2.822
              47 (  A) A  48 (  A) A
                    3.14       3.399
  Block   3:   9 (  A) B  10 (  A) B  11 (  A) B  12 (  A) B  13 (  A) B
                  0.1684      0.2037      0.2329      0.2394      0.3033
              14 (  A) B  15 (  A) B  16 (  A) B  17 (  A) B  18 (  A) B
                   0.462      0.5775      0.6152      0.6891      0.7089
              19 (  A) B  20 (  A) B  21 (  A) B  22 (  A) B
                  0.7845       0.808      0.8622      0.9359
  Block   4:  23 (  A) B  24 (  A) B  25 (  A) B  26 (  A) B  27 (  A) B
                  0.9724        1.01        1.13       1.235       1.254
              28 (  A) B  29 (  A) B  30 (  A) B  31 (  A) B  32 (  A) B
                   1.266       1.293       1.601       1.726        1.75
              33 (  A) B  34 (  A) B  35 (  A) B  36 (  A) B
                   1.819       1.859       1.867       1.921
  Block   5:  37 (  A) B  38 (  A) B  39 (  A) B  40 (  A) B  41 (  A) B
                   1.977       1.978       2.221       2.258       2.376
              42 (  A) B  43 (  A) B  44 (  A) B  45 (  A) B  46 (  A) B
                   2.454       2.506       2.633       2.721       2.822
              47 (  A) B  48 (  A) B
                    3.14       3.399
  Import MO data ...  CPU 0.00 s  wall 0.00 s
  Import HF data ...  CPU 0.07 s  wall 0.03 s
  Import 2e integrals ...  CPU 0.58 s  wall 0.11 s

--------------------------------------------------------------------------------
                                   HF Summary                                   
--------------------------------------------------------------------------------
  Energy:                                                  -78.0399267356 a.u.
  Dip. moment [a.u.]:                  [  -0.000856,    0.000609,    0.001831]
  Total dipole [Debye]:                                               0.005366
  <r^2> [a.u.]:                        [ 175.320009,   34.918731,   11.628149]
  Total <r^2> [a.u.]:                                               221.866889
--------------------------------------------------------------------------------
  HF properties ...  CPU 0.01 s  wall 0.00 s
  MP(1) calculation ...  CPU 0.01 s  wall 0.00 s
  N^6 prerequesite intermediates ...  CPU 0.44 s  wall 0.07 s
  Difference density matrix of state mp2_gs printed to ASCII file 'State_mp2_gs_Difference.txt'
Exporting MP density matrix to file 'Densmat_MP.txt'.
Export successful
  Total density matrix of state mp2_gs printed to ASCII file 'State_mp2_gs_Total.txt'
Exporting MP density matrix to file 'Densmat_MP.txt'.
Export successful

--------------------------------------------------------------------------------
                                 MP(2) Summary                                  
--------------------------------------------------------------------------------
  MP energy contribution:                                   -0.2797091150 a.u.
  Total energy:                                            -78.3196358507 a.u.
  Dip. moment [a.u.]:                  [  -0.000832,    0.000512,    0.001803]
  Total dipole [Debye]:                                               0.005211
  <r^2> [a.u.]:                        [ 175.366712,   34.959314,   11.460001]
  Total <r^2> [a.u.]:                                               221.786027

  Density matrix analysis:
  ------------------------
  NOs
    Occupation of frontier NOs:
       0.0453   1.9383
    Number of electrons: 16.000000
    Number of unpaired electrons: n_u =  0.40345, n_u,nl =  0.04508
    NO participation ratio (PR_NO): 13.857814
  
  
  Mulliken Population Analysis
  Atom      Charge (e)              h+              e-           Del q
  --------------------------------------------------------------------
   1 H        0.051035        0.014026       -0.011203        0.002823
   2 C       -0.100889        0.093248       -0.098854       -0.005606
   3 H        0.050562        0.014072       -0.011192        0.002880
   4 C       -0.101392        0.092975       -0.098900       -0.005925
   5 H        0.050130        0.014122       -0.011184        0.002937
   6 H        0.050555        0.014084       -0.011192        0.002892
  --------------------------------------------------------------------
  Sum:        0.000000        0.242526       -0.242526        0.000000
  
  Multipole moment analysis of the density matrix
    Molecular charge:                      0.000000
    Number of electrons:                   16.000000
      Center of electronic charge [Ang]: [ -1.560549,  -0.065619,   0.002231]
    Total nuclear charge:                  16.000000
      Center of nuclear charge [Ang]:    [ -1.560576,  -0.065602,   0.002291]
    Dipole moment [D]:                     0.005211
      Cartesian components [D]:          [ -0.002114,   0.001300,   0.004582]
    RMS size of the density [Ang]:         1.200845
      Cartesian components [Ang]:        [  0.796189,   0.779451,   0.447845]
  
  Exciton analysis of the difference density matrix
    <r_h> [Ang]:                  [ -1.560347,  -0.065883,   0.001930]
    <r_e> [Ang]:                  [ -1.560401,  -0.065670,   0.001992]
    |<r_e - r_h>| [Ang]:            0.000228
    Hole size [Ang]:                1.393731
      Cartesian components [Ang]: [  0.846713,   0.834144,   0.727850]
    Electron size [Ang]:            1.359772
      Cartesian components [Ang]: [  0.877883,   0.861790,   0.579325]
--------------------------------------------------------------------------------
  MP(2) calculation ...  CPU 0.10 s  wall 0.08 s
  Start ADC(2)-s ...  CPU 0.01 s  wall 0.00 s
  ADC(2) intermediates ...  CPU 0.02 s  wall 0.01 s
  Starting Davidson for singlet states of irrep A ... 
--------------------------------------------------------------------------------
   It NVec Conv  Avg. Norm  Max. Norm  Conv. states           Remark
--------------------------------------------------------------------------------
        10    0  1.330e-01  4.687e-01  0.4119 n n n n n n n n Guess.
    1   20    0  2.303e-02  1.109e-01  0.3263 n n n n n n n n 
    2   30    0  5.848e-03  2.541e-02  0.3215 n n n n n n n n 
    3   40    0  1.999e-03  1.340e-02  0.3211 n n n n n n n n 
    4   50    0  5.997e-04  4.288e-03  0.3211 n n n n n n n n 
    5   20    0  2.717e-04  1.963e-03  0.3211 n n n n n n n n Subspace collapsed.
    6   30    0  1.653e-04  1.426e-03  0.3211 n n n n n n n n 
    7   40    0  9.019e-05  7.611e-04  0.3211 n n n n n n n n 
    8   50    0  1.286e-04  1.238e-03  0.3211 n n n n n n n n 
    9   20    1  6.127e-05  5.547e-04  0.3211 n y n n n n n n Subspace collapsed.
   10   30    3  5.934e-05  5.645e-04  0.3211 n y y y n n n n 
   11   40    5  4.947e-05  4.872e-04  0.3211 n y y y y y n n 
   12   50    6  6.691e-05  6.674e-04  0.3211 y y y y y y n n 
   13   20    6  3.012e-05  3.003e-04  0.3211 y y y y y y n n Subspace collapsed.
   14   30    6  3.099e-05  3.091e-04  0.3211 y y y y y y n n 
   15   40    6  1.996e-05  1.992e-04  0.3211 y y y y y y n n 
   16   50    6  2.977e-05  2.975e-04  0.3211 y y y y y y n n 
   17   20    6  1.354e-05  1.353e-04  0.3211 y y y y y y n n Subspace collapsed.
   18   30    6  1.757e-05  1.756e-04  0.3211 y y y y y y n n 
   19   40    7  1.744e-05  1.743e-04  0.3211 y y y y y y y n 
   20   50    8  2.072e-05  2.072e-04  0.3211 y y y y y y y y 
   21   20    8  8.905e-06  8.903e-05  0.3211 y y y y y y y y Subspace collapsed.
   22   30    8  6.949e-06  6.948e-05  0.3211 y y y y y y y y 
   23   40    9  4.204e-06  4.204e-05  0.3211 y y y y y y y y 
   24   49    9  6.562e-06  6.562e-05  0.3211 y y y y y y y y 
   25   50    9  6.607e-06  6.607e-05  0.3211 y y y y y y y y 
   26   10    9  6.607e-06  6.607e-05  0.3211 y y y y y y y y Subspace collapsed.
   27   10    9  6.607e-06  6.607e-05  0.3211 y y y y y y y y 
   28   20    9  3.126e-06  3.126e-05  0.3211 y y y y y y y y 
   29   26    9  4.311e-06  4.310e-05  0.3211 y y y y y y y y 
   30   32    9  3.727e-06  3.727e-05  0.3211 y y y y y y y y 
   31   37    9  5.421e-06  5.421e-05  0.3211 y y y y y y y y 
   32   42    9  3.549e-06  3.549e-05  0.3211 y y y y y y y y 
   33   42    9  3.549e-06  3.549e-05  0.3211 y y y y y y y y 
   34   44    9  3.444e-06  3.444e-05  0.3211 y y y y y y y y 
   35   48    9  1.487e-06  1.487e-05  0.3211 y y y y y y y y 
   36   50    9  7.660e-07  7.660e-06  0.3211 y y y y y y y y 
   37   14    9  3.669e-07  3.669e-06  0.3211 y y y y y y y y Subspace collapsed.
   38   18    9  2.578e-07  2.578e-06  0.3211 y y y y y y y y 
   39   22    9  2.118e-07  2.118e-06  0.3211 y y y y y y y y 
   40   26   10  8.761e-08  8.761e-07  0.3211 y y y y y y y y Converged.
--------------------------------------------------------------------------------
  Davidson Summary: 
 ------------------------------------------------------------
  State  0: excitation energy =   0.3211 a.u.   (converged)
  State  1: excitation energy =   0.3327 a.u.   (converged)
  State  2: excitation energy =   0.3370 a.u.   (converged)
  State  3: excitation energy =   0.3614 a.u.   (converged)
  State  4: excitation energy =   0.3753 a.u.   (converged)
  State  5: excitation energy =   0.3872 a.u.   (converged)
  State  6: excitation energy =   0.4247 a.u.   (converged)
  State  7: excitation energy =   0.4471 a.u.   (converged)
  State  8: excitation energy =   0.4563 a.u.   (converged)
  State  9: excitation energy =   0.4647 a.u.   (converged)
 ------------------------------------------------------------

  Singlet states of irrep A ...  CPU 94.42 s  wall 28.93 s
  TDMs ...  CPU 0.58 s  wall 0.25 s
  SDMs ...  CPU 2.79 s  wall 0.67 s
  Starting TPA DIIS iterations ... 
------------------------------------ 
   It     Res. Norm  Remark
------------------------------------
                       Guess.
    1     4.406e+00  
    2     5.841e+00  
    3     1.077e+00  
    4     2.567e-01  
    5     6.575e-02  
    6     2.676e-02  
    7     8.240e-03  
    8     1.443e-03  
    9     5.350e-04  
   10     9.070e-05  
   11     2.840e-05  
   12     4.819e-06  
   13     1.533e-06  
   14     7.052e-07  Converged.
   ... Converged in 14 steps (norm: 7.05163e-07)
------------------------------------
  Starting TPA DIIS iterations ... 
------------------------------------ 
   It     Res. Norm  Remark
------------------------------------
                       Guess.
    1     4.184e+00  
    2     5.540e+00  
    3     1.029e+00  
    4     2.555e-01  
    5     6.535e-02  
    6     2.672e-02  
    7     8.116e-03  
    8     1.454e-03  
    9     5.370e-04  
   10     9.008e-05  
   11     2.848e-05  
   12     4.562e-06  
   13     1.643e-06  
   14     6.244e-07  Converged.
   ... Converged in 14 steps (norm: 6.24444e-07)
------------------------------------
  Starting TPA DIIS iterations ... 
------------------------------------ 
   It     Res. Norm  Remark
------------------------------------
                       Guess.
    1     6.883e-01  
    2     4.839e-01  
    3     1.708e-01  
    4     6.626e-02  
    5     1.822e-02  
    6     6.519e-03  
    7     1.039e-03  
    8     4.482e-04  
    9     1.236e-04  
   10     2.991e-05  
   11     4.929e-06  
   12     1.583e-06  
   13     8.478e-07  Converged.
   ... Converged in 13 steps (norm: 8.47759e-07)
------------------------------------
  Starting TPA DIIS iterations ... 
------------------------------------ 
   It     Res. Norm  Remark
------------------------------------
                       Guess.
    1     4.693e+00  
    2     6.357e+00  
    3     1.158e+00  
    4     2.853e-01  
    5     7.408e-02  
    6     3.040e-02  
    7     9.345e-03  
    8     1.634e-03  
    9     6.104e-04  
   10     1.041e-04  
   11     3.295e-05  
   12     5.708e-06  
   13     1.826e-06  
   14     8.788e-07  Converged.
   ... Converged in 14 steps (norm: 8.78757e-07)
------------------------------------
  Starting TPA DIIS iterations ... 
------------------------------------ 
   It     Res. Norm  Remark
------------------------------------
                       Guess.
    1     4.456e+00  
    2     6.029e+00  
    3     1.106e+00  
    4     2.837e-01  
    5     7.363e-02  
    6     3.038e-02  
    7     9.207e-03  
    8     1.647e-03  
    9     6.127e-04  
   10     1.034e-04  
   11     3.299e-05  
   12     5.364e-06  
   13     1.967e-06  
   14     7.666e-07  Converged.
   ... Converged in 14 steps (norm: 7.66574e-07)
------------------------------------
  Starting TPA DIIS iterations ... 
------------------------------------ 
   It     Res. Norm  Remark
------------------------------------
                       Guess.
    1     7.004e-01  
    2     5.015e-01  
    3     1.807e-01  
    4     7.510e-02  
    5     1.959e-02  
    6     7.141e-03  
    7     1.173e-03  
    8     5.283e-04  
    9     1.494e-04  
   10     3.433e-05  
   11     5.567e-06  
   12     1.864e-06  
   13     1.056e-06  
   14     3.393e-07  Converged.
   ... Converged in 14 steps (norm: 3.39347e-07)
------------------------------------
  Starting TPA DIIS iterations ... 
------------------------------------ 
   It     Res. Norm  Remark
------------------------------------
                       Guess.
    1     4.806e+00  
    2     6.562e+00  
    3     1.190e+00  
    4     2.969e-01  
    5     7.744e-02  
    6     3.188e-02  
    7     9.792e-03  
    8     1.711e-03  
    9     6.411e-04  
   10     1.096e-04  
   11     3.483e-05  
   12     6.081e-06  
   13     1.950e-06  
   14     9.546e-07  Converged.
   ... Converged in 14 steps (norm: 9.54599e-07)
------------------------------------
  Starting TPA DIIS iterations ... 
------------------------------------ 
   It     Res. Norm  Remark
------------------------------------
                       Guess.
    1     4.563e+00  
    2     6.223e+00  
    3     1.137e+00  
    4     2.951e-01  
    5     7.699e-02  
    6     3.187e-02  
    7     9.649e-03  
    8     1.726e-03  
    9     6.434e-04  
   10     1.088e-04  
   11     3.485e-05  
   12     5.697e-06  
   13     2.104e-06  
   14     8.278e-07  Converged.
   ... Converged in 14 steps (norm: 8.2782e-07)
------------------------------------
  Starting TPA DIIS iterations ... 
------------------------------------ 
   It     Res. Norm  Remark
------------------------------------
                       Guess.
    1     7.050e-01  
    2     5.082e-01  
    3     1.846e-01  
    4     7.873e-02  
    5     2.012e-02  
    6     7.393e-03  
    7     1.228e-03  
    8     5.617e-04  
    9     1.602e-04  
   10     3.580e-05  
   11     5.819e-06  
   12     1.982e-06  
   13     1.146e-06  
   14     3.628e-07  Converged.
   ... Converged in 14 steps (norm: 3.62822e-07)
------------------------------------
  Starting TPA DIIS iterations ... 
------------------------------------ 
   It     Res. Norm  Remark
------------------------------------
                       Guess.
    1     5.546e+00  
    2     7.942e+00  
    3     1.397e+00  
    4     3.770e-01  
    5     1.008e-01  
    6     4.226e-02  
    7     1.290e-02  
    8     2.245e-03  
    9     8.559e-04  
   10     1.481e-04  
   11     4.828e-05  
   12     8.857e-06  
   13     2.888e-06  
   14     1.571e-06  
   15     4.524e-07  Converged.
   ... Converged in 15 steps (norm: 4.52447e-07)
------------------------------------
  Starting TPA DIIS iterations ... 
------------------------------------ 
   It     Res. Norm  Remark
------------------------------------
                       Guess.
    1     5.263e+00  
    2     7.531e+00  
    3     1.334e+00  
    4     3.740e-01  
    5     1.002e-01  
    6     4.231e-02  
    7     1.272e-02  
    8     2.266e-03  
    9     8.583e-04  
   10     1.468e-04  
   11     4.809e-05  
   12     8.129e-06  
   13     3.146e-06  
   14     1.311e-06  
   15     5.035e-07  Converged.
   ... Converged in 15 steps (norm: 5.03546e-07)
------------------------------------
  Starting TPA DIIS iterations ... 
------------------------------------ 
   It     Res. Norm  Remark
------------------------------------
                       Guess.
    1     7.320e-01  
    2     5.499e-01  
    3     2.092e-01  
    4     1.045e-01  
    5     2.366e-02  
    6     9.144e-03  
    7     1.627e-03  
    8     8.000e-04  
    9     2.356e-04  
   10     4.167e-05  
   11     7.509e-06  
   12     2.843e-06  
   13     1.852e-06  
   14     5.329e-07  Converged.
   ... Converged in 14 steps (norm: 5.32927e-07)
------------------------------------
  Starting TPA DIIS iterations ... 
------------------------------------ 
   It     Res. Norm  Remark
------------------------------------
                       Guess.
    1     6.057e+00  
    2     8.928e+00  
    3     1.540e+00  
    4     4.364e-01  
    5     1.181e-01  
    6     5.005e-02  
    7     1.520e-02  
    8     2.640e-03  
    9     1.017e-03  
   10     1.771e-04  
   11     5.867e-05  
   12     1.112e-05  
   13     3.673e-06  
   14     2.134e-06  
   15     6.378e-07  Converged.
   ... Converged in 15 steps (norm: 6.37839e-07)
------------------------------------
  Starting TPA DIIS iterations ... 
------------------------------------ 
   It     Res. Norm  Remark
------------------------------------
                       Guess.
    1     5.746e+00  
    2     8.465e+00  
    3     1.469e+00  
    4     4.325e-01  
    5     1.175e-01  
    6     5.016e-02  
    7     1.499e-02  
    8     2.666e-03  
    9     1.019e-03  
   10     1.753e-04  
   11     5.824e-05  
   12     1.005e-05  
   13     4.012e-06  
   14     1.734e-06  
   15     6.599e-07  Converged.
   ... Converged in 15 steps (norm: 6.5988e-07)
------------------------------------
  Starting TPA DIIS iterations ... 
------------------------------------ 
   It     Res. Norm  Remark
------------------------------------
                       Guess.
    1     7.484e-01  
    2     5.768e-01  
    3     2.256e-01  
    4     1.240e-01  
    5     2.617e-02  
    6     1.045e-02  
    7     1.939e-03  
    8     9.726e-04  
    9     2.892e-04  
   10     4.301e-05  
   11     8.746e-06  
   12     3.519e-06  
   13     2.446e-06  
   14     6.648e-07  Converged.
   ... Converged in 14 steps (norm: 6.64763e-07)
------------------------------------
  Starting TPA DIIS iterations ... 
------------------------------------ 
   It     Res. Norm  Remark
------------------------------------
                       Guess.
    1     6.557e+00  
    2     9.917e+00  
    3     1.678e+00  
    4     4.976e-01  
    5     1.359e-01  
    6     5.814e-02  
    7     1.757e-02  
    8     3.046e-03  
    9     1.185e-03  
   10     2.073e-04  
   11     6.963e-05  
   12     1.363e-05  
   13     4.557e-06  
   14     2.808e-06  
   15     8.759e-07  Converged.
   ... Converged in 15 steps (norm: 8.75863e-07)
------------------------------------
  Starting TPA DIIS iterations ... 
------------------------------------ 
   It     Res. Norm  Remark
------------------------------------
                       Guess.
    1     6.220e+00  
    2     9.403e+00  
    3     1.601e+00  
    4     4.926e-01  
    5     1.352e-01  
    6     5.832e-02  
    7     1.734e-02  
    8     3.077e-03  
    9     1.186e-03  
   10     2.050e-04  
   11     6.888e-05  
   12     1.213e-05  
   13     4.977e-06  
   14     2.225e-06  
   15     8.326e-07  Converged.
   ... Converged in 15 steps (norm: 8.32612e-07)
------------------------------------
  Starting TPA DIIS iterations ... 
------------------------------------ 
   It     Res. Norm  Remark
------------------------------------
                       Guess.
    1     7.631e-01  
    2     6.019e-01  
    3     2.412e-01  
    4     1.443e-01  
    5     2.870e-02  
    6     1.180e-02  
    7     2.274e-03  
    8     1.137e-03  
    9     3.407e-04  
   10     4.356e-05  
   11     1.003e-05  
   12     4.233e-06  
   13     3.104e-06  
   14     8.033e-07  Converged.
   ... Converged in 14 steps (norm: 8.03294e-07)
------------------------------------
  Starting TPA DIIS iterations ... 
------------------------------------ 
   It     Res. Norm  Remark
------------------------------------
                       Guess.
    1     8.662e+00  
    2     1.432e+01  
    3     2.251e+00  
    4     7.827e-01  
    5     2.190e-01  
    6     9.664e-02  
    7     2.864e-02  
    8     4.931e-03  
    9     1.981e-03  
   10     3.514e-04  
   11     1.226e-04  
   12     2.753e-05  
   13     9.753e-06  
   14     7.265e-06  
   15     2.691e-06  
   16     1.756e-06  
   17     4.737e-07  Converged.
   ... Converged in 17 steps (norm: 4.73744e-07)
------------------------------------
  Starting TPA DIIS iterations ... 
------------------------------------ 
   It     Res. Norm  Remark
------------------------------------
                       Guess.
    1     8.214e+00  
    2     1.358e+01  
    3     2.146e+00  
    4     7.718e-01  
    5     2.181e-01  
    6     9.719e-02  
    7     2.828e-02  
    8     4.980e-03  
    9     1.977e-03  
   10     3.453e-04  
   11     1.193e-04  
   12     2.293e-05  
   13     1.028e-05  
   14     5.221e-06  
   15     1.736e-06  
   16     7.791e-07  Converged.
   ... Converged in 16 steps (norm: 7.79079e-07)
------------------------------------
  Starting TPA DIIS iterations ... 
------------------------------------ 
   It     Res. Norm  Remark
------------------------------------
                       Guess.
    1     8.136e-01  
    2     6.970e-01  
    3     3.035e-01  
    4     2.373e-01  
    5     4.017e-02  
    6     1.804e-02  
    7     3.944e-03  
    8     1.662e-03  
    9     5.390e-04  
   10     5.201e-05  
   11     1.634e-05  
   12     7.617e-06  
   13     6.549e-06  
   14     1.460e-06  
   15     5.528e-07  Converged.
   ... Converged in 15 steps (norm: 5.52815e-07)
------------------------------------
  Starting TPA DIIS iterations ... 
------------------------------------ 
   It     Res. Norm  Remark
------------------------------------
                       Guess.
    1     1.049e+01  
    2     1.843e+01  
    3     2.734e+00  
    4     1.058e+00  
    5     2.999e-01  
    6     1.350e-01  
    7     3.941e-02  
    8     6.758e-03  
    9     2.773e-03  
   10     4.952e-04  
   11     1.751e-04  
   12     4.449e-05  
   13     1.688e-05  
   14     1.361e-05  
   15     5.551e-06  
   16     3.268e-06  
   17     9.163e-07  Converged.
   ... Converged in 17 steps (norm: 9.16325e-07)
------------------------------------
  Starting TPA DIIS iterations ... 
------------------------------------ 
   It     Res. Norm  Remark
------------------------------------
                       Guess.
    1     9.942e+00  
    2     1.747e+01  
    3     2.605e+00  
    4     1.040e+00  
    5     2.988e-01  
    6     1.360e-01  
    7     3.892e-02  
    8     6.819e-03  
    9     2.758e-03  
   10     4.836e-04  
   11     1.678e-04  
   12     3.513e-05  
   13     1.653e-05  
   14     9.180e-06  
   15     2.736e-06  
   16     1.300e-06  
   17     2.482e-07  Converged.
   ... Converged in 17 steps (norm: 2.48179e-07)
------------------------------------
  Starting TPA DIIS iterations ... 
------------------------------------ 
   It     Res. Norm  Remark
------------------------------------
                       Guess.
    1     8.477e-01  
    2     7.697e-01  
    3     3.534e-01  
    4     3.185e-01  
    5     5.093e-02  
    6     2.375e-02  
    7     5.635e-03  
    8     1.879e-03  
    9     6.914e-04  
   10     6.957e-05  
   11     2.282e-05  
   12     1.088e-05  
   13     1.028e-05  
   14     2.088e-06  
   15     7.958e-07  Converged.
   ... Converged in 15 steps (norm: 7.95838e-07)
------------------------------------
  Starting TPA DIIS iterations ... 
------------------------------------ 
   It     Res. Norm  Remark
------------------------------------
                       Guess.
    1     1.143e+01  
    2     2.062e+01  
    3     2.978e+00  
    4     1.206e+00  
    5     3.441e-01  
    6     1.563e-01  
    7     4.530e-02  
    8     7.757e-03  
    9     3.213e-03  
   10     5.750e-04  
   11     2.039e-04  
   12     5.517e-05  
   13     2.186e-05  
   14     1.783e-05  
   15     7.513e-06  
   16     4.237e-06  
   17     1.192e-06  
   18     3.806e-07  Converged.
   ... Converged in 18 steps (norm: 3.80629e-07)
------------------------------------
  Starting TPA DIIS iterations ... 
------------------------------------ 
   It     Res. Norm  Remark
------------------------------------
                       Guess.
    1     1.083e+01  
    2     1.955e+01  
    3     2.837e+00  
    4     1.185e+00  
    5     3.430e-01  
    6     1.575e-01  
    7     4.474e-02  
    8     7.821e-03  
    9     3.190e-03  
   10     5.597e-04  
   11     1.938e-04  
   12     4.252e-05  
   13     2.040e-05  
   14     1.177e-05  
   15     3.370e-06  
   16     1.619e-06  
   17     3.483e-07  Converged.
   ... Converged in 17 steps (norm: 3.48253e-07)
------------------------------------
  Starting TPA DIIS iterations ... 
------------------------------------ 
   It     Res. Norm  Remark
------------------------------------
                       Guess.
    1     8.628e-01  
    2     8.047e-01  
    3     3.780e-01  
    4     3.577e-01  
    5     5.667e-02  
    6     2.665e-02  
    7     6.556e-03  
    8     1.938e-03  
    9     7.654e-04  
   10     8.025e-05  
   11     2.646e-05  
   12     1.269e-05  
   13     1.248e-05  
   14     2.425e-06  
   15     9.461e-07  Converged.
   ... Converged in 15 steps (norm: 9.4606e-07)
------------------------------------
  Starting TPA DIIS iterations ... 
------------------------------------ 
   It     Res. Norm  Remark
------------------------------------
                       Guess.
    1     1.239e+01  
    2     2.296e+01  
    3     3.228e+00  
    4     1.364e+00  
    5     3.916e-01  
    6     1.793e-01  
    7     5.161e-02  
    8     8.827e-03  
    9     3.689e-03  
   10     6.611e-04  
   11     2.351e-04  
   12     6.765e-05  
   13     2.808e-05  
   14     2.287e-05  
   15     9.868e-06  
   16     5.384e-06  
   17     1.503e-06  
   18     4.935e-07  Converged.
   ... Converged in 18 steps (norm: 4.93493e-07)
------------------------------------
  Starting TPA DIIS iterations ... 
------------------------------------ 
   It     Res. Norm  Remark
------------------------------------
                       Guess.
    1     1.175e+01  
    2     2.176e+01  
    3     3.074e+00  
    4     1.339e+00  
    5     3.903e-01  
    6     1.808e-01  
    7     5.098e-02  
    8     8.894e-03  
    9     3.655e-03  
   10     6.415e-04  
   11     2.215e-04  
   12     5.100e-05  
   13     2.492e-05  
   14     1.486e-05  
   15     4.156e-06  
   16     1.999e-06  
   17     4.893e-07  Converged.
   ... Converged in 17 steps (norm: 4.89326e-07)
------------------------------------
  Starting TPA DIIS iterations ... 
------------------------------------ 
   It     Res. Norm  Remark
------------------------------------
                       Guess.
    1     8.772e-01  
    2     8.393e-01  
    3     4.025e-01  
    4     3.954e-01  
    5     6.272e-02  
    6     2.953e-02  
    7     7.530e-03  
    8     1.982e-03  
    9     8.397e-04  
   10     9.172e-05  
   11     3.043e-05  
   12     1.470e-05  
   13     1.499e-05  
   14     2.793e-06  
   15     1.134e-06  
   16     5.528e-07  Converged.
   ... Converged in 16 steps (norm: 5.5285e-07)
------------------------------------
  Two-photon absorbption ...  CPU 86.83 s  wall 19.59 s
  Transition density matrix of state singlet_A_1 printed to ASCII file 'State_singlet_A_1_Transition.txt'
  Transition density matrix of state singlet_A_2 printed to ASCII file 'State_singlet_A_2_Transition.txt'
  Transition density matrix of state singlet_A_3 printed to ASCII file 'State_singlet_A_3_Transition.txt'
  Transition density matrix of state singlet_A_4 printed to ASCII file 'State_singlet_A_4_Transition.txt'
  Transition density matrix of state singlet_A_5 printed to ASCII file 'State_singlet_A_5_Transition.txt'
  Transition density matrix of state singlet_A_6 printed to ASCII file 'State_singlet_A_6_Transition.txt'
  Transition density matrix of state singlet_A_7 printed to ASCII file 'State_singlet_A_7_Transition.txt'
  Transition density matrix of state singlet_A_8 printed to ASCII file 'State_singlet_A_8_Transition.txt'
  Transition density matrix of state singlet_A_9 printed to ASCII file 'State_singlet_A_9_Transition.txt'
  Transition density matrix of state singlet_A_10 printed to ASCII file 'State_singlet_A_10_Transition.txt'
  Transition properties ...  CPU 0.14 s  wall 0.27 s
  Difference density matrix of state singlet_A_1 printed to ASCII file 'State_singlet_A_1_Difference.txt'
  Total density matrix of state singlet_A_1 printed to ASCII file 'State_singlet_A_1_Total.txt'
  Difference density matrix of state singlet_A_2 printed to ASCII file 'State_singlet_A_2_Difference.txt'
  Total density matrix of state singlet_A_2 printed to ASCII file 'State_singlet_A_2_Total.txt'
  Difference density matrix of state singlet_A_3 printed to ASCII file 'State_singlet_A_3_Difference.txt'
  Total density matrix of state singlet_A_3 printed to ASCII file 'State_singlet_A_3_Total.txt'
  Difference density matrix of state singlet_A_4 printed to ASCII file 'State_singlet_A_4_Difference.txt'
  Total density matrix of state singlet_A_4 printed to ASCII file 'State_singlet_A_4_Total.txt'
  Difference density matrix of state singlet_A_5 printed to ASCII file 'State_singlet_A_5_Difference.txt'
  Total density matrix of state singlet_A_5 printed to ASCII file 'State_singlet_A_5_Total.txt'
  Difference density matrix of state singlet_A_6 printed to ASCII file 'State_singlet_A_6_Difference.txt'
  Total density matrix of state singlet_A_6 printed to ASCII file 'State_singlet_A_6_Total.txt'
  Difference density matrix of state singlet_A_7 printed to ASCII file 'State_singlet_A_7_Difference.txt'
  Total density matrix of state singlet_A_7 printed to ASCII file 'State_singlet_A_7_Total.txt'
  Difference density matrix of state singlet_A_8 printed to ASCII file 'State_singlet_A_8_Difference.txt'
  Total density matrix of state singlet_A_8 printed to ASCII file 'State_singlet_A_8_Total.txt'
  Difference density matrix of state singlet_A_9 printed to ASCII file 'State_singlet_A_9_Difference.txt'
  Total density matrix of state singlet_A_9 printed to ASCII file 'State_singlet_A_9_Total.txt'
  Difference density matrix of state singlet_A_10 printed to ASCII file 'State_singlet_A_10_Difference.txt'
  Total density matrix of state singlet_A_10 printed to ASCII file 'State_singlet_A_10_Total.txt'
  Properties ...  CPU 0.25 s  wall 0.43 s
  ISR TDMS ...  CPU 15.50 s  wall 3.91 s
  ISR transition properties ...  CPU 0.15 s  wall 0.07 s
  Sum-over-states TPA ...  CPU 0.00 s  wall 0.00 s

--------------------------------------------------------------------------------
                   State-averaged natural transition orbitals
--------------------------------------------------------------------------------
--------------------------------------------------------------------------------
  SA-NTO decomposition ...  CPU 0.01 s  wall 0.02 s

--------------------------------------------------------------------------------
                             Excited State Summary
--------------------------------------------------------------------------------
--------------------------------------------------------------------------------

  Excited state 1 (singlet, A)                                     [converged]
  ----------------------------------------------------------------------------
  Term symbol:  2 (1) A                                     R^2 =  2.18617e-13

  Total energy:                                            -77.9985553382 a.u.
  Excitation energy:                                               8.737045 eV

  Osc. strength:                                                      0.445523
  Trans. dip. moment [a.u.]:           [  -1.045513,    0.994069,    0.009532]
  <i|r^2|0> [a.u.]:                    [  -6.164043,    0.249187,   -0.002541]
  Two-photon absorption cross-section (SoS) [a.u.]:                   0.000532
  Two-photon absorption matrix (SoS) [a.u.]:
                                       |   -0.005347    0.002074    0.001321 |
                                       |    0.002074   -0.001300   -0.000668 |
                                       |    0.001321   -0.000668   -0.004850 |
  Two-photon absorption cross-section [a.u.]:                         0.001468
  Two-photon absorption matrix [a.u.]:
                                       |   -0.001028    0.002034    0.011053 |
                                       |    0.002034    0.005296    0.006272 |
                                       |    0.011053    0.006272   -0.002013 |

  Dip. moment [a.u.]:                  [  -0.000772,    0.000307,    0.002218]
  Total dipole [Debye]:                                               0.006020
  <r^2> [a.u.]:                        [ 176.120314,   35.649038,   11.870191]
  Total <r^2> [a.u.]:                                               223.639544

  V1^2 = 0.9715, V2^2 = 0.0285

  Important amplitudes:
      occ i     occ j     vir a      vir b          v   
    -----------------------------------------------------
     8 (A) A              9 (A) A                -0.6810
     6 (A) A             14 (A) A                 0.0623
     4 (A) A             10 (A) A                 0.0607
     7 (A) A             16 (A) A                -0.0569
     5 (A) A             13 (A) A                 0.0513
     6 (A) A             23 (A) A                 0.0486
     8 (A) A             20 (A) A                -0.0350
     6 (A) A             19 (A) A                 0.0309
     3 (A) A             12 (A) A                -0.0281
     5 (A) A             22 (A) A                -0.0215
     7 (A) A             11 (A) A                -0.0209
     4 (A) A             24 (A) A                 0.0187
     3 (A) A             26 (A) A                 0.0185
     8 (A) A   8 (A) B   17 (A) A   20 (A) B      0.0184
     8 (A) A   8 (A) B    9 (A) A   28 (A) B      0.0168
     6 (A) A             26 (A) A                 0.0163
     7 (A) A             21 (A) A                -0.0148
     3 (A) A             14 (A) A                 0.0139
     6 (A) A             12 (A) A                 0.0132
     3 (A) A   4 (A) B    9 (A) A    9 (A) B     -0.0129
     3 (A) A             19 (A) A                 0.0119
     8 (A) A   8 (A) B   18 (A) A   19 (A) B     -0.0113
     7 (A) A              9 (A) A                -0.0096
     7 (A) A             32 (A) A                -0.0096
     7 (A) A             36 (A) A                -0.0086
     3 (A) A             23 (A) A                 0.0080
     8 (A) A   8 (A) B   25 (A) A   29 (A) B     -0.0076
     6 (A) A             35 (A) A                 0.0072
     6 (A) A             40 (A) A                 0.0068
     3 (A) A   6 (A) B    9 (A) A   28 (A) B      0.0065
     6 (A) A   8 (A) A   19 (A) A   28 (A) A      0.0061
     5 (A) A   7 (A) B    9 (A) A    9 (A) B      0.0060
     5 (A) A   8 (A) B   11 (A) A   20 (A) B      0.0059
     7 (A) A   8 (A) B   13 (A) A   20 (A) B     -0.0059
     5 (A) A   8 (A) B   16 (A) A    9 (A) B      0.0059
     5 (A) A   8 (A) B   11 (A) A    9 (A) B     -0.0059
     3 (A) A   5 (A) B    9 (A) A   25 (A) B      0.0058
     3 (A) A             40 (A) A                 0.0057
     7 (A) A   8 (A) B   22 (A) A   20 (A) B      0.0057
     6 (A) A   8 (A) A    9 (A) A   18 (A) A      0.0057
    -----------------------------------------------------

  Density matrix analysis:
  ------------------------
  NOs
    Occupation of frontier NOs:
       0.9495   1.0217
    Number of electrons: 16.000000
    Number of unpaired electrons: n_u =  2.31342, n_u,nl =  2.03264
    NO participation ratio (PR_NO):  2.863962
  
  
  Mulliken Population Analysis
  Atom      Charge (e)              h+              e-           Del q
  --------------------------------------------------------------------
   1 H        0.058805        0.020310       -0.012540        0.007770
   2 C       -0.116155        0.490834       -0.506100       -0.015265
   3 H        0.058158        0.020197       -0.012600        0.007597
   4 C       -0.117000        0.490665       -0.506273       -0.015608
   5 H        0.057800        0.020224       -0.012554        0.007670
   6 H        0.058391        0.020352       -0.012515        0.007837
  --------------------------------------------------------------------
  Sum:        0.000000        1.062583       -1.062583       -0.000000
  
  Multipole moment analysis of the density matrix
    Molecular charge:                      0.000000
    Number of electrons:                   16.000000
      Center of electronic charge [Ang]: [ -1.560551,  -0.065612,   0.002217]
    Total nuclear charge:                  16.000000
      Center of nuclear charge [Ang]:    [ -1.560576,  -0.065602,   0.002291]
    Dipole moment [D]:                     0.006020
      Cartesian components [D]:          [ -0.001963,   0.000781,   0.005638]
    RMS size of the density [Ang]:         1.214274
      Cartesian components [Ang]:        [  0.804426,   0.787157,   0.455790]
  
  Exciton analysis of the difference density matrix
    <r_h> [Ang]:                  [ -1.560199,  -0.065762,   0.001328]
    <r_e> [Ang]:                  [ -1.560229,  -0.065660,   0.001122]
    |<r_e - r_h>| [Ang]:            0.000232
    Hole size [Ang]:                1.285497
      Cartesian components [Ang]: [  0.728613,   0.712711,   0.783369]
    Electron size [Ang]:            1.463178
      Cartesian components [Ang]: [  0.854041,   0.830505,   0.849569]

  Transition density matrix analysis:
  -----------------------------------
  
  CT numbers (Mulliken)
    omega =     0.9535
    <Phe> =    -0.1606
  
  Exciton analysis of the transition density matrix
    Trans. dipole moment [D]:             1.833479
      Cartesian components [D]:         [ -1.328714,   1.263336,   0.012114]
    <r_h> [Ang]:                        [ -1.560059,  -0.065891,   0.001485]
    <r_e> [Ang]:                        [ -1.560239,  -0.065640,   0.000975]
    |<r_e - r_h>| [Ang]:                  0.000596
    Hole size [Ang]:                      1.214233
      Cartesian components [Ang]:       [  0.649791,   0.636545,   0.804329]
    Electron size [Ang]:                  1.486018
      Cartesian components [Ang]:       [  0.864487,   0.839392,   0.869674]
    RMS electron-hole separation [Ang]:   1.936733
      Cartesian components [Ang]:       [  1.106884,   1.075182,   1.170352]
    Covariance(r_h, r_e) [Ang^2]:        -0.034161
    Correlation coefficient:             -0.018932
    Center-of-mass size [Ang]:            0.950564
      Cartesian components [Ang]:       [  0.527717,   0.515636,   0.599339]

  Decomposition into state-averaged NTOs
    H- 0 -> L+ 0:  0.6698 ( 89.7%)
    H- 2 -> L+ 5:  0.0836 (  1.4%)
                   omega =  95.4%
  ----------------------------------------------------------------------------


  Excited state 2 (singlet, A)                                     [converged]
  ----------------------------------------------------------------------------
  Term symbol:  3 (1) A                                     R^2 =  5.73940e-14

  Total energy:                                            -77.9868969947 a.u.
  Excitation energy:                                               9.054285 eV

  Osc. strength:                                                      0.000117
  Trans. dip. moment [a.u.]:           [   0.017491,   -0.014682,   -0.002065]
  <i|r^2|0> [a.u.]:                    [   0.166663,    0.085889,   -0.153070]
  Two-photon absorption cross-section (SoS) [a.u.]:                   4.895660
  Two-photon absorption matrix (SoS) [a.u.]:
                                       |    0.049199    0.059504   -0.541126 |
                                       |    0.059504    0.070443   -0.552050 |
                                       |   -0.541126   -0.552050   -0.119573 |
  Two-photon absorption cross-section [a.u.]:                         0.077598
  Two-photon absorption matrix [a.u.]:
                                       |   -0.015373   -0.007876    0.058548 |
                                       |   -0.007876    0.000399    0.077307 |
                                       |    0.058548    0.077307    0.015174 |

  Dip. moment [a.u.]:                  [  -0.004773,    0.008600,    0.004415]
  Total dipole [Debye]:                                               0.027404
  <r^2> [a.u.]:                        [ 174.516002,   33.973043,   13.174125]
  Total <r^2> [a.u.]:                                               221.663169

  V1^2 = 0.9542, V2^2 = 0.0458

  Important amplitudes:
      occ i     occ j     vir a      vir b          v   
    -----------------------------------------------------
     7 (A) A              9 (A) A                -0.6692
     8 (A) A             11 (A) A                -0.1483
     7 (A) A             20 (A) A                -0.0759
     5 (A) A   8 (A) B    9 (A) A    9 (A) B      0.0316
     8 (A) A             16 (A) A                 0.0273
     8 (A) A             21 (A) A                -0.0176
     5 (A) A             28 (A) A                 0.0150
     4 (A) A   7 (A) B    9 (A) A   19 (A) B      0.0135
     5 (A) A   7 (A) B    9 (A) A   16 (A) B     -0.0134
     7 (A) A   8 (A) B   20 (A) A   17 (A) B      0.0105
     7 (A) A   8 (A) A    9 (A) A   28 (A) A     -0.0098
     5 (A) A   8 (A) B    9 (A) A   20 (A) B      0.0096
     8 (A) A              9 (A) A                 0.0094
     4 (A) A   6 (A) B    9 (A) A   16 (A) B     -0.0091
     5 (A) A   6 (A) A    9 (A) A   23 (A) A      0.0091
     5 (A) A   6 (A) A    9 (A) A   14 (A) A      0.0089
     5 (A) A   6 (A) B    9 (A) A   19 (A) B      0.0087
     8 (A) A   7 (A) B    9 (A) A   28 (A) B      0.0085
     4 (A) A   5 (A) A    9 (A) A   10 (A) A     -0.0085
     6 (A) A   7 (A) B    9 (A) A   18 (A) B      0.0083
     5 (A) A   6 (A) B    9 (A) A   23 (A) B      0.0080
     3 (A) A   7 (A) B    9 (A) A   18 (A) B     -0.0080
     5 (A) A   7 (A) A    9 (A) A   16 (A) A     -0.0079
     4 (A) A   8 (A) B    9 (A) A   25 (A) B     -0.0077
     7 (A) A   8 (A) B   17 (A) A   20 (A) B      0.0074
     4 (A) A   7 (A) B   19 (A) A    9 (A) B      0.0074
     5 (A) A   5 (A) B    9 (A) A   13 (A) B      0.0072
     7 (A) A   8 (A) B   19 (A) A   18 (A) B     -0.0072
     5 (A) A   8 (A) A    9 (A) A   20 (A) A      0.0069
     4 (A) A   5 (A) B    9 (A) A   18 (A) B      0.0068
     7 (A) A   7 (A) B   20 (A) A   22 (A) B      0.0065
     7 (A) A   8 (A) B   17 (A) A    9 (A) B      0.0065
     5 (A) A   6 (A) B    9 (A) A   14 (A) B      0.0063
     4 (A) A   7 (A) A    9 (A) A   19 (A) A      0.0061
     4 (A) A   5 (A) B   10 (A) A    9 (A) B      0.0061
     5 (A) A             38 (A) A                 0.0060
     5 (A) A   7 (A) B   11 (A) A   20 (A) B      0.0060
     4 (A) A   7 (A) B    9 (A) A   14 (A) B     -0.0060
     4 (A) A   8 (A) A    9 (A) A   25 (A) A     -0.0057
     6 (A) A   7 (A) A   19 (A) A   28 (A) A      0.0057
    -----------------------------------------------------

  Density matrix analysis:
  ------------------------
  NOs
    Occupation of frontier NOs:
       0.9580   1.0537
    Number of electrons: 16.000000
    Number of unpaired electrons: n_u =  2.35533, n_u,nl =  2.06277
    NO participation ratio (PR_NO):  3.027536
  
  
  Mulliken Population Analysis
  Atom      Charge (e)              h+              e-           Del q
  --------------------------------------------------------------------
   1 H        0.148974        0.121674       -0.023735        0.097939
   2 C       -0.301983        0.270920       -0.472015       -0.201094
   3 H        0.152187        0.126938       -0.025312        0.101626
   4 C       -0.302419        0.273140       -0.474167       -0.201027
   5 H        0.154256        0.127871       -0.023745        0.104126
   6 H        0.148986        0.123429       -0.024998        0.098431
  --------------------------------------------------------------------
  Sum:        0.000000        1.043972       -1.043972        0.000000
  
  Multipole moment analysis of the density matrix
    Molecular charge:                      0.000000
    Number of electrons:                   16.000000
      Center of electronic charge [Ang]: [ -1.560418,  -0.065887,   0.002145]
    Total nuclear charge:                  16.000000
      Center of nuclear charge [Ang]:    [ -1.560576,  -0.065602,   0.002291]
    Dipole moment [D]:                     0.027404
      Cartesian components [D]:          [ -0.012132,   0.021860,   0.011222]
    RMS size of the density [Ang]:         1.200104
      Cartesian components [Ang]:        [  0.787042,   0.768276,   0.480173]
  
  Exciton analysis of the difference density matrix
    <r_h> [Ang]:                  [ -1.564826,  -0.062866,   0.002445]
    <r_e> [Ang]:                  [ -1.562829,  -0.066966,   0.001121]
    |<r_e - r_h>| [Ang]:            0.004749
    Hole size [Ang]:                1.486304
      Cartesian components [Ang]: [  0.999482,   1.001716,   0.454644]
    Electron size [Ang]:            1.477114
      Cartesian components [Ang]: [  0.881489,   0.859273,   0.816389]

  Transition density matrix analysis:
  -----------------------------------
  
  CT numbers (Mulliken)
    omega =     0.9218
    <Phe> =    -0.0122
  
  Exciton analysis of the transition density matrix
    Trans. dipole moment [D]:             0.029141
      Cartesian components [D]:         [  0.022229,  -0.018659,  -0.002624]
    <r_h> [Ang]:                        [ -1.565492,  -0.062296,   0.002721]
    <r_e> [Ang]:                        [ -1.562386,  -0.067513,   0.000835]
    |<r_e - r_h>| [Ang]:                  0.006358
    Hole size [Ang]:                      1.514942
      Cartesian components [Ang]:       [  1.022111,   1.026132,   0.444289]
    Electron size [Ang]:                  1.474180
      Cartesian components [Ang]:       [  0.872111,   0.848582,   0.832190]
    RMS electron-hole separation [Ang]:   2.094018
      Cartesian components [Ang]:       [  1.327744,   1.316620,   0.942613]
    Covariance(r_h, r_e) [Ang^2]:         0.041693
    Correlation coefficient:              0.018669
    Center-of-mass size [Ang]:            1.066729
      Cartesian components [Ang]:       [  0.679647,   0.673167,   0.472056]

  Decomposition into state-averaged NTOs
    H- 1 -> L+ 0: -0.6615 ( 87.5%)
    H- 0 -> L+ 2: -0.1482 (  4.4%)
                   omega =  92.2%
  ----------------------------------------------------------------------------


  Excited state 3 (singlet, A)                                     [converged]
  ----------------------------------------------------------------------------
  Term symbol:  4 (1) A                                     R^2 =  1.14307e-13

  Total energy:                                            -77.9826334889 a.u.
  Excitation energy:                                               9.170301 eV

  Osc. strength:                                                      0.025175
  Trans. dip. moment [a.u.]:           [  -0.017760,   -0.018600,    0.333753]
  <i|r^2|0> [a.u.]:                    [  -0.094444,   -0.011431,   -0.004371]
  Two-photon absorption cross-section (SoS) [a.u.]:                   0.029974
  Two-photon absorption matrix (SoS) [a.u.]:
                                       |    0.054064    0.001583    0.014546 |
                                       |    0.001583   -0.060500    0.003322 |
                                       |    0.014546    0.003322   -0.015103 |
  Two-photon absorption cross-section [a.u.]:                         0.018003
  Two-photon absorption matrix [a.u.]:
                                       |    0.031973    0.003284    0.016304 |
                                       |    0.003284   -0.049911    0.000968 |
                                       |    0.016304    0.000968   -0.008738 |

  Dip. moment [a.u.]:                  [   0.000421,    0.012458,   -0.001684]
  Total dipole [Debye]:                                               0.031971
  <r^2> [a.u.]:                        [ 180.865970,   40.606985,   11.031471]
  Total <r^2> [a.u.]:                                               232.504426

  V1^2 = 0.9587, V2^2 = 0.0413

  Important amplitudes:
      occ i     occ j     vir a      vir b          v   
    -----------------------------------------------------
     8 (A) A             10 (A) A                -0.6891
     8 (A) A             24 (A) A                -0.0507
     8 (A) A             18 (A) A                 0.0313
     4 (A) A              9 (A) A                 0.0238
     8 (A) A   8 (A) B    9 (A) A   12 (A) B     -0.0219
     8 (A) A   8 (A) B   10 (A) A   17 (A) B     -0.0173
     8 (A) A             15 (A) A                -0.0169
     5 (A) A   8 (A) B   11 (A) A   10 (A) B     -0.0165
     7 (A) A   8 (A) B   13 (A) A   10 (A) B      0.0141
     4 (A) A   8 (A) B   12 (A) A   10 (A) B      0.0111
     6 (A) A   8 (A) A   10 (A) A   15 (A) A      0.0110
     7 (A) A   8 (A) B   22 (A) A   10 (A) B     -0.0108
     6 (A) A   8 (A) B   15 (A) A   10 (A) B     -0.0108
     4 (A) A   8 (A) A   10 (A) A   12 (A) A     -0.0106
     7 (A) A   8 (A) A   10 (A) A   22 (A) A      0.0099
     7 (A) A   8 (A) A   10 (A) A   13 (A) A     -0.0097
     5 (A) A   8 (A) B   21 (A) A   10 (A) B     -0.0094
     5 (A) A   8 (A) A   10 (A) A   11 (A) A      0.0094
     6 (A) A   8 (A) A   10 (A) A   18 (A) A      0.0088
     6 (A) A   8 (A) B   10 (A) A   10 (A) B      0.0087
     7 (A) A   8 (A) A   12 (A) A   16 (A) A     -0.0082
     5 (A) A   8 (A) A   10 (A) A   21 (A) A      0.0080
     3 (A) A   4 (A) B   10 (A) A    9 (A) B     -0.0079
     4 (A) A   8 (A) B   19 (A) A   10 (A) B     -0.0075
     8 (A) A   8 (A) B    9 (A) A   23 (A) B     -0.0075
     8 (A) A   8 (A) B   10 (A) A   28 (A) B      0.0073
     3 (A) A   8 (A) B   10 (A) A   10 (A) B     -0.0072
     5 (A) A   8 (A) B   10 (A) A   11 (A) B     -0.0071
     3 (A) A   8 (A) A   10 (A) A   24 (A) A      0.0071
     7 (A) A   8 (A) B   16 (A) A   12 (A) B      0.0070
     3 (A) A   8 (A) B   10 (A) A   18 (A) B      0.0069
     8 (A) A   8 (A) B    9 (A) A   19 (A) B      0.0068
     6 (A) A   8 (A) B   18 (A) A   10 (A) B     -0.0067
     3 (A) A   6 (A) B   10 (A) A   28 (A) B      0.0062
     7 (A) A   8 (A) B   12 (A) A   11 (A) B     -0.0058
     6 (A) A             28 (A) A                -0.0057
     3 (A) A   5 (A) B   10 (A) A   25 (A) B      0.0056
     5 (A) A   8 (A) A   10 (A) A   16 (A) A     -0.0056
     3 (A) A   8 (A) A   10 (A) A   18 (A) A      0.0056
     4 (A) A   8 (A) A   10 (A) A   23 (A) A     -0.0055
    -----------------------------------------------------

  Density matrix analysis:
  ------------------------
  NOs
    Occupation of frontier NOs:
       0.9815   0.9850
    Number of electrons: 16.000000
    Number of unpaired electrons: n_u =  2.28529, n_u,nl =  2.02441
    NO participation ratio (PR_NO):  2.691999
  
  
  Mulliken Population Analysis
  Atom      Charge (e)              h+              e-           Del q
  --------------------------------------------------------------------
   1 H       -0.162686        0.053888       -0.267609       -0.213721
   2 C        0.327544        0.538940       -0.110506        0.428433
   3 H       -0.166055        0.053743       -0.270359       -0.216616
   4 C        0.326667        0.537512       -0.109453        0.428059
   5 H       -0.162360        0.053966       -0.266457       -0.212491
   6 H       -0.163110        0.053888       -0.267552       -0.213665
  --------------------------------------------------------------------
  Sum:        0.000000        1.291936       -1.291936       -0.000000
  
  Multipole moment analysis of the density matrix
    Molecular charge:                      0.000000
    Number of electrons:                   16.000000
      Center of electronic charge [Ang]: [ -1.560590,  -0.066014,   0.002346]
    Total nuclear charge:                  16.000000
      Center of nuclear charge [Ang]:    [ -1.560576,  -0.065602,   0.002291]
    Dipole moment [D]:                     0.031971
      Cartesian components [D]:          [  0.001069,   0.031665,  -0.004280]
    RMS size of the density [Ang]:         1.276494
      Cartesian components [Ang]:        [  0.854421,   0.840438,   0.439392]
  
  Exciton analysis of the difference density matrix
    <r_h> [Ang]:                  [ -1.560020,  -0.066093,   0.001726]
    <r_e> [Ang]:                  [ -1.560533,  -0.070987,   0.003154]
    |<r_e - r_h>| [Ang]:            0.005123
    Hole size [Ang]:                1.410249
      Cartesian components [Ang]: [  0.834029,   0.819792,   0.788122]
    Electron size [Ang]:            2.075993
      Cartesian components [Ang]: [  1.373308,   1.376782,   0.726805]

  Transition density matrix analysis:
  -----------------------------------
  
  CT numbers (Mulliken)
    omega =     0.9259
    <Phe> =    -0.0109
  
  Exciton analysis of the transition density matrix
    Trans. dipole moment [D]:             0.425415
      Cartesian components [D]:         [ -0.022571,  -0.023638,   0.424157]
    <r_h> [Ang]:                        [ -1.559746,  -0.065715,   0.001265]
    <r_e> [Ang]:                        [ -1.560435,  -0.072850,   0.003509]
    |<r_e - r_h>| [Ang]:                  0.007511
    Hole size [Ang]:                      1.212938
      Cartesian components [Ang]:       [  0.636538,   0.623510,   0.822966]
    Electron size [Ang]:                  2.296406
      Cartesian components [Ang]:       [  1.517969,   1.524320,   0.803552]
    RMS electron-hole separation [Ang]:   2.587160
      Cartesian components [Ang]:       [  1.638535,   1.639942,   1.148559]
    Covariance(r_h, r_e) [Ang^2]:         0.025679
    Correlation coefficient:              0.009219
    Center-of-mass size [Ang]:            1.303462
      Cartesian components [Ang]:       [  0.826745,   0.826933,   0.575925]

  Decomposition into state-averaged NTOs
    H- 0 -> L+ 1:  0.6798 ( 92.4%)
                   omega =  92.6%
  ----------------------------------------------------------------------------


  Excited state 4 (singlet, A)                                     [converged]
  ----------------------------------------------------------------------------
  Term symbol:  5 (1) A                                     R^2 =  1.92409e-13

  Total energy:                                            -77.9582857159 a.u.
  Excitation energy:                                               9.832837 eV

  Osc. strength:                                                      0.000019
  Trans. dip. moment [a.u.]:           [  -0.006631,    0.005918,    0.001125]
  <i|r^2|0> [a.u.]:                    [  -0.021428,    0.020689,   -0.036928]
  Two-photon absorption cross-section (SoS) [a.u.]:                 149.512419
  Two-photon absorption matrix (SoS) [a.u.]:
                                       |    0.283322    0.329989   -3.013628 |
                                       |    0.329989    0.377304   -3.027916 |
                                       |   -3.013628   -3.027916   -0.661241 |
  Two-photon absorption cross-section [a.u.]:                        91.827605
  Two-photon absorption matrix [a.u.]:
                                       |    0.214424    0.258135   -2.357676 |
                                       |    0.258135    0.303131   -2.376961 |
                                       |   -2.357676   -2.376961   -0.518268 |

  Dip. moment [a.u.]:                  [  -0.012514,   -0.005982,   -0.003675]
  Total dipole [Debye]:                                               0.036471
  <r^2> [a.u.]:                        [ 181.241256,   40.515710,   10.768763]
  Total <r^2> [a.u.]:                                               232.525728

  V1^2 = 0.9635, V2^2 = 0.0365

  Important amplitudes:
      occ i     occ j     vir a      vir b          v   
    -----------------------------------------------------
     8 (A) A             11 (A) A                -0.6697
     7 (A) A              9 (A) A                 0.1503
     8 (A) A             21 (A) A                -0.0781
     8 (A) A             16 (A) A                 0.0646
     8 (A) A   8 (A) B    9 (A) A   13 (A) B      0.0167
     5 (A) A   8 (A) B   11 (A) A   11 (A) B     -0.0155
     8 (A) A   8 (A) B   11 (A) A   17 (A) B     -0.0140
     7 (A) A             20 (A) A                 0.0137
     7 (A) A   8 (A) B   13 (A) A   11 (A) B      0.0127
     8 (A) A             12 (A) A                -0.0119
     5 (A) A   8 (A) A   11 (A) A   21 (A) A      0.0110
     4 (A) A   8 (A) B   12 (A) A   11 (A) B      0.0110
     8 (A) A   8 (A) B    9 (A) A   22 (A) B     -0.0107
     7 (A) A   8 (A) A   11 (A) A   22 (A) A      0.0096
     6 (A) A   8 (A) B   15 (A) A   11 (A) B     -0.0090
     6 (A) A   8 (A) B   10 (A) A   11 (A) B      0.0090
     7 (A) A   8 (A) B   22 (A) A   11 (A) B     -0.0089
     3 (A) A   4 (A) B   11 (A) A    9 (A) B     -0.0083
     3 (A) A   8 (A) B   11 (A) A   18 (A) B      0.0081
     6 (A) A   8 (A) A   11 (A) A   15 (A) A      0.0080
     7 (A) A   8 (A) A   13 (A) A   16 (A) A      0.0078
     6 (A) A              9 (A) A                -0.0077
     7 (A) A   8 (A) A   11 (A) A   13 (A) A     -0.0077
     5 (A) A   8 (A) B   21 (A) A   11 (A) B     -0.0071
     4 (A) A   8 (A) B   19 (A) A   11 (A) B     -0.0070
     5 (A) A   8 (A) B    9 (A) A    9 (A) B     -0.0068
     4 (A) A   8 (A) A   11 (A) A   12 (A) A     -0.0062
     6 (A) A   8 (A) A   11 (A) A   18 (A) A      0.0062
     3 (A) A   6 (A) B   11 (A) A   28 (A) B      0.0060
     6 (A) A   8 (A) B   18 (A) A   11 (A) B     -0.0060
     7 (A) A   8 (A) B   16 (A) A   13 (A) B     -0.0057
     3 (A) A   8 (A) A   11 (A) A   18 (A) A      0.0056
     5 (A) A   8 (A) B   10 (A) A   10 (A) B     -0.0056
     3 (A) A   8 (A) B   11 (A) A   30 (A) B      0.0055
     3 (A) A   5 (A) B   11 (A) A   25 (A) B      0.0055
     6 (A) A   8 (A) B   11 (A) A   10 (A) B      0.0054
     7 (A) A   8 (A) B   12 (A) A   10 (A) B     -0.0054
     8 (A) A   8 (A) B   20 (A) A   22 (A) B     -0.0053
     3 (A) A   8 (A) A   11 (A) A   24 (A) A      0.0053
     5 (A) A   8 (A) A   11 (A) A   16 (A) A     -0.0048
    -----------------------------------------------------

  Density matrix analysis:
  ------------------------
  NOs
    Occupation of frontier NOs:
       0.9407   1.0278
    Number of electrons: 16.000000
    Number of unpaired electrons: n_u =  2.31916, n_u,nl =  2.04913
    NO participation ratio (PR_NO):  2.914671
  
  
  Mulliken Population Analysis
  Atom      Charge (e)              h+              e-           Del q
  --------------------------------------------------------------------
   1 H       -0.147029        0.045766       -0.243830       -0.198064
   2 C        0.274766        0.497163       -0.121508        0.375655
   3 H       -0.128117        0.046951       -0.225629       -0.178679
   4 C        0.273145        0.496761       -0.122224        0.374537
   5 H       -0.130294        0.047080       -0.227505       -0.180425
   6 H       -0.142470        0.045833       -0.238858       -0.193025
  --------------------------------------------------------------------
  Sum:        0.000000        1.179554       -1.179554       -0.000000
  
  Multipole moment analysis of the density matrix
    Molecular charge:                      0.000000
    Number of electrons:                   16.000000
      Center of electronic charge [Ang]: [ -1.560162,  -0.065404,   0.002412]
    Total nuclear charge:                  16.000000
      Center of nuclear charge [Ang]:    [ -1.560576,  -0.065602,   0.002291]
    Dipole moment [D]:                     0.036471
      Cartesian components [D]:          [ -0.031807,  -0.015205,  -0.009341]
    RMS size of the density [Ang]:         1.277194
      Cartesian components [Ang]:        [  0.859033,   0.839535,   0.434128]
  
  Exciton analysis of the difference density matrix
    <r_h> [Ang]:                  [ -1.560059,  -0.065437,   0.001679]
    <r_e> [Ang]:                  [ -1.554818,  -0.062524,   0.004136]
    |<r_e - r_h>| [Ang]:            0.006480
    Hole size [Ang]:                1.394849
      Cartesian components [Ang]: [  0.818342,   0.806849,   0.790515]
    Electron size [Ang]:            2.124126
      Cartesian components [Ang]: [  1.442441,   1.403737,   0.678821]

  Transition density matrix analysis:
  -----------------------------------
  
  CT numbers (Mulliken)
    omega =     0.9298
    <Phe> =    -0.0135
  
  Exciton analysis of the transition density matrix
    Trans. dipole moment [D]:             0.011386
      Cartesian components [D]:         [ -0.008427,   0.007521,   0.001430]
    <r_h> [Ang]:                        [ -1.560393,  -0.065604,   0.001307]
    <r_e> [Ang]:                        [ -1.553856,  -0.061821,   0.004516]
    |<r_e - r_h>| [Ang]:                  0.008206
    Hole size [Ang]:                      1.227961
      Cartesian components [Ang]:       [  0.657915,   0.650314,   0.807544]
    Electron size [Ang]:                  2.262181
      Cartesian components [Ang]:       [  1.536854,   1.495164,   0.721132]
    RMS electron-hole separation [Ang]:   2.563301
      Cartesian components [Ang]:       [  1.663206,   1.622686,   1.082195]
    Covariance(r_h, r_e) [Ang^2]:         0.027454
    Correlation coefficient:              0.009883
    Center-of-mass size [Ang]:            1.292310
      Cartesian components [Ang]:       [  0.840139,   0.819107,   0.541567]

  Decomposition into state-averaged NTOs
    H- 0 -> L+ 2: -0.6650 ( 88.4%)
    H- 1 -> L+ 0:  0.1483 (  4.4%)
                   omega =  93.0%
  ----------------------------------------------------------------------------


  Excited state 5 (singlet, A)                                     [converged]
  ----------------------------------------------------------------------------
  Term symbol:  6 (1) A                                     R^2 =  3.54826e-13

  Total energy:                                            -77.9443622470 a.u.
  Excitation energy:                                              10.211714 eV

  Osc. strength:                                                      0.000000
  Trans. dip. moment [a.u.]:           [  -0.000640,   -0.001046,    0.000094]
  <i|r^2|0> [a.u.]:                    [   0.086051,   -0.105156,    0.014381]
  Two-photon absorption cross-section (SoS) [a.u.]:                 178.138824
  Two-photon absorption matrix (SoS) [a.u.]:
                                       |    0.316018    0.044219   -3.345085 |
                                       |    0.044219   -0.406308    3.307675 |
                                       |   -3.345085    3.307675    0.070998 |
  Two-photon absorption cross-section [a.u.]:                        79.717984
  Two-photon absorption matrix [a.u.]:
                                       |    0.203945    0.024243   -2.224834 |
                                       |    0.024243   -0.279946    2.225489 |
[...]
    16   -1.633762048701e-03
    17   -1.755468719540e-03
    18   -8.374603511892e-05
    19   -3.315644506139e-03
    20    1.083974718000e-02
    21    9.349290867690e-01
    22   -2.758992627735e-04
    23    1.398888395499e-02
    24    8.046052282603e-04
    25    7.022977511391e-02
    26   -5.223192077045e-02
    27   -1.398596290093e+00
    28    9.783959600856e-02
    29   -9.274780565266e-02
    30   -6.908725327485e-04
    31    3.846074601574e-01
    32   -3.628048807245e-01
    33   -2.575258873210e-03
    34    1.562869406999e-02
    35   -1.481902584612e-03
    36   -1.742537625658e-03
    37   -4.852706838865e-05
    38   -3.128339897469e-03
    39    9.901112744887e-03
    40    9.321524330906e-01
    41    2.416127935384e-04
    42   -1.393119564444e-02
    43   -8.070672183240e-04
    44    1.004287942022e-02
    45    9.391783892190e-01
    46    1.411312196145e-02
    47    3.682676644834e-04
    48    6.917161750734e-04
Sym=X
Ene= 0.232949
Spin=Alpha
Occup=0
     1    2.623827340428e-02
     2    1.235251761938e+00
     3   -1.432874554349e-02
     4   -3.828197738401e-03
     5   -9.754210141275e-04
     6    3.168087053758e-03
     7   -3.575919132982e-03
     8   -5.000468753408e-02
     9   -1.549046934540e-01
    10   -1.584853393493e-01
    11   -1.766386659353e-02
    12   -5.565575174692e-01
    13   -5.578642818783e-01
    14   -6.308210918444e-02
    15    5.370176977591e-04
    16   -1.662722250569e-04
    17   -9.433290745191e-05
    18   -2.049005282665e-04
    19   -3.540980384111e-04
    20   -2.500387929371e-02
    21   -1.158923376189e+00
    22   -2.484816577096e-03
    23   -1.354490701039e-02
    24   -9.548800137495e-04
    25   -2.910886010339e-03
    26    3.347237493095e-03
    27    4.336934729619e-02
    28   -1.540629007857e-01
    29   -1.588981918160e-01
    30   -1.645584909438e-02
    31   -5.484327077863e-01
    32   -5.549248870336e-01
    33   -5.759713364246e-02
    34   -5.228075828910e-04
    35    6.365232151677e-05
    36    8.731494740381e-05
    37    3.796566015238e-04
    38    3.618732047457e-04
    39    2.504206953401e-02
    40    1.156108529121e+00
    41   -2.449024263332e-03
    42   -1.359075279123e-02
    43   -8.970731844163e-04
    44   -2.626552085657e-02
    45   -1.223990734243e+00
    46   -1.426234737737e-02
    47   -3.780259713925e-03
    48   -8.936950200103e-04
Sym=X
Ene= 0.239404
Spin=Alpha
Occup=0
     1   -1.598481747707e-02
     2   -1.048509188813e+00
     3    1.647218088140e-02
     4    9.088222684265e-03
     5    1.422701220013e-03
     6   -8.649082395705e-02
     7    7.973862370400e-02
     8    1.592410249032e+00
     9    5.289758556839e-02
    10   -6.091294522103e-02
    11   -1.690608979212e-04
    12    2.097745567116e-01
    13   -2.367727580374e-01
    14   -3.505582421865e-04
    15   -2.252024976699e-02
    16    2.756195190102e-03
    17    2.969109137824e-03
    18   -5.324929501591e-04
    19    1.285734925323e-02
    20   -1.707310008993e-02
    21   -1.126610692140e+00
    22   -8.536335834259e-03
    23   -1.779133329427e-02
    24   -1.430503412812e-03
    25    8.644917628098e-02
    26   -7.931394139603e-02
    27   -1.596493207599e+00
    28    5.316617012876e-02
    29   -6.143469657944e-02
    30   -1.654582224621e-03
    31    2.104794350052e-01
    32   -2.417344535020e-01
    33   -6.752564647092e-03
    34    2.261191786409e-02
    35   -2.566145082393e-03
    36   -3.076411928385e-03
    37    7.263248303984e-04
    38   -1.279103506122e-02
    39    1.683972839861e-02
    40    1.132788008290e+00
    41   -8.626336021408e-03
    42   -1.792238376436e-02
    43   -1.520108058708e-03
    44    1.561029923174e-02
    45    1.046998344059e+00
    46    1.641463691187e-02
    47    9.263883676404e-03
    48    1.309566761996e-03
Sym=X
Ene= 0.303258
Spin=Alpha
Occup=0
     1   -2.072546510916e-02
     2    1.690623328658e+00
     3   -2.290640327808e-02
     4    2.755251934482e-04
     5   -1.158101724955e-03
     6   -2.043531297023e-04
     7    1.787373139038e-04
     8    2.487861978568e-03
     9   -1.338536152661e-01
    10   -1.395271098952e-01
    11   -1.521912100475e-02
    12   -1.143765518930e+00
    13   -1.193574202365e+00
    14   -1.284569476649e-01
    15   -1.619766113458e-04
    16   -1.841802404730e-03
    17    1.754049386232e-03
    18   -3.264707618281e-02
    19   -1.557851157593e-03
    20    1.999548596993e-02
    21   -1.689704007321e+00
    22    1.420159857019e-03
    23   -2.290467582859e-02
    24   -1.293585324428e-03
    25    7.863069260684e-05
    26    2.674676287783e-04
    27   -8.436340127531e-03
    28    1.347203919350e-01
    29    1.403006079753e-01
    30    1.466073534577e-02
    31    1.139935269685e+00
    32    1.197594805984e+00
    33    1.263398446566e-01
    34    7.301433162303e-05
    35   -1.575386714188e-03
    36    1.951538065089e-03
    37   -3.250741553053e-02
    38   -1.693558675560e-03
    39    1.959389588345e-02
    40   -1.692387322559e+00
    41   -1.615314171338e-03
    42    2.284044070754e-02
    43    1.308498420862e-03
    44   -2.013159285133e-02
    45    1.698741074355e+00
    46    2.304844529360e-02
    47   -3.593436457137e-04
    48    1.038158090373e-03
Sym=X
Ene= 0.462030
Spin=Alpha
Occup=0
     1   -1.157596102791e-01
     2   -7.135703303167e-01
     3   -1.567303808187e-02
     4   -1.032264053905e-02
     5   -1.395824742047e-03
     6    6.080169302462e-02
     7    1.740495015815e-02
     8   -3.592159136406e+00
     9    1.029696101613e-01
    10   -9.902880923955e-02
    11   -1.458372933141e-04
    12    2.425729051341e+00
    13   -2.303271343788e+00
    14   -1.910192886379e-02
    15    5.364562160130e-02
    16   -3.575984570173e-03
    17   -4.809105921745e-03
    18   -7.795876251186e-04
    19    1.801654935327e-02
    20   -1.212290613750e-01
    21   -7.024128599109e-01
    22    8.728804647405e-03
    23    1.637504914352e-02
    24    1.467500679578e-03
    25   -6.094133653983e-02
    26   -1.628044597591e-02
    27    3.591252767141e+00
    28    1.051612588932e-01
    29   -1.004517542854e-01
    30   -1.025059566575e-03
    31    2.422755422003e+00
    32   -2.298090581249e+00
    33   -2.301751880204e-02
    34   -5.270911354577e-02
    35    3.319138769825e-03
    36    4.380777590646e-03
    37    6.550964865534e-04
    38   -1.904435955110e-02
    39    1.151386044340e-01
    40    7.091232772662e-01
    41    8.578780860446e-03
    42    1.625001893515e-02
    43    1.345929683267e-03
    44    1.107669460587e-01
    45    7.181272715918e-01
    46   -1.545853431983e-02
    47   -9.937760998703e-03
    48   -1.326784064390e-03
Sym=X
Ene= 0.577493
Spin=Alpha
Occup=0
     1    2.470697126649e-01
     2    4.024106543393e-02
     3   -1.847685980509e-02
     4    2.572513129967e-02
     5    5.892754952846e-04
     6   -4.437093418168e-03
     7   -1.571590828611e-01
     8   -4.666266928199e-01
     9    2.988200157841e-01
    10   -2.879109499235e-01
    11   -2.906500050650e-03
    12   -7.189533388685e-01
    13    6.958773534678e-01
    14    5.812743583096e-03
    15   -5.893243573223e-03
    16    3.925734037939e-03
    17    3.839831204168e-03
    18   -4.342424890512e-03
    19    6.023491559197e-02
    20    2.553911500277e-01
    21    2.909942032580e-02
    22   -2.641560691520e-02
    23    1.645325537726e-02
    24   -3.629459073218e-04
    25   -5.646597751663e-03
    26   -1.578553807593e-01
    27   -4.088737234090e-01
    28   -2.973314009835e-01
    29    2.851668100188e-01
    30    2.700080098853e-03
    31    7.630979380286e-01
    32   -7.336006740209e-01
    33   -6.884482922189e-03
    34   -5.869456573296e-03
    35    3.926864141178e-03
    36    3.794318044764e-03
    37   -3.747732928623e-03
    38    6.019071372897e-02
    39    2.507688779356e-01
    40    5.020432517656e-02
    41    2.722219807687e-02
    42   -1.700770103992e-02
    43    2.729682706327e-04
    44    2.491318614265e-01
    45    5.623558655014e-02
    46    1.841864094156e-02
    47   -2.588394553798e-02
    48   -6.762271879071e-04
Sym=X
Ene= 0.615165
Spin=Alpha
Occup=0
     1   -5.223700336479e-01
     2    2.009391925756e-01
     3   -6.136493246892e-02
     4    3.764990436857e-02
     5   -8.352351713554e-04
     6   -5.887633454810e-04
     7    2.183297500388e-04
     8   -1.673200003928e-02
     9   -4.027926109539e-02
    10   -3.848808759002e-02
    11   -4.087770120923e-03
    12    3.039075007772e-01
    13    2.790555447473e-01
    14    3.295503696922e-02
    15    1.829440720572e-03
    16   -8.213639314627e-03
    17    7.957952571785e-03
    18   -1.479949282748e-01
    19   -6.436923077091e-03
    20    5.080676619979e-01
    21   -2.049034058117e-01
    22    4.178654833100e-02
    23   -5.847182761957e-02
    24   -1.288269365594e-03
    25    4.154889619349e-04
    26   -1.004101710824e-03
    27    2.412315375992e-02
    28   -3.998038291168e-02
    29   -4.027840846124e-02
    30   -4.523813966433e-03
    31    3.036035239585e-01
    32    2.903611658484e-01
    33    3.079990607137e-02
    34   -1.457470702522e-03
    35    7.488399410469e-03
    36   -8.734604203067e-03
    37    1.491401651613e-01
    38    6.324508937273e-03
    39   -5.149322576559e-01
    40    2.070541694412e-01
    41    4.092452982364e-02
    42   -5.859020442820e-02
    43   -1.645336705699e-03
    44    5.218684863846e-01
    45   -2.042020831500e-01
    46   -6.147108181275e-02
    47    3.760450309439e-02
    48   -6.927662239942e-04
Sym=X
Ene= 0.689149
Spin=Alpha
Occup=0
     1    6.714512244578e-04
     2   -2.141527697566e-03
     3    1.499043859392e-03
     4    1.397737314935e-03
     5   -2.091986103442e-02
     6    4.055280360585e-05
     7    1.669192592818e-03
     8   -1.618942411036e-03
     9    3.306202328519e-02
    10    4.098540740139e-02
    11   -6.702250847213e-01
    12   -2.905652193439e-02
    13   -3.914871395227e-02
    14    6.134020559314e-01
    15   -1.707329962407e-03
    16    8.269857587027e-02
    17   -7.829374333180e-02
    18   -8.528585093827e-03
    19   -1.100184833382e-03
    20    4.351986788672e-04
    21   -1.031110952479e-03
    22    1.093360041177e-03
    23    8.948496786813e-04
    24   -2.094518978642e-02
    25    8.808255986901e-05
    26    1.195137295332e-03
    27   -5.349080280865e-05
    28    3.242360471658e-02
    29    3.929717042515e-02
    30   -6.701196029348e-01
    31   -2.798967218442e-02
    32   -3.705765320126e-02
    33    6.132658229826e-01
    34    8.002486662713e-04
    35   -8.269049109935e-02
    36    7.849182089921e-02
    37    8.936090555488e-03
    38    1.459956805102e-03
    39    1.237698141477e-03
    40    4.656932542828e-04
    41    1.069290254145e-03
    42    1.512686209208e-03
    43   -2.105396077711e-02
    44    1.505889852943e-03
    45   -6.564223314174e-04
    46    6.592552661507e-04
    47    1.013971426519e-03
    48   -2.107671781964e-02
Sym=X
Ene= 0.708860
Spin=Alpha
Occup=0
     1   -4.760043858092e-01
     2    1.595642938892e-01
     3   -8.075107107233e-02
     4   -4.426828003273e-02
     5   -6.693317187444e-03
     6   -4.785676228840e-02
     7   -3.197201145676e-01
     8    5.099132941877e-01
     9    2.038631813544e-01
    10   -1.921286588904e-01
    11   -3.249836004870e-03
    12   -9.928925655257e-02
    13    8.159886361881e-02
    14    3.075900568781e-03
    15    1.940025812899e-01
    16   -2.124000903198e-02
    17   -2.447398497334e-02
    18    3.135580827381e-03
    19   -7.740747930277e-02
    20   -4.786275530217e-01
    21    1.504293823194e-01
    22    4.093482166894e-02
    23    8.173081516630e-02
    24    6.964654864132e-03
    25   -4.665978345721e-02
    26   -3.211541710672e-01
    27    4.617578045749e-01
    28   -2.042293882656e-01
    29    1.920120554099e-01
    30   -2.716464108255e-05
    31    6.442696906890e-02
    32   -5.110801539572e-02
    33    9.950748851724e-04
    34    1.934940231957e-01
    35   -2.058862623799e-02
    36   -2.391134306266e-02
    37    2.411008915366e-03
    38   -7.551534269709e-02
    39   -4.719055848631e-01
    40    1.347545114768e-01
    41   -4.065066311718e-02
    42   -8.092511004172e-02
    43   -6.876090496999e-03
    44   -4.741609007702e-01
    45    1.458907846998e-01
    46    8.047401779378e-02
    47    4.396973828890e-02
    48    6.353048271405e-03
Sym=X
Ene= 0.784504
Spin=Alpha
Occup=0
     1    5.263836420284e-01
     2   -4.702153913314e-01
     3    1.102507315641e-01
     4    2.599347133743e-02
     5    7.135353240627e-03
     6    9.092061938412e-02
     7   -2.162508807879e-01
     8   -6.415159968542e-01
     9    1.101711893989e-01
    10   -1.064564815128e-01
    11    1.700669170400e-03
    12    3.190185794667e-01
    13   -2.925710078231e-01
    14   -7.900724633031e-03
    15   -2.059895181278e-01
    16    1.893211134545e-02
    17    2.194720808715e-02
    18   -1.079838052629e-03
    19    9.152559274877e-03
    20    5.357635380361e-01
    21   -4.679936609016e-01
    22   -2.021689551907e-02
    23   -1.121755483955e-01
    24   -7.759960724972e-03
    25   -9.141112371148e-02
    26    2.126222034732e-01
    27    6.575498848089e-01
    28    1.115419889091e-01
    29   -1.053818831243e-01
    30   -4.123848977098e-03
    31    3.100444484078e-01
    32   -2.884989695003e-01
    33    3.585438962564e-03
    34    2.078101611502e-01
    35   -1.738427748794e-02
    36   -2.216588379033e-02
    37    1.774020207998e-03
    38   -8.960250723596e-03
    39   -5.420997285113e-01
    40    4.666655207883e-01
    41   -2.050108315512e-02
    42   -1.129145029206e-01
    43   -7.735225442427e-03
    44   -5.317243588984e-01
    45    4.651684883493e-01
    46    1.100759671662e-01
    47    2.684129843033e-02
    48    6.767915199023e-03
Sym=X
Ene= 0.807967
Spin=Alpha
Occup=0
     1    1.825620904813e-03
     2   -8.626521286118e-04
     3    2.272187595652e-03
     4    1.800595659351e-03
     5   -3.374497744298e-02
     6    3.383702845598e-04
     7   -3.395273375716e-04
     8   -8.436964988661e-04
     9    3.928842416250e-02
    10    4.576719928310e-02
    11   -7.628160894123e-01
    12   -5.588603488855e-02
    13   -7.001774229382e-02
    14    1.126614713695e+00
    15   -1.202255119089e-04
    16   -6.517504903932e-02
    17    6.197650044491e-02
    18    6.494084520306e-03
    19    7.184985018394e-04
    20    1.922065927429e-03
    21   -3.925274178079e-03
    22    1.734894074592e-03
    23    1.141358350540e-03
    24   -3.453435426881e-02
    25   -3.754744295843e-04
    26    1.150104057566e-03
    27    4.461948622098e-04
    28   -3.497669931523e-02
    29   -4.592356367236e-02
    30    7.632739340277e-01
    31    5.363849328114e-02
    32    6.559020443471e-02
    33   -1.127113311141e+00
    34    2.041657808889e-03
    35   -6.525355095277e-02
    36    6.172048215337e-02
    37    7.286971459410e-03
    38    1.222605623536e-03
    39   -1.942915998085e-03
    40    3.675616762170e-03
    41   -1.676559720779e-03
    42   -2.782968688993e-03
    43    3.421108031249e-02
    44   -1.827619861090e-03
    45    6.313789868407e-04
    46   -1.223186035897e-03
    47   -2.192018856410e-03
    48    3.375297154389e-02
Sym=X
Ene= 0.862239
Spin=Alpha
Occup=0
     1    1.349862548781e-02
     2   -1.096083791235e+00
     3    1.483753444614e-01
     4    5.644848929309e-02
     5    1.097431071916e-02
     6    1.415402209747e-04
     7   -4.730832861089e-04
     8    1.739346004095e-03
     9   -4.070949338129e-01
    10   -4.289049612547e-01
    11   -4.726305069152e-02
    12    9.478766763115e-01
    13    9.985980538290e-01
    14    1.098722586112e-01
    15   -5.102304270266e-04
    16    1.225510811744e-02
    17   -1.343205353421e-02
    18    2.352474723155e-01
    19    9.501828224235e-03
    20   -1.394799963084e-02
    21    1.103512072470e+00
    22    5.036395708605e-02
    23    1.514436761395e-01
    24    1.143226176169e-02
    25   -6.367808532339e-05
    26    1.615708923020e-03
    27   -2.100692262848e-03
    28   -4.066034016492e-01
    29   -4.293775473941e-01
    30   -4.390175065280e-02
    31    9.467089879408e-01
    32    1.002146485771e+00
    33    1.025324337452e-01
    34    2.374286414487e-04
    35   -1.218185363510e-02
    36    1.361403720610e-02
    37   -2.363268474732e-01
    38   -1.025004063480e-02
    39    1.188696368691e-02
    40   -1.102061248770e+00
    41    4.894705360350e-02
    42    1.515727214321e-01
    43    1.137874843000e-02
    44   -1.115138497214e-02
    45    1.094421767829e+00
    46    1.486124462294e-01
    47    5.568246015708e-02
    48    1.044269606725e-02
Sym=X
Ene= 0.935898
Spin=Alpha
Occup=0
     1   -1.134012136719e-01
     2    1.278758437832e+00
     3   -1.811398740480e-01
     4    5.371045144640e-03
     5   -8.809250877671e-03
     6    2.194828208950e-05
     7   -2.181259097595e-03
     8   -1.256034460422e-03
     9    4.727371072958e-01
    10    4.991427236118e-01
    11    5.354931102950e-02
    12   -1.464875275984e+00
    13   -1.539528187415e+00
    14   -1.653510108672e-01
    15   -1.064974052811e-03
    16   -6.493604319091e-03
    17    7.081924409107e-03
    18   -1.201181848482e-01
    19   -2.305519790702e-03
    20    1.173625686460e-01
    21   -1.285914186353e+00
    22    1.159953540971e-02
    23   -1.828261851835e-01
    24   -1.043020123154e-02
    25    4.020253538963e-05
    26   -4.568153967133e-04
    27    6.440012154740e-04
    28   -4.748844634237e-01
    29   -4.974044644009e-01
    30   -5.244132105243e-02
    31    1.470309262756e+00
    32    1.531708825836e+00
    33    1.620178871416e-01
    34   -5.623484637906e-04
    35   -5.422490520655e-03
    36    7.328565710848e-03
    37   -1.208407974077e-01
    38   -4.909391760778e-03
    39    1.168566032564e-01
    40   -1.281474654557e+00
    41   -1.344041061382e-02
    42    1.820089037942e-01
    43    1.036732719581e-02
    44   -1.154612744666e-01
    45    1.287071259865e+00
    46    1.820754721226e-01
    47   -5.402187126724e-03
    48    8.121080775642e-03
Sym=X
Ene= 0.972437
Spin=Alpha
Occup=0
     1   -6.446472374421e-02
     2    9.272816196555e-01
     3   -9.107909151793e-02
     4   -9.851748969698e-02
     5   -1.075593250541e-02
     6    2.536099443294e-02
     7    2.545111038948e-01
     8    5.161224511334e-01
     9    4.816125016585e-01
    10   -4.544491500041e-01
    11   -2.553491832462e-03
    12   -1.496117607211e+00
    13    1.406914932424e+00
    14    8.272656694924e-03
    15   -5.398562375663e-02
    16   -1.323598722756e-02
    17   -9.690930075810e-03
    18    1.352507450282e-02
    19   -3.017148004792e-01
    20   -6.256531443943e-02
    21    9.096512694691e-01
    22    9.535135994097e-02
    23    9.302991427213e-02
    24    9.920027768617e-03
    25   -2.515443436694e-02
    26   -2.362553794152e-01
    27   -5.464267958017e-01
    28    4.774342739388e-01
    29   -4.553136343388e-01
    30   -5.065152313592e-03
    31   -1.482216517504e+00
    32    1.417044704620e+00
    33    1.576981893251e-02
    34    5.283347553642e-02
    35    1.300061108902e-02
    36    9.877300617880e-03
    37   -1.430763985806e-02
    38    2.988691863444e-01
    39    6.216343704709e-02
    40   -9.095560218767e-01
    41    9.414140708526e-02
    42    9.284835016278e-02
    43    1.021048193579e-02
    44    6.579388206146e-02
    45   -9.085238802007e-01
    46   -8.857345429625e-02
    47   -9.777289171038e-02
    48   -1.004463714401e-02
[5D]

======= END OF MOLDEN-FORMATTED INPUT FILE =======


        *************************************************************
        *                                                           *
        *  Thank you very much for using Q-Chem.  Have a nice day.  *
        *                                                           *
        *************************************************************


