                  Welcome to Q-Chem
     A Quantum Leap Into The Future Of Chemistry


 Q-Chem 5.4 (devel), Q-Chem, Inc., Pleasanton, CA (2021)

 E. Epifanovsky,  A. T. B. Gilbert,  Xintian Feng,  Joonho Lee,  Yuezhi Mao,  
 N. Mardirossian,  P. Pokhilko,  A. White,  M. Wormit,  M. P. Coons,  
 A. L. Dempwolff,  Zhengting Gan,  D. Hait,  P. R. Horn,  L. D. Jacobson,  
 I. Kaliman,  J. Kussmann,  A. W. Lange,  Ka Un Lao,  D. S. Levine,  Jie Liu,  
 S. C. McKenzie,  A. F. Morrison,  K. Nanda,  F. Plasser,  D. R. Rehn,  
 M. L. Vidal,  Zhi-Qiang You,  Ying Zhu,  B. Alam,  B. Albrecht,  
 A. Aldossary,  E. Alguire,  J. H. Andersen,  D. Barton,  K. Begam,  A. Behn,  
 Y. A. Bernard,  E. J. Berquist,  H. Burton,  A. Carreras,  K. Carter-Fenk,  
 R. Chakraborty,  A. D. Chien,  K. D. Closser,  V. Cofer-Shabica,  
 S. Dasgupta,  Jia Deng,  M. de Wergifosse,  M. Diedenhofen,  Hainam Do,  
 S. Ehlert,  Po-Tung Fang,  S. Fatehi,  Qingguo Feng,  T. Friedhoff,  
 J. Gayvert,  Qinghui Ge,  G. Gidofalvi,  M. Goldey,  J. Gomes,  
 C. Gonzalez-Espinoza,  S. Gulania,  A. Gunina,  M. W. D. Hanson-Heine,  
 P. H. P. Harbach,  A. W. Hauser,  M. F. Herbst,  M. Hernandez Vera,  
 M. Hodecker,  Z. C. Holden,  S. Houck,  Xunkun Huang,  Kerwin Hui,  
 B. C. Huynh,  M. Ivanov,  Hyunjun Ji,  Hanjie Jiang,  B. Kaduk,  S. Kaehler,  
 K. Khistyaev,  Jaehoon Kim,  P. Klunzinger,  Z. Koczor-Benda,  
 Joong Hoon Koh,  D. Kosenkov,  L. Koulias,  T. Kowalczyk,  C. M. Krauter,  
 K. Kue,  A. Kunitsa,  T. Kus,  A. Landau,  K. V. Lawler,  D. Lefrancois,  
 S. Lehtola,  Rain Li,  Yi-Pei Li,  Jiashu Liang,  M. Liebenthal,  
 Hung-Hsuan Lin,  You-Sheng Lin,  Fenglai Liu,  Kuan-Yu Liu,  
 M. Loipersberger,  A. Luenser,  A. Manjanath,  P. Manohar,  E. Mansoor,  
 S. F. Manzer,  Shan-Ping Mao,  A. V. Marenich,  T. Markovich,  S. Mason,  
 S. A. Maurer,  P. F. McLaughlin,  M. F. S. J. Menger,  J.-M. Mewes,  
 S. A. Mewes,  P. Morgante,  J. W. Mullinax,  K. J. Oosterbaan,  G. Paran,  
 Alexander C. Paul,  Suranjan K. Paul,  F. Pavosevic,  Zheng Pei,  S. Prager,  
 E. I. Proynov,  E. Ramos,  B. Rana,  A. E. Rask,  A. Rettig,  R. M. Richard,  
 F. Rob,  E. Rossomme,  T. Scheele,  M. Scheurer,  M. Schneider,  
 N. Sergueev,  S. M. Sharada,  W. Skomorowski,  D. W. Small,  C. J. Stein,  
 Yu-Chuan Su,  E. J. Sundstrom,  Zhen Tao,  J. Thirman,  T. Tsuchimochi,  
 N. M. Tubman,  S. P. Veccham,  O. Vydrov,  J. Wenzel,  J. Witte,  A. Yamada,  
 Kun Yao,  S. Yeganeh,  S. R. Yost,  A. Zech,  Igor Ying Zhang,  Xing Zhang,  
 Yu Zhang,  D. Zuev,  A. Aspuru-Guzik,  A. T. Bell,  N. A. Besley,  
 K. B. Bravaya,  B. R. Brooks,  D. Casanova,  Jeng-Da Chai,  S. Coriani,  
 C. J. Cramer,  A. E. DePrince, III,  R. A. DiStasio Jr.,  A. Dreuw,  
 B. D. Dunietz,  T. R. Furlani,  W. A. Goddard III,  S. Grimme,  
 S. Hammes-Schiffer,  T. Head-Gordon,  W. J. Hehre,  Chao-Ping Hsu,  
 T.-C. Jagau,  Yousung Jung,  A. Klamt,  Jing Kong,  D. S. Lambrecht,  
 WanZhen Liang,  N. J. Mayhall,  C. W. McCurdy,  J. B. Neaton,  
 C. Ochsenfeld,  J. A. Parkhill,  R. Peverati,  V. A. Rassolov,  Yihan Shao,  
 L. V. Slipchenko,  T. Stauch,  R. P. Steele,  J. E. Subotnik,  
 A. J. W. Thom,  A. Tkatchenko,  D. G. Truhlar,  T. Van Voorhis,  
 T. A. Wesolowski,  K. B. Whaley,  H. L. Woodcock III,  P. M. Zimmerman,  
 S. Faraji,  P. M. W. Gill,  M. Head-Gordon,  J. M. Herbert,  A. I. Krylov

 Additional authors for Version 5.4.1: 
 S. Kotaru,  Shaozhi Li,  Xiangyuan Li,  F. Matz,  A. Molle,  Haisheng Ren,  
 Yingli Su,  Hung-Yi Tsai,  C. Utku,  Fang Wang

 Contributors to earlier versions of Q-Chem not listed above: 
 R. D. Adamson,  B. Austin,  R. Baer,  J. Baker,  G. J. O. Beran,  
 K. Brandhorst,  S. T. Brown,  E. F. C. Byrd,  A. K. Chakraborty,  
 G. K. L. Chan,  Chun-Min Chang,  Yunqing Chen,  C.-L. Cheng,  
 Siu Hung Chien,  D. M. Chipman,  D. L. Crittenden,  H. Dachsel,  
 R. J. Doerksen,  A. D. Dutoi,  R. G. Edgar,  J. Fosso-Tande,  
 L. Fusti-Molnar,  D. Ghosh,  A. Ghysels,  A. Golubeva-Zadorozhnaya,  
 J. Gonthier,  M. S. Gordon,  S. R. Gwaltney,  G. Hawkins,  J. E. Herr,  
 A. Heyden,  S. Hirata,  E. G. Hohenstein,  G. Kedziora,  F. J. Keil,  
 C. Kelley,  Jihan Kim,  R. A. King,  R. Z. Khaliullin,  P. P. Korambath,  
 W. Kurlancheek,  A. Laurent,  A. M. Lee,  M. S. Lee,  S. V. Levchenko,  
 Ching Yeh Lin,  D. Liotard,  E. Livshits,  R. C. Lochan,  I. Lotan,  
 L. A. Martinez-Martinez,  P. E. Maslen,  N. Nair,  D. P. O'Neill,  
 D. Neuhauser,  E. Neuscamman,  C. M. Oana,  R. Olivares-Amaya,  R. Olson,  
 T. M. Perrine,  B. Peters,  P. A. Pieniazek,  A. Prociuk,  Y. M. Rhee,  
 J. Ritchie,  M. A. Rohrdanz,  E. Rosta,  N. J. Russ,  H. F. Schaefer III,  
 M. W. Schmidt,  N. E. Schultz,  S. Sharma,  N. Shenvi,  C. D. Sherrill,  
 A. C. Simmonett,  A. Sodt,  T. Stein,  D. Stuck,  K. S. Thanthiriwatte,  
 V. Vanovschi,  L. Vogt,  Tao Wang,  A. Warshel,  M. A. Watson,  
 C. F. Williams,  Q. Wu,  X. Xu,  Jun Yang,  W. Zhang,  Yan Zhao

 Please cite Q-Chem as follows:
 Y. Shao et al., Mol. Phys. 113, 184-215 (2015)
 DOI: 10.1080/00268976.2014.952696

 Q-Chem 5.4.1 for Intel X86 EM64T Linux

 Parts of Q-Chem use Armadillo 9.800.1 (Horizon Scraper).
 http://arma.sourceforge.net/

 Q-Chem begins on Mon Mar 20 18:16:46 2023  

 Host: cpu186.baobab
0

     Scratch files written to /scratch/fum/qchem72325//
 Processing $rem in /home/share/wesolowski/qc5.aug2021.FDE/config/preferences:
 Processing $rem in /home/fum/.qchemrc:

 Checking the input file for inconsistencies... 	...done.

--------------------------------------------------------------
User input:
--------------------------------------------------------------
$comment
generated from CCJob.Templates
$end

$rem
sym_ignore = true
method = adc(2)
ee_states = 10
basis = cc-pVDZ
mem_static = 1024
mem_total = 40000
adc_davidson_maxiter = 900
adc_davidson_conv = 6
adc_print = 3
adc_prop_es = true
adc_prop_es2es = true
adc_prop_tpa = true
molden_format = True
state_analysis = true
print_orbitals = 15
gen_scfman = false
fde_export_density = true
fde_details = 3
$end

$molecule
0 1
H -0.007521090966379124 -0.2810417971538608 0.06374210484251308
C -1.062075141568316 -0.5394985802817972 -0.0025125404493959004
H -1.2664008492028862 -1.6053320362602161 -0.07676633819289441
C -2.0605978060323182 0.40892448338240506 0.006758919949210897
H -1.8563039393953167 1.4747661653596082 0.08099540369366084
H -3.1151591597332247 0.15047232665230148 -0.05941710754267166                     
$end
--------------------------------------------------------------
 ----------------------------------------------------------------
             Standard Nuclear Orientation (Angstroms)
    I     Atom           X                Y                Z
 ----------------------------------------------------------------
    1      H      -0.0075210910    -0.2810417972     0.0637421048
    2      C      -1.0620751416    -0.5394985803    -0.0025125404
    3      H      -1.2664008492    -1.6053320363    -0.0767663382
    4      C      -2.0605978060     0.4089244834     0.0067589199
    5      H      -1.8563039394     1.4747661654     0.0809954037
    6      H      -3.1151591597     0.1504723267    -0.0594171075
 ----------------------------------------------------------------
 Nuclear Repulsion Energy =          32.69936358 hartrees
 There are        8 alpha and        8 beta electrons
 Requested basis set is cc-pVDZ
 There are 24 shells and 48 basis functions
 Total memory of 40000 MB is distributed as follows: 
   MEM_STATIC is set to 1024 MB
   QALLOC/CCMAN JOB total memory use is  38976 MB
 Warning: actual memory use might exceed 40000 MB

 Total QAlloc Memory Limit  40000 MB
 Mega-Array Size      1001 MB
 MEM_STATIC part      1024 MB

                       Distance Matrix (Angstroms)
             H (  1)   C (  2)   H (  3)   C (  4)   H (  5)
   C (  2)  1.087784
   H (  3)  1.832557  1.087779
   C (  4)  2.166662  1.377185  2.166784
   H (  5)  2.549737  2.166803  3.140044  1.087780
   H (  6)  3.139871  2.166668  2.549717  1.087785  1.832535

 A cutoff of  1.0D-11 yielded    300 shell pairs
 There are      1220 function pairs (      1329 Cartesian)
 Smallest overlap matrix eigenvalue = 5.61E-03

 Scale SEOQF with 1.000000e-01/1.000000e-01/1.000000e+00

 Standard Electronic Orientation quadrupole field applied
 Nucleus-field energy     =     0.0000000022 hartrees
 Guess from superposition of atomic densities
 Warning:  Energy on first SCF cycle will be non-variational
 SAD guess density has 16.000000 electrons
 A restricted Hartree-Fock SCF calculation will be
 performed using Pulay DIIS extrapolation
 SCF converges when DIIS error is below 1.0E-08
 using 10 threads for integral computing
 -------------------------------------------------------
 OpenMP Integral computing Module                
 Release: version 1.0, May 2013, Q-Chem Inc. Pittsburgh 
 -------------------------------------------------------
 ---------------------------------------
  Cycle       Energy         DIIS Error
 ---------------------------------------
    1     -78.3272660161      9.54E-02
    2     -78.0141762391      6.94E-03
    3     -78.0343538189      1.75E-03
    4     -78.0357983520      4.72E-04
    5     -78.0358817976      5.94E-05
    6     -78.0358836785      9.54E-06
    7     -78.0358837437      2.02E-06
    8     -78.0358837466      1.65E-07
    9     -78.0358837466      1.67E-08
   10     -78.0358837466      4.93E-09 Convergence criterion met
 ---------------------------------------
 SCF time:  CPU 1.91 s  wall 2.69 s
 SCF   energy in the final basis set = -78.03588375
 Total energy in the final basis set = -78.03588375
Exporting Density Matrix to file 'Densmat_SCF.txt'.
Export successful
================================================================================
|                                                                              |
|                                 A D C  M A N                                 |
|                                                                              |
 ------------------------------------------------------------------------------ 
|                                                                              |
| Components:                                                                  |
|                                                                              |
| - libvmm - 1.3-trunk                                                         |
|   Authors:                                                                   |
|   Evgeny Epifanovsky, Ilya Kaliman                                           |
|                                                                              |
| - libtensor - 2.5-trunk                                                      |
|   Authors:                                                                   |
|   Evgeny Epifanovsky, Michael Wormit, Dmitry Zuev, Sam Manzer,               |
|   Ilya Kaliman                                                               |
|                                                                              |
| - libwfa - 1.1-trunk                                                         |
|   Authors:                                                                   |
|   Felix Plasser, Stefanie Mewes (Baeppler), Benjamin Thomitzni,              |
|   Michael Wormit, Feng Chen, Anna I. Krylov, Pavel Pokhilko                  |
|                                                                              |
| - libadc - 1.1-trunk                                                         |
|   Authors:                                                                   |
|   Michael Wormit, Adrian L. Dempwolff, Philipp H. P. Harbach,                |
|   Caroline Krauter, Dirk Rehn, Matthias Schneider, Jan Wenzel                |
|                                                                              |
| - adcman - 2.6-trunk                                                         |
|   Authors:                                                                   |
|   Michael Wormit, Adrian L. Dempwolff, Philipp H. P. Harbach,                |
|   Caroline Krauter, Daniel Lefrancois, Jan-Michael Mewes, Dirk Rehn,         |
|   Matthias Schneider, Jan Wenzel, Andreas Dreuw                              |
|                                                                              |
| Authors of earlier versions of ADCMAN:                                       |
| Andreas Dreuw, Jan Hendrik Starcke, Dirk Rehn, Michael Wormit                |
|                                                                              |
================================================================================

 Created directory /scratch/fum/qchem72325/plots
  Import QC data ...  CPU 0.00 s  wall 0.00 s

 Alpha MOs, Restricted
 -- Occupied --                  
-11.245 -11.244  -1.017  -0.796  -0.629  -0.581  -0.506  -0.364
  1 A     2 A     3 A     4 A     5 A     6 A     7 A     8 A                  
 -- Virtual --                   
  0.157   0.203   0.233   0.235   0.301   0.459   0.594   0.594
  9 A    10 A    11 A    12 A    13 A    14 A    15 A    16 A                  
  0.697   0.713   0.760   0.802   0.865   0.922   0.954   1.008
 17 A    18 A    19 A    20 A    21 A    22 A    23 A    24 A                  
  1.139   1.203   1.222   1.240   1.288   1.607   1.760   1.766
 25 A    26 A    27 A    28 A    29 A    30 A    31 A    32 A                  
  1.797   1.808   1.838   1.870   1.961   1.980   2.216   2.226
 33 A    34 A    35 A    36 A    37 A    38 A    39 A    40 A                  
  2.332   2.410   2.507   2.634   2.685   2.800   3.064   3.349
 41 A    42 A    43 A    44 A    45 A    46 A    47 A    48 A                  

 Beta MOs, Restricted
 -- Occupied --                  
-11.245 -11.244  -1.017  -0.796  -0.629  -0.581  -0.506  -0.364
  1 A     2 A     3 A     4 A     5 A     6 A     7 A     8 A                  
 -- Virtual --                   
  0.157   0.203   0.233   0.235   0.301   0.459   0.594   0.594
  9 A    10 A    11 A    12 A    13 A    14 A    15 A    16 A                  
  0.697   0.713   0.760   0.802   0.865   0.922   0.954   1.008
 17 A    18 A    19 A    20 A    21 A    22 A    23 A    24 A                  
  1.139   1.203   1.222   1.240   1.288   1.607   1.760   1.766
 25 A    26 A    27 A    28 A    29 A    30 A    31 A    32 A                  
  1.797   1.808   1.838   1.870   1.961   1.980   2.216   2.226
 33 A    34 A    35 A    36 A    37 A    38 A    39 A    40 A                  
  2.332   2.410   2.507   2.634   2.685   2.800   3.064   3.349
 41 A    42 A    43 A    44 A    45 A    46 A    47 A    48 A                  
  Import AO data ...  CPU 0.00 s  wall 0.00 s
  Using point group: C1
  Irreducible representations in point group: A
  Molecular orbitals: 
  Occupied MOs:
  Block   0:   1 (  A) A   2 (  A) A   3 (  A) A   4 (  A) A   5 (  A) A
                  -11.25      -11.24      -1.017     -0.7964     -0.6287
               6 (  A) A   7 (  A) A   8 (  A) A
                 -0.5812      -0.506     -0.3644
  Block   1:   1 (  A) B   2 (  A) B   3 (  A) B   4 (  A) B   5 (  A) B
                  -11.25      -11.24      -1.017     -0.7964     -0.6287
               6 (  A) B   7 (  A) B   8 (  A) B
                 -0.5812      -0.506     -0.3644
  Virtual MOs:
  Block   0:   9 (  A) A  10 (  A) A  11 (  A) A  12 (  A) A  13 (  A) A
                  0.1572      0.2033      0.2333      0.2351       0.301
              14 (  A) A  15 (  A) A  16 (  A) A  17 (  A) A  18 (  A) A
                  0.4586      0.5936      0.5941       0.697      0.7135
              19 (  A) A  20 (  A) A  21 (  A) A  22 (  A) A
                  0.7604      0.8025      0.8648       0.922
  Block   1:  23 (  A) A  24 (  A) A  25 (  A) A  26 (  A) A  27 (  A) A
                   0.954       1.008       1.139       1.203       1.222
              28 (  A) A  29 (  A) A  30 (  A) A  31 (  A) A  32 (  A) A
                    1.24       1.288       1.607        1.76       1.766
              33 (  A) A  34 (  A) A  35 (  A) A  36 (  A) A
                   1.797       1.808       1.838        1.87
  Block   2:  37 (  A) A  38 (  A) A  39 (  A) A  40 (  A) A  41 (  A) A
                   1.961        1.98       2.216       2.226       2.332
              42 (  A) A  43 (  A) A  44 (  A) A  45 (  A) A  46 (  A) A
                    2.41       2.507       2.634       2.685         2.8
              47 (  A) A  48 (  A) A
                   3.064       3.349
  Block   3:   9 (  A) B  10 (  A) B  11 (  A) B  12 (  A) B  13 (  A) B
                  0.1572      0.2033      0.2333      0.2351       0.301
              14 (  A) B  15 (  A) B  16 (  A) B  17 (  A) B  18 (  A) B
                  0.4586      0.5936      0.5941       0.697      0.7135
              19 (  A) B  20 (  A) B  21 (  A) B  22 (  A) B
                  0.7604      0.8025      0.8648       0.922
  Block   4:  23 (  A) B  24 (  A) B  25 (  A) B  26 (  A) B  27 (  A) B
                   0.954       1.008       1.139       1.203       1.222
              28 (  A) B  29 (  A) B  30 (  A) B  31 (  A) B  32 (  A) B
                    1.24       1.288       1.607        1.76       1.766
              33 (  A) B  34 (  A) B  35 (  A) B  36 (  A) B
                   1.797       1.808       1.838        1.87
  Block   5:  37 (  A) B  38 (  A) B  39 (  A) B  40 (  A) B  41 (  A) B
                   1.961        1.98       2.216       2.226       2.332
              42 (  A) B  43 (  A) B  44 (  A) B  45 (  A) B  46 (  A) B
                    2.41       2.507       2.634       2.685         2.8
              47 (  A) B  48 (  A) B
                   3.064       3.349
  Import MO data ...  CPU 0.08 s  wall 0.03 s
  Import HF data ...  CPU 0.65 s  wall 0.22 s
  Import 2e integrals ...  CPU 1.02 s  wall 0.18 s

--------------------------------------------------------------------------------
                                   HF Summary                                   
--------------------------------------------------------------------------------
  Energy:                                                  -78.0358837466 a.u.
  Dip. moment [a.u.]:                  [  -0.000004,    0.000001,    0.000017]
  Total dipole [Debye]:                                               0.000045
  <r^2> [a.u.]:                        [ 176.872876,   36.217734,   11.776095]
  Total <r^2> [a.u.]:                                               224.866705
--------------------------------------------------------------------------------
  HF properties ...  CPU 0.03 s  wall 0.02 s
  MP(1) calculation ...  CPU 0.01 s  wall 0.01 s
  N^6 prerequesite intermediates ...  CPU 0.78 s  wall 0.11 s
  Difference density matrix of state mp2_gs printed to ASCII file 'State_mp2_gs_Difference.txt'
Exporting MP density matrix to file 'Densmat_MP.txt'.
Export successful
  Total density matrix of state mp2_gs printed to ASCII file 'State_mp2_gs_Total.txt'
Exporting MP density matrix to file 'Densmat_MP.txt'.
Export successful

--------------------------------------------------------------------------------
                                 MP(2) Summary                                  
--------------------------------------------------------------------------------
  MP energy contribution:                                   -0.2826839356 a.u.
  Total energy:                                            -78.3185676823 a.u.
  Dip. moment [a.u.]:                  [  -0.000004,    0.000001,    0.000017]
  Total dipole [Debye]:                                               0.000044
  <r^2> [a.u.]:                        [ 176.906501,   36.246546,   11.575402]
  Total <r^2> [a.u.]:                                               224.728449

  Density matrix analysis:
  ------------------------
  NOs
    Occupation of frontier NOs:
       0.0493   1.9345
    Number of electrons: 16.000000
    Number of unpaired electrons: n_u =  0.41753, n_u,nl =  0.04943
    NO participation ratio (PR_NO): 13.494862
  
  
  Mulliken Population Analysis
  Atom      Charge (e)              h+              e-           Del q
  --------------------------------------------------------------------
   1 H        0.057319        0.014061       -0.011344        0.002717
   2 C       -0.114643        0.098347       -0.103779       -0.005432
   3 H        0.057329        0.014060       -0.011344        0.002716
   4 C       -0.114649        0.098347       -0.103780       -0.005433
   5 H        0.057328        0.014060       -0.011344        0.002716
   6 H        0.057317        0.014061       -0.011344        0.002717
  --------------------------------------------------------------------
  Sum:       -0.000000        0.252937       -0.252937        0.000000
  
  Multipole moment analysis of the density matrix
    Molecular charge:                      0.000000
    Number of electrons:                   16.000000
      Center of electronic charge [Ang]: [ -1.561339,  -0.065286,   0.002126]
    Total nuclear charge:                  16.000000
      Center of nuclear charge [Ang]:    [ -1.561339,  -0.065286,   0.002127]
    Dipole moment [D]:                     0.000044
      Cartesian components [D]:          [ -0.000010,   0.000002,   0.000043]
    RMS size of the density [Ang]:         1.221107
      Cartesian components [Ang]:        [  0.811419,   0.793799,   0.450095]
  
  Exciton analysis of the difference density matrix
    <r_h> [Ang]:                  [ -1.561338,  -0.065287,   0.002124]
    <r_e> [Ang]:                  [ -1.561339,  -0.065286,   0.002124]
    |<r_e - r_h>| [Ang]:            0.000001
    Hole size [Ang]:                1.420218
      Cartesian components [Ang]: [  0.861109,   0.847477,   0.746520]
    Electron size [Ang]:            1.365267
      Cartesian components [Ang]: [  0.882459,   0.866092,   0.578881]
--------------------------------------------------------------------------------
  MP(2) calculation ...  CPU 0.29 s  wall 0.20 s
  Start ADC(2)-s ...  CPU 0.02 s  wall 0.01 s
  ADC(2) intermediates ...  CPU 0.04 s  wall 0.01 s
  Starting Davidson for singlet states of irrep A ... 
--------------------------------------------------------------------------------
   It NVec Conv  Avg. Norm  Max. Norm  Conv. states           Remark
--------------------------------------------------------------------------------
        10    0  1.325e-01  4.672e-01  0.4036 n n n n n n n n Guess.
    1   20    0  2.406e-02  1.223e-01  0.3126 n n n n n n n n 
    2   30    0  6.118e-03  2.634e-02  0.3075 n n n n n n n n 
    3   40    0  1.893e-03  1.161e-02  0.3071 n n n n n n n n 
    4   50    0  5.818e-04  4.141e-03  0.3071 n n n n n n n n 
    5   20    0  2.719e-04  1.913e-03  0.3071 n n n n n n n n Subspace collapsed.
    6   30    0  1.442e-04  1.013e-03  0.3071 n n n n n n n n 
    7   40    0  5.786e-05  4.430e-04  0.3071 n n n n n n n n 
    8   50    0  5.172e-05  4.363e-04  0.3071 n n n n n n n n 
    9   20    1  4.647e-05  4.176e-04  0.3071 n y n n n n n n Subspace collapsed.
   10   30    6  2.404e-05  2.154e-04  0.3071 n y y y y y n n 
   11   40    6  1.120e-05  8.896e-05  0.3071 n y y y y y n n 
   12   50    7  5.904e-06  4.674e-05  0.3071 n y y y y y n y 
   13   20    8  3.306e-06  2.611e-05  0.3071 y y y y y y n y Subspace collapsed.
   14   30    8  2.835e-06  2.343e-05  0.3071 y y y y y y n y 
   15   40    8  2.518e-06  2.208e-05  0.3071 y y y y y y n y 
   16   50    8  1.913e-06  1.785e-05  0.3071 y y y y y y n y 
   17   20    8  1.423e-06  1.324e-05  0.3071 y y y y y y n y Subspace collapsed.
   18   30    8  1.214e-06  1.180e-05  0.3071 y y y y y y n y 
   19   40    8  1.509e-06  1.504e-05  0.3071 y y y y y y n y 
   20   50    9  2.556e-06  2.556e-05  0.3071 y y y y y y y y 
   21   19    9  1.376e-06  1.376e-05  0.3071 y y y y y y y y Subspace collapsed.
   22   28    9  1.447e-06  1.447e-05  0.3071 y y y y y y y y 
   23   36    9  1.249e-06  1.249e-05  0.3071 y y y y y y y y 
   24   43    9  1.869e-06  1.869e-05  0.3071 y y y y y y y y 
   25   49    9  3.737e-06  3.737e-05  0.3071 y y y y y y y y 
   26   50    9  3.775e-06  3.775e-05  0.3071 y y y y y y y y 
   27   15    9  2.062e-06  2.062e-05  0.3071 y y y y y y y y Subspace collapsed.
   28   19    9  2.222e-06  2.222e-05  0.3071 y y y y y y y y 
   29   23    9  1.717e-06  1.717e-05  0.3071 y y y y y y y y 
   30   27    9  1.465e-06  1.465e-05  0.3071 y y y y y y y y 
   31   31    9  1.854e-06  1.854e-05  0.3071 y y y y y y y y 
   32   35    9  3.347e-06  3.347e-05  0.3071 y y y y y y y y 
   33   39    9  7.911e-06  7.911e-05  0.3071 y y y y y y y y 
   34   43    9  2.324e-03  2.324e-02  0.3071 y y y y y y y y 
   35   47    9  9.771e-04  9.771e-03  0.3071 y y y y y y y y 
   36   50    9  6.184e-04  6.184e-03  0.3071 y y y y y y y y 
   37   14    9  3.346e-04  3.346e-03  0.3071 y y y y y y y y Subspace collapsed.
   38   18    9  3.328e-04  3.328e-03  0.3071 y y y y y y y y 
   39   22    9  2.062e-04  2.062e-03  0.3071 y y y y y y y y 
   40   25    9  1.183e-04  1.183e-03  0.3071 y y y y y y y y 
   41   28    9  7.085e-05  7.085e-04  0.3071 y y y y y y y y 
   42   30    9  4.616e-05  4.616e-04  0.3071 y y y y y y y y 
   43   30    9  4.616e-05  4.616e-04  0.3071 y y y y y y y y 
   44   40    9  2.069e-05  2.069e-04  0.3071 y y y y y y y y 
   45   42    9  1.111e-05  1.111e-04  0.3071 y y y y y y y y 
   46   43    9  6.288e-06  6.288e-05  0.3071 y y y y y y y y 
   47   44    9  2.814e-06  2.814e-05  0.3071 y y y y y y y y 
   48   45    9  1.247e-06  1.247e-05  0.3071 y y y y y y y y 
   49   46    9  7.483e-07  7.483e-06  0.3071 y y y y y y y y 
   50   47    9  3.754e-07  3.754e-06  0.3071 y y y y y y y y 
   51   48    9  2.551e-07  2.551e-06  0.3071 y y y y y y y y 
   52   49    9  1.609e-07  1.609e-06  0.3071 y y y y y y y y 
   53   50    9  2.109e-07  2.109e-06  0.3071 y y y y y y y y 
   54   11    9  1.305e-07  1.305e-06  0.3071 y y y y y y y y Subspace collapsed.
   55   12    9  2.315e-07  2.315e-06  0.3071 y y y y y y y y 
   56   13    9  2.881e-07  2.881e-06  0.3071 y y y y y y y y 
   57   14    9  2.849e-07  2.849e-06  0.3071 y y y y y y y y 
   58   15    9  4.125e-07  4.125e-06  0.3071 y y y y y y y y 
   59   16    9  4.295e-07  4.295e-06  0.3071 y y y y y y y y 
   60   17    9  5.460e-07  5.460e-06  0.3071 y y y y y y y y 
   61   18    9  5.850e-07  5.850e-06  0.3071 y y y y y y y y 
   62   19    9  5.923e-07  5.923e-06  0.3071 y y y y y y y y 
   63   20    9  6.308e-07  6.308e-06  0.3071 y y y y y y y y 
   64   21    9  7.805e-07  7.805e-06  0.3071 y y y y y y y y 
   65   22    9  8.190e-07  8.190e-06  0.3071 y y y y y y y y 
   66   23    9  7.413e-07  7.413e-06  0.3071 y y y y y y y y 
   67   24    9  5.579e-07  5.579e-06  0.3071 y y y y y y y y 
   68   25    9  4.901e-07  4.901e-06  0.3071 y y y y y y y y 
   69   26    9  4.343e-07  4.343e-06  0.3071 y y y y y y y y 
   70   27    9  4.355e-07  4.355e-06  0.3071 y y y y y y y y 
   71   28    9  4.323e-07  4.323e-06  0.3071 y y y y y y y y 
   72   29    9  3.762e-07  3.762e-06  0.3071 y y y y y y y y 
   73   30    9  2.490e-07  2.490e-06  0.3071 y y y y y y y y 
   74   31    9  1.691e-07  1.691e-06  0.3071 y y y y y y y y 
   75   32   10  7.088e-08  7.088e-07  0.3071 y y y y y y y y Converged.
--------------------------------------------------------------------------------
  Davidson Summary: 
 ------------------------------------------------------------
  State  0: excitation energy =   0.3071 a.u.   (converged)
  State  1: excitation energy =   0.3241 a.u.   (converged)
  State  2: excitation energy =   0.3324 a.u.   (converged)
  State  3: excitation energy =   0.3559 a.u.   (converged)
  State  4: excitation energy =   0.3646 a.u.   (converged)
  State  5: excitation energy =   0.3762 a.u.   (converged)
  State  6: excitation energy =   0.4267 a.u.   (converged)
  State  7: excitation energy =   0.4288 a.u.   (converged)
  State  8: excitation energy =   0.4439 a.u.   (converged)
  State  9: excitation energy =   0.4661 a.u.   (converged)
 ------------------------------------------------------------

  Singlet states of irrep A ...  CPU 292.96 s  wall 90.17 s
  TDMs ...  CPU 2.62 s  wall 0.88 s
  SDMs ...  CPU 4.76 s  wall 1.49 s
  Starting TPA DIIS iterations ... 
------------------------------------ 
   It     Res. Norm  Remark
------------------------------------
                       Guess.
    1     4.988e+00  
    2     6.824e+00  
    3     1.174e+00  
    4     2.974e-01  
    5     7.943e-02  
    6     3.201e-02  
    7     9.623e-03  
    8     1.555e-03  
    9     5.848e-04  
   10     1.027e-04  
   11     3.198e-05  
   12     5.422e-06  
   13     1.631e-06  
   14     5.233e-07  Converged.
   ... Converged in 14 steps (norm: 5.23256e-07)
------------------------------------
  Starting TPA DIIS iterations ... 
------------------------------------ 
   It     Res. Norm  Remark
------------------------------------
                       Guess.
    1     4.747e+00  
    2     6.485e+00  
    3     1.119e+00  
    4     2.944e-01  
    5     7.889e-02  
    6     3.199e-02  
    7     9.450e-03  
    8     1.579e-03  
    9     5.946e-04  
   10     1.023e-04  
   11     3.220e-05  
   12     5.364e-06  
   13     1.660e-06  
   14     5.225e-07  Converged.
   ... Converged in 14 steps (norm: 5.22459e-07)
------------------------------------
  Starting TPA DIIS iterations ... 
------------------------------------ 
   It     Res. Norm  Remark
------------------------------------
                       Guess.
    1     6.712e-01  
    2     4.769e-01  
    3     1.710e-01  
    4     7.609e-02  
    5     1.822e-02  
    6     6.328e-03  
    7     9.821e-04  
    8     3.996e-04  
    9     1.102e-04  
   10     2.757e-05  
   11     4.874e-06  
   12     1.539e-06  
   13     1.026e-06  
   14     2.439e-07  Converged.
   ... Converged in 14 steps (norm: 2.43881e-07)
------------------------------------
  Starting TPA DIIS iterations ... 
------------------------------------ 
   It     Res. Norm  Remark
------------------------------------
                       Guess.
    1     5.509e+00  
    2     7.791e+00  
    3     1.312e+00  
    4     3.502e-01  
    5     9.522e-02  
    6     3.876e-02  
    7     1.159e-02  
    8     1.866e-03  
    9     7.112e-04  
   10     1.258e-04  
   11     3.988e-05  
   12     6.826e-06  
   13     2.077e-06  
   14     6.636e-07  Converged.
   ... Converged in 14 steps (norm: 6.63625e-07)
------------------------------------
  Starting TPA DIIS iterations ... 
------------------------------------ 
   It     Res. Norm  Remark
------------------------------------
                       Guess.
    1     5.242e+00  
    2     7.404e+00  
    3     1.250e+00  
    4     3.462e-01  
    5     9.460e-02  
    6     3.876e-02  
    7     1.139e-02  
    8     1.898e-03  
    9     7.236e-04  
   10     1.253e-04  
   11     4.014e-05  
   12     6.749e-06  
   13     2.118e-06  
   14     6.631e-07  Converged.
   ... Converged in 14 steps (norm: 6.63119e-07)
------------------------------------
  Starting TPA DIIS iterations ... 
------------------------------------ 
   It     Res. Norm  Remark
------------------------------------
                       Guess.
    1     6.886e-01  
    2     5.029e-01  
    3     1.859e-01  
    4     9.253e-02  
    5     2.021e-02  
    6     7.206e-03  
    7     1.172e-03  
    8     5.062e-04  
    9     1.464e-04  
   10     3.533e-05  
   11     5.903e-06  
   12     1.992e-06  
   13     1.408e-06  
   14     3.297e-07  Converged.
   ... Converged in 14 steps (norm: 3.29726e-07)
------------------------------------
  Starting TPA DIIS iterations ... 
------------------------------------ 
   It     Res. Norm  Remark
------------------------------------
                       Guess.
    1     5.796e+00  
    2     8.335e+00  
    3     1.388e+00  
    4     3.805e-01  
    5     1.043e-01  
    6     4.267e-02  
    7     1.272e-02  
    8     2.045e-03  
    9     7.845e-04  
   10     1.392e-04  
   11     4.455e-05  
   12     7.653e-06  
   13     2.344e-06  
   14     7.471e-07  Converged.
   ... Converged in 14 steps (norm: 7.47116e-07)
------------------------------------
  Starting TPA DIIS iterations ... 
------------------------------------ 
   It     Res. Norm  Remark
------------------------------------
                       Guess.
    1     5.514e+00  
    2     7.921e+00  
    3     1.322e+00  
    4     3.760e-01  
    5     1.036e-01  
    6     4.269e-02  
    7     1.250e-02  
    8     2.082e-03  
    9     7.983e-04  
   10     1.387e-04  
   11     4.482e-05  
   12     7.565e-06  
   13     2.392e-06  
   14     7.470e-07  Converged.
   ... Converged in 14 steps (norm: 7.47006e-07)
------------------------------------
  Starting TPA DIIS iterations ... 
------------------------------------ 
   It     Res. Norm  Remark
------------------------------------
                       Guess.
    1     6.973e-01  
    2     5.165e-01  
    3     1.939e-01  
    4     1.022e-01  
    5     2.130e-02  
    6     7.708e-03  
    7     1.284e-03  
    8     5.713e-04  
    9     1.687e-04  
   10     3.880e-05  
   11     6.495e-06  
   12     2.287e-06  
   13     1.656e-06  
   14     3.905e-07  Converged.
   ... Converged in 14 steps (norm: 3.90526e-07)
------------------------------------
  Starting TPA DIIS iterations ... 
------------------------------------ 
   It     Res. Norm  Remark
------------------------------------
                       Guess.
    1     6.754e+00  
    2     1.021e+01  
    3     1.640e+00  
    4     4.882e-01  
    5     1.366e-01  
    6     5.668e-02  
    7     1.674e-02  
    8     2.677e-03  
    9     1.047e-03  
   10     1.873e-04  
   11     6.162e-05  
   12     1.066e-05  
   13     3.339e-06  
   14     1.059e-06  
   15     3.452e-07  Converged.
   ... Converged in 15 steps (norm: 3.45243e-07)
------------------------------------
  Starting TPA DIIS iterations ... 
------------------------------------ 
   It     Res. Norm  Remark
------------------------------------
                       Guess.
    1     6.423e+00  
    2     9.704e+00  
    3     1.562e+00  
    4     4.816e-01  
    5     1.358e-01  
    6     5.680e-02  
    7     1.645e-02  
    8     2.730e-03  
    9     1.066e-03  
   10     1.867e-04  
   11     6.190e-05  
   12     1.052e-05  
   13     3.416e-06  
   14     1.062e-06  
   15     3.478e-07  Converged.
   ... Converged in 15 steps (norm: 3.47781e-07)
------------------------------------
  Starting TPA DIIS iterations ... 
------------------------------------ 
   It     Res. Norm  Remark
------------------------------------
                       Guess.
    1     7.235e-01  
    2     5.594e-01  
    3     2.199e-01  
    4     1.369e-01  
    5     2.505e-02  
    6     9.476e-03  
    7     1.700e-03  
    8     8.093e-04  
    9     2.499e-04  
   10     4.570e-05  
   11     8.709e-06  
   12     3.567e-06  
   13     2.683e-06  
   14     6.833e-07  Converged.
   ... Converged in 14 steps (norm: 6.83307e-07)
------------------------------------
  Starting TPA DIIS iterations ... 
------------------------------------ 
   It     Res. Norm  Remark
------------------------------------
                       Guess.
    1     7.177e+00  
    2     1.107e+01  
    3     1.750e+00  
    4     5.386e-01  
    5     1.517e-01  
    6     6.330e-02  
    7     1.861e-02  
    8     2.971e-03  
    9     1.171e-03  
   10     2.100e-04  
   11     6.978e-05  
   12     1.208e-05  
   13     3.824e-06  
   14     1.214e-06  
   15     3.988e-07  Converged.
   ... Converged in 15 steps (norm: 3.98762e-07)
------------------------------------
  Starting TPA DIIS iterations ... 
------------------------------------ 
   It     Res. Norm  Remark
------------------------------------
                       Guess.
    1     6.825e+00  
    2     1.052e+01  
    3     1.666e+00  
    4     5.308e-01  
    5     1.509e-01  
    6     6.347e-02  
    7     1.830e-02  
    8     3.032e-03  
    9     1.192e-03  
   10     2.093e-04  
   11     7.007e-05  
   12     1.193e-05  
   13     3.916e-06  
   14     1.219e-06  
   15     4.025e-07  Converged.
   ... Converged in 15 steps (norm: 4.02513e-07)
------------------------------------
  Starting TPA DIIS iterations ... 
------------------------------------ 
   It     Res. Norm  Remark
------------------------------------
                       Guess.
    1     7.338e-01  
    2     5.771e-01  
    3     2.309e-01  
    4     1.531e-01  
    5     2.676e-02  
    6     1.030e-02  
    7     1.904e-03  
    8     9.179e-04  
    9     2.866e-04  
   10     4.711e-05  
   11     9.855e-06  
   12     4.310e-06  
   13     3.236e-06  
   14     8.623e-07  Converged.
   ... Converged in 14 steps (norm: 8.62339e-07)
------------------------------------
  Starting TPA DIIS iterations ... 
------------------------------------ 
   It     Res. Norm  Remark
------------------------------------
                       Guess.
    1     7.812e+00  
    2     1.238e+01  
    3     1.914e+00  
    4     6.168e-01  
    5     1.753e-01  
    6     7.368e-02  
    7     2.153e-02  
    8     3.428e-03  
    9     1.365e-03  
   10     2.455e-04  
   11     8.263e-05  
   12     1.432e-05  
   13     4.594e-06  
   14     1.466e-06  
   15     4.850e-07  Converged.
   ... Converged in 15 steps (norm: 4.85048e-07)
------------------------------------
  Starting TPA DIIS iterations ... 
------------------------------------ 
   It     Res. Norm  Remark
------------------------------------
                       Guess.
    1     7.428e+00  
    2     1.176e+01  
    3     1.823e+00  
    4     6.073e-01  
    5     1.743e-01  
    6     7.393e-02  
    7     2.117e-02  
    8     3.502e-03  
    9     1.390e-03  
   10     2.447e-04  
   11     8.291e-05  
   12     1.413e-05  
   13     4.711e-06  
   14     1.477e-06  
   15     4.914e-07  Converged.
   ... Converged in 15 steps (norm: 4.91382e-07)
------------------------------------
  Starting TPA DIIS iterations ... 
------------------------------------ 
   It     Res. Norm  Remark
------------------------------------
                       Guess.
    1     7.480e-01  
    2     6.026e-01  
    3     2.471e-01  
    4     1.782e-01  
    5     2.937e-02  
    6     1.156e-02  
    7     2.230e-03  
    8     1.076e-03  
    9     3.406e-04  
   10     4.862e-05  
   11     1.183e-05  
   12     5.676e-06  
   13     4.184e-06  
   14     1.192e-06  
   15     7.746e-07  Converged.
   ... Converged in 15 steps (norm: 7.74551e-07)
------------------------------------
  Starting TPA DIIS iterations ... 
------------------------------------ 
   It     Res. Norm  Remark
------------------------------------
                       Guess.
    1     1.195e+01  
    2     2.171e+01  
    3     2.955e+00  
    4     1.190e+00  
    5     3.504e-01  
    6     1.526e-01  
    7     4.312e-02  
    8     6.779e-03  
    9     2.834e-03  
   10     5.117e-04  
   11     1.775e-04  
   12     3.075e-05  
   13     1.045e-05  
   14     3.803e-06  
   15     1.248e-06  
   16     4.113e-07  Converged.
   ... Converged in 16 steps (norm: 4.1126e-07)
------------------------------------
  Starting TPA DIIS iterations ... 
------------------------------------ 
   It     Res. Norm  Remark
------------------------------------
                       Guess.
    1     1.136e+01  
    2     2.062e+01  
    3     2.811e+00  
    4     1.165e+00  
    5     3.488e-01  
    6     1.537e-01  
    7     4.242e-02  
    8     6.956e-03  
    9     2.889e-03  
   10     5.104e-04  
   11     1.780e-04  
   12     3.048e-05  
   13     1.082e-05  
   14     3.929e-06  
   15     1.312e-06  
   16     4.818e-07  Converged.
   ... Converged in 16 steps (norm: 4.81765e-07)
------------------------------------
  Starting TPA DIIS iterations ... 
------------------------------------ 
   It     Res. Norm  Remark
------------------------------------
                       Guess.
    1     8.179e-01  
    2     7.462e-01  
    3     3.434e-01  
    4     3.365e-01  
    5     4.768e-02  
    6     2.028e-02  
    7     4.829e-03  
    8     1.740e-03  
    9     6.469e-04  
   10     8.003e-05  
   11     3.537e-05  
   12     2.283e-05  
   13     1.425e-05  
   14     5.147e-06  
   15     3.069e-06  
   16     1.016e-06  
   17     5.989e-07  Converged.
   ... Converged in 17 steps (norm: 5.98913e-07)
------------------------------------
  Starting TPA DIIS iterations ... 
------------------------------------ 
   It     Res. Norm  Remark
------------------------------------
                       Guess.
    1     1.219e+01  
    2     2.228e+01  
    3     3.013e+00  
    4     1.225e+00  
    5     3.614e-01  
    6     1.577e-01  
    7     4.446e-02  
    8     6.987e-03  
    9     2.927e-03  
   10     5.284e-04  
   11     1.833e-04  
   12     3.177e-05  
   13     1.082e-05  
   14     3.976e-06  
   15     1.307e-06  
   16     4.348e-07  Converged.
   ... Converged in 16 steps (norm: 4.34845e-07)
------------------------------------
  Starting TPA DIIS iterations ... 
------------------------------------ 
   It     Res. Norm  Remark
------------------------------------
                       Guess.
    1     1.159e+01  
    2     2.117e+01  
    3     2.866e+00  
    4     1.199e+00  
    5     3.597e-01  
    6     1.587e-01  
    7     4.375e-02  
    8     7.170e-03  
    9     2.984e-03  
   10     5.271e-04  
   11     1.838e-04  
   12     3.150e-05  
   13     1.122e-05  
   14     4.113e-06  
   15     1.377e-06  
   16     5.104e-07  Converged.
   ... Converged in 16 steps (norm: 5.1037e-07)
------------------------------------
  Starting TPA DIIS iterations ... 
------------------------------------ 
   It     Res. Norm  Remark
------------------------------------
                       Guess.
    1     8.211e-01  
    2     7.536e-01  
    3     3.485e-01  
    4     3.443e-01  
    5     4.877e-02  
    6     2.078e-02  
    7     4.994e-03  
    8     1.759e-03  
    9     6.627e-04  
   10     8.319e-05  
   11     3.739e-05  
   12     2.408e-05  
   13     1.502e-05  
   14     5.455e-06  
   15     3.245e-06  
   16     1.081e-06  
   17     6.116e-07  Converged.
   ... Converged in 17 steps (norm: 6.11644e-07)
------------------------------------
  Starting TPA DIIS iterations ... 
------------------------------------ 
   It     Res. Norm  Remark
------------------------------------
                       Guess.
    1     1.420e+01  
    2     2.724e+01  
    3     3.496e+00  
    4     1.530e+00  
    5     4.574e-01  
    6     2.020e-01  
    7     5.625e-02  
    8     8.804e-03  
    9     3.748e-03  
   10     6.746e-04  
   11     2.334e-04  
   12     4.074e-05  
   13     1.417e-05  
   14     5.616e-06  
   15     1.906e-06  
   16     6.717e-07  Converged.
   ... Converged in 16 steps (norm: 6.71667e-07)
------------------------------------
  Starting TPA DIIS iterations ... 
------------------------------------ 
   It     Res. Norm  Remark
------------------------------------
                       Guess.
    1     1.349e+01  
    2     2.588e+01  
    3     3.325e+00  
    4     1.495e+00  
    5     4.554e-01  
    6     2.036e-01  
    7     5.535e-02  
    8     9.048e-03  
    9     3.820e-03  
   10     6.732e-04  
   11     2.344e-04  
   12     4.060e-05  
   13     1.478e-05  
   14     5.895e-06  
   15     2.040e-06  
   16     7.917e-07  Converged.
   ... Converged in 16 steps (norm: 7.91672e-07)
------------------------------------
  Starting TPA DIIS iterations ... 
------------------------------------ 
   It     Res. Norm  Remark
------------------------------------
                       Guess.
    1     8.459e-01  
    2     8.138e-01  
    3     3.905e-01  
    4     4.035e-01  
    5     5.806e-02  
    6     2.481e-02  
    7     6.425e-03  
    8     1.879e-03  
    9     7.921e-04  
   10     1.145e-04  
   11     5.786e-05  
   12     3.387e-05  
   13     2.212e-05  
   14     8.291e-06  
   15     4.802e-06  
   16     1.629e-06  
   17     4.689e-07  Converged.
   ... Converged in 17 steps (norm: 4.68876e-07)
------------------------------------
  Starting TPA DIIS iterations ... 
------------------------------------ 
   It     Res. Norm  Remark
------------------------------------
                       Guess.
    1     1.824e+01  
    2     3.794e+01  
    3     4.437e+00  
    4     2.174e+00  
    5     6.666e-01  
    6     3.003e-01  
    7     8.190e-02  
    8     1.275e-02  
    9     5.557e-03  
   10     9.926e-04  
   11     3.408e-04  
   12     6.097e-05  
   13     2.236e-05  
   14     1.006e-05  
   15     3.752e-06  
   16     1.411e-06  
   17     5.146e-07  Converged.
   ... Converged in 17 steps (norm: 5.1464e-07)
------------------------------------
  Starting TPA DIIS iterations ... 
------------------------------------ 
   It     Res. Norm  Remark
------------------------------------
                       Guess.
    1     1.733e+01  
    2     3.604e+01  
    3     4.218e+00  
    4     2.117e+00  
    5     6.637e-01  
    6     3.031e-01  
    7     8.060e-02  
    8     1.312e-02  
    9     5.664e-03  
   10     9.910e-04  
   11     3.437e-04  
   12     6.151e-05  
   13     2.367e-05  
   14     1.087e-05  
   15     4.054e-06  
   16     1.603e-06  
   17     5.003e-07  Converged.
   ... Converged in 17 steps (norm: 5.00284e-07)
------------------------------------
  Starting TPA DIIS iterations ... 
------------------------------------ 
   It     Res. Norm  Remark
------------------------------------
                       Guess.
    1     8.870e-01  
    2     9.269e-01  
    3     4.689e-01  
    4     4.867e-01  
    5     7.702e-02  
    6     3.178e-02  
    7     9.383e-03  
    8     2.082e-03  
    9     1.048e-03  
   10     2.015e-04  
   11     1.200e-04  
   12     3.860e-05  
   13     3.623e-05  
   14     1.318e-05  
   15     7.304e-06  
   16     1.846e-06  
   17     4.522e-07  Converged.
   ... Converged in 17 steps (norm: 4.52171e-07)
------------------------------------
  Two-photon absorbption ...  CPU 173.52 s  wall 46.50 s
  Transition density matrix of state singlet_A_1 printed to ASCII file 'State_singlet_A_1_Transition.txt'
  Transition density matrix of state singlet_A_2 printed to ASCII file 'State_singlet_A_2_Transition.txt'
  Transition density matrix of state singlet_A_3 printed to ASCII file 'State_singlet_A_3_Transition.txt'
  Transition density matrix of state singlet_A_4 printed to ASCII file 'State_singlet_A_4_Transition.txt'
  Transition density matrix of state singlet_A_5 printed to ASCII file 'State_singlet_A_5_Transition.txt'
  Transition density matrix of state singlet_A_6 printed to ASCII file 'State_singlet_A_6_Transition.txt'
  Transition density matrix of state singlet_A_7 printed to ASCII file 'State_singlet_A_7_Transition.txt'
  Transition density matrix of state singlet_A_8 printed to ASCII file 'State_singlet_A_8_Transition.txt'
  Transition density matrix of state singlet_A_9 printed to ASCII file 'State_singlet_A_9_Transition.txt'
  Transition density matrix of state singlet_A_10 printed to ASCII file 'State_singlet_A_10_Transition.txt'
  Transition properties ...  CPU 0.38 s  wall 0.87 s
  Difference density matrix of state singlet_A_1 printed to ASCII file 'State_singlet_A_1_Difference.txt'
  Total density matrix of state singlet_A_1 printed to ASCII file 'State_singlet_A_1_Total.txt'
  Difference density matrix of state singlet_A_2 printed to ASCII file 'State_singlet_A_2_Difference.txt'
  Total density matrix of state singlet_A_2 printed to ASCII file 'State_singlet_A_2_Total.txt'
  Difference density matrix of state singlet_A_3 printed to ASCII file 'State_singlet_A_3_Difference.txt'
  Total density matrix of state singlet_A_3 printed to ASCII file 'State_singlet_A_3_Total.txt'
  Difference density matrix of state singlet_A_4 printed to ASCII file 'State_singlet_A_4_Difference.txt'
  Total density matrix of state singlet_A_4 printed to ASCII file 'State_singlet_A_4_Total.txt'
  Difference density matrix of state singlet_A_5 printed to ASCII file 'State_singlet_A_5_Difference.txt'
  Total density matrix of state singlet_A_5 printed to ASCII file 'State_singlet_A_5_Total.txt'
  Difference density matrix of state singlet_A_6 printed to ASCII file 'State_singlet_A_6_Difference.txt'
  Total density matrix of state singlet_A_6 printed to ASCII file 'State_singlet_A_6_Total.txt'
  Difference density matrix of state singlet_A_7 printed to ASCII file 'State_singlet_A_7_Difference.txt'
  Total density matrix of state singlet_A_7 printed to ASCII file 'State_singlet_A_7_Total.txt'
  Difference density matrix of state singlet_A_8 printed to ASCII file 'State_singlet_A_8_Difference.txt'
  Total density matrix of state singlet_A_8 printed to ASCII file 'State_singlet_A_8_Total.txt'
  Difference density matrix of state singlet_A_9 printed to ASCII file 'State_singlet_A_9_Difference.txt'
  Total density matrix of state singlet_A_9 printed to ASCII file 'State_singlet_A_9_Total.txt'
  Difference density matrix of state singlet_A_10 printed to ASCII file 'State_singlet_A_10_Difference.txt'
  Total density matrix of state singlet_A_10 printed to ASCII file 'State_singlet_A_10_Total.txt'
  Properties ...  CPU 0.68 s  wall 1.08 s
  ISR TDMS ...  CPU 31.80 s  wall 9.86 s
  ISR transition properties ...  CPU 0.54 s  wall 0.26 s
  Sum-over-states TPA ...  CPU 0.00 s  wall 0.00 s

--------------------------------------------------------------------------------
                   State-averaged natural transition orbitals
--------------------------------------------------------------------------------
--------------------------------------------------------------------------------
  SA-NTO decomposition ...  CPU 0.01 s  wall 0.04 s

--------------------------------------------------------------------------------
                             Excited State Summary
--------------------------------------------------------------------------------
--------------------------------------------------------------------------------

  Excited state 1 (singlet, A)                                     [converged]
  ----------------------------------------------------------------------------
  Term symbol:  2 (1) A                                     R^2 =  1.70451e-13

  Total energy:                                            -78.0115029673 a.u.
  Excitation energy:                                               8.355656 eV

  Osc. strength:                                                      0.425967
  Trans. dip. moment [a.u.]:           [   1.045918,   -0.993376,   -0.009678]
  <i|r^2|0> [a.u.]:                    [   6.171945,   -0.245133,    0.000114]
  Two-photon absorption cross-section (SoS) [a.u.]:                   0.000000
  Two-photon absorption matrix (SoS) [a.u.]:
                                       |    0.000023   -0.000002    0.000063 |
                                       |   -0.000002    0.000001    0.000066 |
                                       |    0.000063    0.000066    0.000025 |
  Two-photon absorption cross-section [a.u.]:                         0.000000
  Two-photon absorption matrix [a.u.]:
                                       |    0.000019    0.000010   -0.000170 |
                                       |    0.000010   -0.000006   -0.000134 |
                                       |   -0.000170   -0.000134   -0.000025 |

  Dip. moment [a.u.]:                  [  -0.000004,   -0.000000,    0.000022]
  Total dipole [Debye]:                                               0.000057
  <r^2> [a.u.]:                        [ 177.628593,   36.910411,   11.932019]
  Total <r^2> [a.u.]:                                               226.471023

  V1^2 = 0.9712, V2^2 = 0.0288

  Important amplitudes:
      occ i     occ j     vir a      vir b          v   
    -----------------------------------------------------
     8 (A) A              9 (A) A                 0.6806
     6 (A) A             14 (A) A                -0.0703
     7 (A) A             16 (A) A                -0.0569
     4 (A) A             10 (A) A                 0.0563
     5 (A) A             13 (A) A                 0.0510
     6 (A) A             23 (A) A                -0.0470
     6 (A) A             19 (A) A                -0.0376
     8 (A) A             20 (A) A                 0.0357
     3 (A) A             11 (A) A                 0.0296
     5 (A) A             22 (A) A                 0.0205
     8 (A) A   8 (A) B   17 (A) A   20 (A) B     -0.0187
     3 (A) A             27 (A) A                -0.0184
     4 (A) A             24 (A) A                 0.0180
     7 (A) A             12 (A) A                -0.0171
     8 (A) A   8 (A) B    9 (A) A   28 (A) B     -0.0170
     6 (A) A             27 (A) A                -0.0162
     3 (A) A             14 (A) A                -0.0153
     7 (A) A             21 (A) A                -0.0137
     3 (A) A   4 (A) B    9 (A) A    9 (A) B     -0.0132
     3 (A) A             19 (A) A                -0.0130
     8 (A) A   8 (A) B   18 (A) A   19 (A) B      0.0111
     7 (A) A             31 (A) A                -0.0095
     7 (A) A             36 (A) A                -0.0085
     8 (A) A   8 (A) B   25 (A) A   29 (A) B     -0.0076
     3 (A) A             23 (A) A                -0.0072
     6 (A) A             35 (A) A                 0.0070
     5 (A) A             26 (A) A                 0.0068
     3 (A) A   6 (A) B    9 (A) A   28 (A) B     -0.0066
     6 (A) A   8 (A) A   19 (A) A   28 (A) A     -0.0065
     6 (A) A             39 (A) A                -0.0065
     5 (A) A   7 (A) B    9 (A) A    9 (A) B      0.0061
     7 (A) A   8 (A) B   13 (A) A   20 (A) B      0.0060
     5 (A) A   8 (A) B   12 (A) A   20 (A) B     -0.0059
     5 (A) A   8 (A) B   16 (A) A    9 (A) B     -0.0057
     5 (A) A   8 (A) B   12 (A) A    9 (A) B      0.0057
     3 (A) A   5 (A) B    9 (A) A   25 (A) B     -0.0057
     7 (A) A   8 (A) B   22 (A) A   20 (A) B      0.0057
     8 (A) A   8 (A) B   19 (A) A   30 (A) B      0.0056
     6 (A) A   8 (A) A    9 (A) A   18 (A) A     -0.0054
     6 (A) A   8 (A) B   15 (A) A   20 (A) B     -0.0054
    -----------------------------------------------------

  Density matrix analysis:
  ------------------------
  NOs
    Occupation of frontier NOs:
       0.9486   1.0219
    Number of electrons: 16.000000
    Number of unpaired electrons: n_u =  2.31980, n_u,nl =  2.03493
    NO participation ratio (PR_NO):  2.882163
  
  
  Mulliken Population Analysis
  Atom      Charge (e)              h+              e-           Del q
  --------------------------------------------------------------------
   1 H        0.064440        0.019157       -0.012035        0.007122
   2 C       -0.128890        0.487481       -0.501728       -0.014247
   3 H        0.064454        0.019159       -0.012034        0.007125
   4 C       -0.128897        0.487481       -0.501729       -0.014248
   5 H        0.064453        0.019160       -0.012034        0.007126
   6 H        0.064439        0.019157       -0.012035        0.007122
  --------------------------------------------------------------------
  Sum:       -0.000000        1.051594       -1.051594        0.000000
  
  Multipole moment analysis of the density matrix
    Molecular charge:                      -0.000000
    Number of electrons:                   16.000000
      Center of electronic charge [Ang]: [ -1.561339,  -0.065286,   0.002126]
    Total nuclear charge:                  16.000000
      Center of nuclear charge [Ang]:    [ -1.561339,  -0.065286,   0.002127]
    Dipole moment [D]:                     0.000057
      Cartesian components [D]:          [ -0.000010,  -0.000001,   0.000057]
    RMS size of the density [Ang]:         1.233532
      Cartesian components [Ang]:        [  0.819169,   0.801084,   0.456976]
  
  Exciton analysis of the difference density matrix
    <r_h> [Ang]:                  [ -1.561337,  -0.065287,   0.002119]
    <r_e> [Ang]:                  [ -1.561337,  -0.065286,   0.002116]
    |<r_e - r_h>| [Ang]:            0.000003
    Hole size [Ang]:                1.294761
      Cartesian components [Ang]: [  0.735598,   0.719330,   0.786045]
    Electron size [Ang]:            1.463023
      Cartesian components [Ang]: [  0.856382,   0.833197,   0.844293]

  Transition density matrix analysis:
  -----------------------------------
  
  CT numbers (Mulliken)
    omega =     0.9531
    <Phe> =    -0.1722
  
  Exciton analysis of the transition density matrix
    Trans. dipole moment [D]:             1.833247
      Cartesian components [D]:         [  1.329229,  -1.262455,  -0.012300]
    <r_h> [Ang]:                        [ -1.561336,  -0.065287,   0.002120]
    <r_e> [Ang]:                        [ -1.561337,  -0.065286,   0.002114]
    |<r_e - r_h>| [Ang]:                  0.000006
    Hole size [Ang]:                      1.230577
      Cartesian components [Ang]:       [  0.662542,   0.648812,   0.808950]
    Electron size [Ang]:                  1.480907
      Cartesian components [Ang]:       [  0.864402,   0.839603,   0.860791]
    RMS electron-hole separation [Ang]:   1.951909
      Cartesian components [Ang]:       [  1.121463,   1.089720,   1.168237]
    Covariance(r_h, r_e) [Ang^2]:        -0.051272
    Correlation coefficient:             -0.028135
    Center-of-mass size [Ang]:            0.949323
      Cartesian components [Ang]:       [  0.527879,   0.515823,   0.597064]

  Decomposition into state-averaged NTOs
    H- 0 -> L+ 0: -0.6689 ( 89.5%)
    H- 2 -> L+ 5:  0.0903 (  1.6%)
    H- 5 -> L+ 6:  0.0751 (  1.1%)
                   omega =  95.3%
  ----------------------------------------------------------------------------


  Excited state 2 (singlet, A)                                     [converged]
  ----------------------------------------------------------------------------
  Term symbol:  3 (1) A                                     R^2 =  2.60055e-13

  Total energy:                                            -77.9944916846 a.u.
  Excitation energy:                                               8.818556 eV

  Osc. strength:                                                      0.000000
  Trans. dip. moment [a.u.]:           [  -0.000261,    0.000231,    0.000006]
  <i|r^2|0> [a.u.]:                    [  -0.066210,   -0.085088,    0.149817]
  Two-photon absorption cross-section (SoS) [a.u.]:                  17.945945
  Two-photon absorption matrix (SoS) [a.u.]:
                                       |   -0.098432   -0.113757    1.016904 |
                                       |   -0.113757   -0.130538    1.075466 |
                                       |    1.016904    1.075466    0.228980 |
  Two-photon absorption cross-section [a.u.]:                         0.243915
  Two-photon absorption matrix [a.u.]:
                                       |    0.010852    0.013236   -0.119147 |
                                       |    0.013236    0.015832   -0.124812 |
                                       |   -0.119147   -0.124812   -0.026684 |

  Dip. moment [a.u.]:                  [  -0.000043,    0.000040,    0.000039]
  Total dipole [Debye]:                                               0.000179
  <r^2> [a.u.]:                        [ 175.910175,   35.206839,   13.272923]
  Total <r^2> [a.u.]:                                               224.389937

  V1^2 = 0.9523, V2^2 = 0.0477

  Important amplitudes:
      occ i     occ j     vir a      vir b          v   
    -----------------------------------------------------
     7 (A) A              9 (A) A                -0.6712
     8 (A) A             12 (A) A                 0.1367
     7 (A) A             20 (A) A                -0.0747
     5 (A) A   8 (A) B    9 (A) A    9 (A) B     -0.0337
     8 (A) A             16 (A) A                -0.0267
     8 (A) A             21 (A) A                 0.0166
     5 (A) A             28 (A) A                -0.0151
     5 (A) A   7 (A) B    9 (A) A   16 (A) B     -0.0136
     4 (A) A   7 (A) B    9 (A) A   19 (A) B     -0.0134
     7 (A) A   8 (A) B   20 (A) A   17 (A) B      0.0105
     5 (A) A   6 (A) A    9 (A) A   14 (A) A     -0.0101
     7 (A) A   8 (A) A    9 (A) A   28 (A) A     -0.0101
     5 (A) A   6 (A) B    9 (A) A   19 (A) B     -0.0097
     5 (A) A   8 (A) B    9 (A) A   20 (A) B     -0.0095
     4 (A) A   6 (A) B    9 (A) A   16 (A) B     -0.0090
     5 (A) A   6 (A) A    9 (A) A   23 (A) A     -0.0089
     8 (A) A   7 (A) B    9 (A) A   28 (A) B      0.0087
     4 (A) A   5 (A) A    9 (A) A   10 (A) A     -0.0084
     3 (A) A   7 (A) B    9 (A) A   18 (A) B     -0.0083
     6 (A) A   7 (A) B    9 (A) A   18 (A) B      0.0082
     5 (A) A   7 (A) A    9 (A) A   16 (A) A     -0.0080
     5 (A) A   6 (A) B    9 (A) A   14 (A) B     -0.0080
     7 (A) A   8 (A) B   17 (A) A   20 (A) B      0.0077
     5 (A) A   6 (A) B    9 (A) A   23 (A) B     -0.0075
     4 (A) A   8 (A) B    9 (A) A   25 (A) B     -0.0075
     7 (A) A   8 (A) B   17 (A) A    9 (A) B      0.0074
     5 (A) A   5 (A) B    9 (A) A   13 (A) B      0.0074
     4 (A) A   7 (A) B   19 (A) A    9 (A) B     -0.0074
     4 (A) A   5 (A) B    9 (A) A   18 (A) B      0.0069
     7 (A) A   8 (A) B   19 (A) A   18 (A) B     -0.0069
     5 (A) A   8 (A) A    9 (A) A   20 (A) A     -0.0069
     7 (A) A   7 (A) B   20 (A) A   22 (A) B     -0.0065
     4 (A) A   5 (A) B   10 (A) A    9 (A) B      0.0062
     5 (A) A   7 (A) B   12 (A) A   20 (A) B      0.0061
     4 (A) A   7 (A) A    9 (A) A   19 (A) A     -0.0061
     6 (A) A   7 (A) A   19 (A) A   28 (A) A      0.0060
     5 (A) A             38 (A) A                -0.0058
     7 (A) A   7 (A) B   13 (A) A   20 (A) B     -0.0057
     5 (A) A             17 (A) A                -0.0056
     4 (A) A   8 (A) A    9 (A) A   25 (A) A     -0.0055
    -----------------------------------------------------

  Density matrix analysis:
  ------------------------
  NOs
    Occupation of frontier NOs:
       0.9668   1.0482
    Number of electrons: 16.000000
    Number of unpaired electrons: n_u =  2.36479, n_u,nl =  2.06108
    NO participation ratio (PR_NO):  3.008647
  
  
  Mulliken Population Analysis
  Atom      Charge (e)              h+              e-           Del q
  --------------------------------------------------------------------
   1 H        0.158404        0.123745       -0.022659        0.101086
   2 C       -0.316706        0.276890       -0.478953       -0.202063
   3 H        0.158296        0.123626       -0.022660        0.100967
   4 C       -0.316710        0.276905       -0.478966       -0.202061
   5 H        0.158306        0.123634       -0.022656        0.100978
   6 H        0.158410        0.123755       -0.022662        0.101094
  --------------------------------------------------------------------
  Sum:       -0.000000        1.048556       -1.048556        0.000000
  
  Multipole moment analysis of the density matrix
    Molecular charge:                      0.000000
    Number of electrons:                   16.000000
      Center of electronic charge [Ang]: [ -1.561338,  -0.065288,   0.002126]
    Total nuclear charge:                  16.000000
      Center of nuclear charge [Ang]:    [ -1.561339,  -0.065286,   0.002127]
    Dipole moment [D]:                     0.000179
      Cartesian components [D]:          [ -0.000108,   0.000102,   0.000100]
    RMS size of the density [Ang]:         1.218680
      Cartesian components [Ang]:        [  0.800604,   0.782253,   0.481970]
  
  Exciton analysis of the difference density matrix
    <r_h> [Ang]:                  [ -1.561365,  -0.065266,   0.002129]
    <r_e> [Ang]:                  [ -1.561346,  -0.065286,   0.002118]
    |<r_e - r_h>| [Ang]:            0.000030
    Hole size [Ang]:                1.503631
      Cartesian components [Ang]: [  1.021502,   1.007173,   0.450602]
    Electron size [Ang]:            1.473282
      Cartesian components [Ang]: [  0.881730,   0.858329,   0.810176]

  Transition density matrix analysis:
  -----------------------------------
  
  CT numbers (Mulliken)
    omega =     0.9180
    <Phe> =    -0.0123
  
  Exciton analysis of the transition density matrix
    Trans. dipole moment [D]:             0.000443
      Cartesian components [D]:         [ -0.000331,   0.000294,   0.000007]
    <r_h> [Ang]:                        [ -1.561370,  -0.065262,   0.002131]
    <r_e> [Ang]:                        [ -1.561342,  -0.065289,   0.002115]
    |<r_e - r_h>| [Ang]:                  0.000042
    Hole size [Ang]:                      1.537723
      Cartesian components [Ang]:       [  1.048644,   1.034182,   0.442045]
    Electron size [Ang]:                  1.467406
      Cartesian components [Ang]:       [  0.869144,   0.845048,   0.826900]
    RMS electron-hole separation [Ang]:   2.104965
      Cartesian components [Ang]:       [  1.345524,   1.320099,   0.936902]
    Covariance(r_h, r_e) [Ang^2]:         0.043496
    Correlation coefficient:              0.019276
    Center-of-mass size [Ang]:            1.072947
      Cartesian components [Ang]:       [  0.689147,   0.675392,   0.469188]

  Decomposition into state-averaged NTOs
    H- 1 -> L+ 0:  0.6626 ( 87.8%)
    H- 0 -> L+ 3:  0.1370 (  3.8%)
                   omega =  91.8%
  ----------------------------------------------------------------------------


  Excited state 3 (singlet, A)                                     [converged]
  ----------------------------------------------------------------------------
  Term symbol:  4 (1) A                                     R^2 =  8.69954e-14

  Total energy:                                            -77.9862039256 a.u.
  Excitation energy:                                               9.044078 eV

  Osc. strength:                                                      0.026106
  Trans. dip. moment [a.u.]:           [   0.016371,    0.020736,   -0.342229]
  <i|r^2|0> [a.u.]:                    [   0.096412,    0.005285,    0.002760]
  Two-photon absorption cross-section (SoS) [a.u.]:                   0.000011
  Two-photon absorption matrix (SoS) [a.u.]:
                                       |   -0.001065   -0.000037   -0.000127 |
                                       |   -0.000037    0.001193    0.000026 |
                                       |   -0.000127    0.000026    0.000153 |
  Two-photon absorption cross-section [a.u.]:                         0.000006
  Two-photon absorption matrix [a.u.]:
                                       |   -0.000760   -0.000069   -0.000120 |
                                       |   -0.000069    0.000963    0.000027 |
                                       |   -0.000120    0.000027    0.000095 |

  Dip. moment [a.u.]:                  [   0.000037,    0.000048,   -0.000018]
  Total dipole [Debye]:                                               0.000160
  <r^2> [a.u.]:                        [ 182.618755,   42.083686,   11.133247]
  Total <r^2> [a.u.]:                                               235.835688

  V1^2 = 0.9582, V2^2 = 0.0418

  Important amplitudes:
      occ i     occ j     vir a      vir b          v   
    -----------------------------------------------------
     8 (A) A             10 (A) A                 0.6890
     8 (A) A             24 (A) A                 0.0504
     8 (A) A             18 (A) A                -0.0327
     8 (A) A   8 (A) B    9 (A) A   11 (A) B      0.0236
     4 (A) A              9 (A) A                 0.0235
     8 (A) A   8 (A) B   10 (A) A   17 (A) B      0.0168
     5 (A) A   8 (A) B   12 (A) A   10 (A) B      0.0167
     7 (A) A   8 (A) B   13 (A) A   10 (A) B     -0.0143
     8 (A) A             15 (A) A                 0.0116
     6 (A) A   8 (A) A   10 (A) A   15 (A) A     -0.0114
     4 (A) A   8 (A) B   11 (A) A   10 (A) B      0.0112
     6 (A) A   8 (A) B   15 (A) A   10 (A) B      0.0110
     7 (A) A   8 (A) B   22 (A) A   10 (A) B     -0.0108
     4 (A) A   8 (A) A   10 (A) A   11 (A) A     -0.0105
     7 (A) A   8 (A) A   10 (A) A   22 (A) A      0.0099
     7 (A) A   8 (A) A   10 (A) A   13 (A) A      0.0098
     5 (A) A   8 (A) A   10 (A) A   12 (A) A     -0.0097
     5 (A) A   8 (A) B   21 (A) A   10 (A) B      0.0093
     6 (A) A   8 (A) B   10 (A) A   10 (A) B     -0.0086
     6 (A) A   8 (A) A   10 (A) A   18 (A) A     -0.0085
     8 (A) A   8 (A) B    9 (A) A   23 (A) B      0.0084
     7 (A) A   8 (A) A   11 (A) A   16 (A) A     -0.0083
     3 (A) A   4 (A) B   10 (A) A    9 (A) B     -0.0080
     5 (A) A   8 (A) A   10 (A) A   21 (A) A     -0.0080
     8 (A) A   8 (A) B   10 (A) A   28 (A) B     -0.0074
     3 (A) A   8 (A) A   10 (A) A   24 (A) A     -0.0072
     7 (A) A   8 (A) B   16 (A) A   11 (A) B      0.0072
     3 (A) A   8 (A) B   10 (A) A   10 (A) B      0.0071
     4 (A) A   8 (A) B   19 (A) A   10 (A) B     -0.0071
     5 (A) A   8 (A) B   10 (A) A   12 (A) B      0.0070
     3 (A) A   8 (A) B   10 (A) A   18 (A) B     -0.0066
     3 (A) A   6 (A) B   10 (A) A   28 (A) B     -0.0063
     6 (A) A   8 (A) B   18 (A) A   10 (A) B      0.0062
     6 (A) A   8 (A) A   11 (A) A   14 (A) A     -0.0061
     8 (A) A   8 (A) B    9 (A) A   19 (A) B     -0.0061
     6 (A) A   8 (A) B   14 (A) A   11 (A) B      0.0060
     4 (A) A   8 (A) A   10 (A) A   23 (A) A     -0.0057
     7 (A) A   8 (A) B   11 (A) A   12 (A) B     -0.0057
     6 (A) A   8 (A) A   12 (A) A   16 (A) A     -0.0056
     6 (A) A             28 (A) A                 0.0055
    -----------------------------------------------------

  Density matrix analysis:
  ------------------------
  NOs
    Occupation of frontier NOs:
       0.9801   0.9842
    Number of electrons: 16.000000
    Number of unpaired electrons: n_u =  2.29032, n_u,nl =  2.02556
    NO participation ratio (PR_NO):  2.709041
  
  
  Mulliken Population Analysis
  Atom      Charge (e)              h+              e-           Del q
  --------------------------------------------------------------------
   1 H       -0.161626        0.053532       -0.272477       -0.218945
   2 C        0.323235        0.538506       -0.100628        0.437878
   3 H       -0.161608        0.053533       -0.272469       -0.218936
   4 C        0.323230        0.538503       -0.100624        0.437879
   5 H       -0.161592        0.053533       -0.272453       -0.218920
   6 H       -0.161639        0.053532       -0.272488       -0.218956
  --------------------------------------------------------------------
  Sum:       -0.000000        1.291139       -1.291139       -0.000000
  
  Multipole moment analysis of the density matrix
    Molecular charge:                      -0.000000
    Number of electrons:                   16.000000
      Center of electronic charge [Ang]: [ -1.561340,  -0.065288,   0.002128]
    Total nuclear charge:                  16.000000
      Center of nuclear charge [Ang]:    [ -1.561339,  -0.065286,   0.002127]
    Dipole moment [D]:                     0.000160
      Cartesian components [D]:          [  0.000093,   0.000123,  -0.000046]
    RMS size of the density [Ang]:         1.298266
      Cartesian components [Ang]:        [  0.870845,   0.855732,   0.441415]
  
  Exciton analysis of the difference density matrix
    <r_h> [Ang]:                  [ -1.561338,  -0.065288,   0.002122]
    <r_e> [Ang]:                  [ -1.561355,  -0.065307,   0.002136]
    |<r_e - r_h>| [Ang]:            0.000029
    Hole size [Ang]:                1.427437
      Cartesian components [Ang]: [  0.847308,   0.832340,   0.791742]
    Electron size [Ang]:            2.108676
      Cartesian components [Ang]: [  1.398850,   1.399562,   0.728669]

  Transition density matrix analysis:
  -----------------------------------
  
  CT numbers (Mulliken)
    omega =     0.9236
    <Phe> =    -0.0108
  
  Exciton analysis of the transition density matrix
    Trans. dipole moment [D]:             0.436224
      Cartesian components [D]:         [  0.020806,   0.026353,  -0.434930]
    <r_h> [Ang]:                        [ -1.561335,  -0.065287,   0.002118]
    <r_e> [Ang]:                        [ -1.561360,  -0.065315,   0.002140]
    |<r_e - r_h>| [Ang]:                  0.000043
    Hole size [Ang]:                      1.230571
      Cartesian components [Ang]:       [  0.650102,   0.636722,   0.828406]
    Electron size [Ang]:                  2.333186
      Cartesian components [Ang]:       [  1.546797,   1.549770,   0.805847]
    RMS electron-hole separation [Ang]:   2.626712
      Cartesian components [Ang]:       [  1.669407,   1.667594,   1.154047]
    Covariance(r_h, r_e) [Ang^2]:         0.029223
    Correlation coefficient:              0.010178
    Center-of-mass size [Ang]:            1.324434
      Cartesian components [Ang]:       [  0.843135,   0.841655,   0.578677]

  Decomposition into state-averaged NTOs
    H- 0 -> L+ 1:  0.6789 ( 92.2%)
                   omega =  92.4%
  ----------------------------------------------------------------------------


  Excited state 4 (singlet, A)                                     [converged]
  ----------------------------------------------------------------------------
  Term symbol:  5 (1) A                                     R^2 =  7.88107e-14

  Total energy:                                            -77.9627154431 a.u.
  Excitation energy:                                               9.683232 eV

  Osc. strength:                                                      0.000000
  Trans. dip. moment [a.u.]:           [   0.000126,   -0.000119,   -0.000006]
  <i|r^2|0> [a.u.]:                    [  -0.013538,   -0.018974,    0.033225]
  Two-photon absorption cross-section (SoS) [a.u.]:                 134.548335
  Two-photon absorption matrix (SoS) [a.u.]:
                                       |   -0.271004   -0.311641    2.791856 |
                                       |   -0.311641   -0.355837    2.937765 |
                                       |    2.791856    2.937765    0.626843 |
  Two-photon absorption cross-section [a.u.]:                        93.384725
  Two-photon absorption matrix [a.u.]:
                                       |   -0.225988   -0.259632    2.325246 |
                                       |   -0.259632   -0.296248    2.448087 |
                                       |    2.325246    2.448087    0.522237 |

  Dip. moment [a.u.]:                  [  -0.000048,   -0.000041,   -0.000028]
  Total dipole [Debye]:                                               0.000174
  <r^2> [a.u.]:                        [ 182.663332,   42.040560,   10.793375]
  Total <r^2> [a.u.]:                                               235.497268

  V1^2 = 0.9634, V2^2 = 0.0366

  Important amplitudes:
      occ i     occ j     vir a      vir b          v   
    -----------------------------------------------------
     8 (A) A             12 (A) A                 0.6719
     7 (A) A              9 (A) A                 0.1388
     8 (A) A             21 (A) A                 0.0789
     8 (A) A             16 (A) A                -0.0679
     8 (A) A   8 (A) B    9 (A) A   13 (A) B      0.0181
     5 (A) A   8 (A) B   12 (A) A   12 (A) B      0.0154
     8 (A) A   8 (A) B   12 (A) A   17 (A) B      0.0133
     7 (A) A   8 (A) B   13 (A) A   12 (A) B     -0.0126
     7 (A) A             20 (A) A                 0.0123
     8 (A) A   8 (A) B    9 (A) A   22 (A) B      0.0115
     5 (A) A   8 (A) A   12 (A) A   21 (A) A     -0.0109
     4 (A) A   8 (A) B   11 (A) A   12 (A) B      0.0109
     7 (A) A   8 (A) A   12 (A) A   22 (A) A      0.0095
     6 (A) A   8 (A) B   15 (A) A   12 (A) B      0.0089
     7 (A) A   8 (A) B   22 (A) A   12 (A) B     -0.0087
     6 (A) A   8 (A) B   10 (A) A   12 (A) B     -0.0087
     3 (A) A   4 (A) B   12 (A) A    9 (A) B     -0.0083
     6 (A) A   8 (A) A   12 (A) A   15 (A) A     -0.0080
     7 (A) A   8 (A) A   13 (A) A   16 (A) A     -0.0079
     3 (A) A   8 (A) B   12 (A) A   18 (A) B     -0.0079
     7 (A) A   8 (A) A   12 (A) A   13 (A) A      0.0074
     5 (A) A   8 (A) B   21 (A) A   12 (A) B      0.0069
     5 (A) A   8 (A) B    9 (A) A    9 (A) B      0.0066
     4 (A) A   8 (A) B   19 (A) A   12 (A) B     -0.0065
     3 (A) A   6 (A) B   12 (A) A   28 (A) B     -0.0061
     4 (A) A   8 (A) A   11 (A) A   12 (A) A      0.0060
     6 (A) A   8 (A) A   12 (A) A   18 (A) A     -0.0058
     7 (A) A   8 (A) B   16 (A) A   13 (A) B      0.0058
     6 (A) A   8 (A) B   18 (A) A   12 (A) B      0.0055
     8 (A) A   8 (A) B   20 (A) A   22 (A) B      0.0055
     3 (A) A   8 (A) B   12 (A) A   30 (A) B     -0.0055
     5 (A) A   8 (A) B   10 (A) A   10 (A) B      0.0054
     3 (A) A   5 (A) B   12 (A) A   25 (A) B     -0.0054
     6 (A) A   8 (A) B   12 (A) A   10 (A) B     -0.0053
     7 (A) A   8 (A) B   11 (A) A   10 (A) B     -0.0053
     3 (A) A   8 (A) A   12 (A) A   24 (A) A     -0.0053
     6 (A) A   8 (A) A   13 (A) A   14 (A) A     -0.0052
     3 (A) A   8 (A) A   12 (A) A   18 (A) A     -0.0052
     6 (A) A   8 (A) A   10 (A) A   16 (A) A     -0.0046
     8 (A) A   8 (A) B   12 (A) A   28 (A) B     -0.0044
    -----------------------------------------------------

  Density matrix analysis:
  ------------------------
  NOs
    Occupation of frontier NOs:
       0.9468   1.0197
    Number of electrons: 16.000000
    Number of unpaired electrons: n_u =  2.32577, n_u,nl =  2.04606
    NO participation ratio (PR_NO):  2.890872
  
  
  Mulliken Population Analysis
  Atom      Charge (e)              h+              e-           Del q
  --------------------------------------------------------------------
   1 H       -0.123292        0.043969       -0.224579       -0.180610
   2 C        0.247252        0.498697       -0.136801        0.361896
   3 H       -0.123959        0.043929       -0.225217       -0.181288
   4 C        0.247243        0.498697       -0.136805        0.361892
   5 H       -0.123972        0.043930       -0.225230       -0.181300
   6 H       -0.123272        0.043969       -0.224558       -0.180589
  --------------------------------------------------------------------
  Sum:       -0.000000        1.173190       -1.173190        0.000000
  
  Multipole moment analysis of the density matrix
    Molecular charge:                      -0.000000
    Number of electrons:                   16.000000
      Center of electronic charge [Ang]: [ -1.561337,  -0.065285,   0.002128]
    Total nuclear charge:                  16.000000
      Center of nuclear charge [Ang]:    [ -1.561339,  -0.065286,   0.002127]
    Dipole moment [D]:                     0.000174
      Cartesian components [D]:          [ -0.000121,  -0.000104,  -0.000070]
    RMS size of the density [Ang]:         1.295986
      Cartesian components [Ang]:        [  0.871298,   0.855291,   0.434625]
  
  Exciton analysis of the difference density matrix
    <r_h> [Ang]:                  [ -1.561337,  -0.065285,   0.002121]
    <r_e> [Ang]:                  [ -1.561317,  -0.065266,   0.002141]
    |<r_e - r_h>| [Ang]:            0.000034
    Hole size [Ang]:                1.404252
      Cartesian components [Ang]: [  0.825320,   0.810931,   0.795715]
    Electron size [Ang]:            2.131290
      Cartesian components [Ang]: [  1.433636,   1.428490,   0.668207]

  Transition density matrix analysis:
  -----------------------------------
  
  CT numbers (Mulliken)
    omega =     0.9277
    <Phe> =    -0.0139
  
  Exciton analysis of the transition density matrix
    Trans. dipole moment [D]:             0.000220
[...]
    16   -1.543708414463e-03
    17   -1.883602889788e-03
    18    1.333150017929e-04
    19   -2.807579232376e-03
    20    9.099677194418e-03
    21    9.435761885870e-01
    22   -9.795589981368e-05
    23    1.426949239185e-02
    24    8.584808091510e-04
    25    7.030729033604e-02
    26   -5.236369253266e-02
    27   -1.403173493772e+00
    28    9.770258930377e-02
    29   -9.277578415061e-02
    30   -9.357228310938e-04
    31    3.878782803991e-01
    32   -3.683612442553e-01
    33   -3.726571654477e-03
    34    1.650149916293e-02
    35   -1.541279016773e-03
    36   -1.882513828825e-03
    37    1.334130285629e-04
    38   -2.807090744164e-03
    39    9.096413475079e-03
    40    9.435749377384e-01
    41    9.775616325999e-05
    42   -1.426937714945e-02
    43   -8.580389059176e-04
    44    9.101853544033e-03
    45    9.435108091746e-01
    46    1.425953115957e-02
    47    6.341377902705e-04
    48    7.216257587598e-04
Sym=X
Ene= 0.233289
Spin=Alpha
Occup=0
     1   -1.936076372229e-02
     2   -1.059530568880e+00
     3    1.527451557104e-02
     4    9.911487484136e-03
     5    1.332049207301e-03
     6   -8.817337590634e-02
     7    8.447316123050e-02
     8    1.538171920774e+00
     9    5.265940484692e-02
    10   -5.098217082486e-02
    11   -5.561201538553e-04
    12    2.424343099286e-01
    13   -2.335573239793e-01
    14   -2.475377107616e-03
    15   -2.073832069431e-02
    16    2.393420575120e-03
    17    2.761421362066e-03
    18   -5.552790446615e-04
    19    1.126313346477e-02
    20   -1.956274665252e-02
    21   -1.067000588913e+00
    22   -9.144468279093e-03
    23   -1.583473998689e-02
    24   -1.396564870951e-03
    25    8.817228286994e-02
    26   -8.447042887800e-02
    27   -1.538163489895e+00
    28    5.265969467186e-02
    29   -5.098374261500e-02
    30   -5.699388737461e-04
    31    2.424308114620e-01
    32   -2.335745744951e-01
    33   -2.532323312928e-03
    34    2.073841550940e-02
    35   -2.391035847653e-03
    36   -2.761763957659e-03
    37    5.562168686449e-04
    38   -1.126279806123e-02
    39    1.956275729630e-02
    40    1.067014415032e+00
    41   -9.144767618077e-03
    42   -1.583511741833e-02
    43   -1.396981722422e-03
    44    1.935996780094e-02
    45    1.059502613999e+00
    46    1.527388465535e-02
    47    9.912291928100e-03
    48    1.330681751095e-03
Sym=X
Ene= 0.235122
Spin=Alpha
Occup=0
     1    2.934639168210e-02
     2    1.186898036156e+00
     3   -1.311009955908e-02
     4   -3.888548334239e-03
     5   -8.646750716577e-04
     6    2.773058033480e-04
     7   -2.482607103469e-04
     8   -5.054684606353e-03
     9   -1.546494436014e-01
    10   -1.623078394720e-01
    11   -1.724427851139e-02
    12   -5.334755612148e-01
    13   -5.597465066679e-01
    14   -5.948429984302e-02
    15    7.187820735136e-05
    16   -3.783778923968e-06
    17   -9.871337354220e-06
    18    5.804723740805e-05
    19   -3.439120139606e-05
    20   -2.922734086143e-02
    21   -1.180090498875e+00
    22   -3.160642310052e-03
    23   -1.317736006389e-02
    24   -9.490378441375e-04
    25   -2.760955143486e-04
    26    2.473503883552e-04
    27    5.023587340190e-03
    28   -1.546469651548e-01
    29   -1.623125562069e-01
    30   -1.722063218488e-02
    31   -5.334434988573e-01
    32   -5.597423963377e-01
    33   -5.938500828272e-02
    34   -7.183687661727e-05
    35    2.210784262807e-06
    36    1.062726890793e-05
    37   -5.724126914081e-05
    38    3.449941380658e-05
    39    2.922761029952e-02
    40    1.180079869821e+00
    41   -3.160539388367e-03
    42   -1.317751652351e-02
    43   -9.477934716643e-04
    44   -2.934641060227e-02
    45   -1.186847944031e+00
    46   -1.310977299690e-02
    47   -3.888370308590e-03
    48   -8.632417012527e-04
Sym=X
Ene= 0.301030
Spin=Alpha
Occup=0
     1    1.904575590260e-02
     2   -1.643748523867e+00
     3    2.430920803454e-02
     4   -8.461981317170e-04
     5    1.117591491181e-03
     6   -4.036183073650e-07
     7    6.421545831397e-06
     8   -1.097831413625e-04
     9    1.378903918804e-01
    10    1.450661201624e-01
    11    1.539305511867e-02
    12    1.083567238547e+00
    13    1.139786916419e+00
    14    1.209192592803e-01
    15   -3.472712591161e-05
    16    1.902165600818e-03
    17   -2.155689893961e-03
    18    3.719874233132e-02
    19    1.899104297175e-03
    20   -1.905912489737e-02
    21    1.643856051567e+00
    22   -2.083259187156e-03
    23    2.422327799326e-02
    24    1.363151278420e-03
    25   -1.941389469539e-06
    26    5.723599477729e-06
    27   -5.179855940139e-05
    28   -1.378943753299e-01
    29   -1.450697545977e-01
    30   -1.537925185111e-02
    31   -1.083544969765e+00
    32   -1.139806433417e+00
    33   -1.208715261844e-01
    34   -3.620285544613e-05
    35    1.899146570847e-03
    36   -2.157008912022e-03
    37    3.719762627999e-02
    38    1.899965015990e-03
    39   -1.905604894115e-02
    40    1.643852820353e+00
    41    2.084019701344e-03
    42   -2.422277842903e-02
    43   -1.362728587479e-03
    44    1.904190590442e-02
    45   -1.643775728194e+00
    46   -2.430981210676e-02
    47    8.463487654559e-04
    48   -1.115805076038e-03
Sym=X
Ene= 0.458567
Spin=Alpha
Occup=0
     1   -9.387097049213e-02
     2   -7.216734797269e-01
     3   -1.001640948278e-02
     4   -1.175477289069e-02
     5   -1.191936991491e-03
     6    6.744518458368e-02
     7    7.778760081688e-04
     8   -3.194763739937e+00
     9    1.189135735592e-01
    10   -1.129275046602e-01
    11   -1.126687069896e-03
    12    2.325888496999e+00
    13   -2.209137008143e+00
    14   -2.160112838465e-02
    15    4.253880111816e-02
    16   -2.564363924892e-03
    17   -3.593409970704e-03
    18   -9.272764893666e-04
    19    1.716170570183e-02
    20   -9.370542399605e-02
    21   -7.219883086787e-01
    22    1.125515252185e-02
    23    1.058676225442e-02
    24    1.180673212368e-03
    25   -6.744615527595e-02
    26   -7.739494974989e-04
    27    3.194767456094e+00
    28    1.189218735861e-01
    29   -1.129309014284e-01
    30   -1.134431246056e-03
    31    2.325881000085e+00
    32   -2.209114158019e+00
    33   -2.163438521243e-02
    34   -4.253569132848e-02
    35    2.561056328849e-03
    36    3.588202045616e-03
    37    9.266570850543e-04
    38   -1.716564918501e-02
    39    9.367982971834e-02
    40    7.220133553334e-01
    41    1.125503600316e-02
    42    1.058623842385e-02
    43    1.178986691622e-03
    44    9.385200040023e-02
    45    7.216871716942e-01
    46   -1.001551934513e-02
    47   -1.175318968893e-02
    48   -1.190764537320e-03
Sym=X
Ene= 0.593553
Spin=Alpha
Occup=0
     1    2.321693380173e-01
     2    8.019260675534e-02
     3   -2.659115005264e-02
     4    2.831195014998e-02
     5    4.334543802736e-04
     6   -5.017468586502e-03
     7   -1.637474285014e-01
     8   -4.618689470595e-01
     9    3.163356958772e-01
    10   -3.005245612705e-01
    11   -2.945173730104e-03
    12   -7.474387804548e-01
    13    7.105314988260e-01
    14    7.036809827753e-03
    15    7.913713796674e-03
    16    3.301814767316e-03
    17    2.692268103620e-03
    18   -3.688509472565e-03
    19    6.824147878006e-02
    20    2.336719353888e-01
    21    7.968046035069e-02
    22   -2.952617583368e-02
    23    2.494292764781e-02
    24    8.889694613736e-05
    25   -5.023676660903e-03
    26   -1.637479222947e-01
    27   -4.616726610126e-01
    28   -3.164889253845e-01
    29    3.003394826430e-01
    30    2.925599377164e-03
    31    7.485132951459e-01
    32   -7.096964479315e-01
    33   -6.943836317203e-03
    34    7.916482792193e-03
    35    3.324446143117e-03
    36    2.666066114033e-03
    37   -3.241872907646e-03
    38    6.826563267430e-02
    39    2.320190369097e-01
    40    8.047148587150e-02
    41    2.964658753897e-02
    42   -2.511083259904e-02
    43   -9.419975754848e-05
    44    2.337927374804e-01
    45    7.954885176170e-02
    46    2.642288559277e-02
    47   -2.820526185418e-02
    48   -4.358780832125e-04
Sym=X
Ene= 0.594083
Spin=Alpha
Occup=0
     1   -5.118223323266e-01
     2    2.217054703200e-01
     3   -5.348963723109e-02
     4    3.389715588655e-02
     5   -5.201574554524e-04
     6    1.232764141473e-05
     7    2.457087961226e-04
     8    1.462803531007e-03
     9   -5.126362368694e-02
    10   -5.296503388608e-02
    11   -5.657174441408e-03
    12    2.895377269576e-01
    13    3.033353568553e-01
    14    3.225847040207e-02
    15    7.852285128051e-05
    16   -7.171637663111e-03
    17    8.121963258818e-03
    18   -1.401912867259e-01
    19   -7.294149804238e-03
    20    5.113167519232e-01
    21   -2.217494799507e-01
    22    3.667343093027e-02
    23   -5.176243076360e-02
    24   -1.364814996388e-03
    25    2.998650137902e-06
    26    2.719891281038e-04
    27    3.600237293449e-05
    28   -5.025478469095e-02
    29   -5.392577461110e-02
    30   -5.675716435308e-03
    31    2.871458160057e-01
    32    3.056269036316e-01
    33    3.222542617383e-02
    34   -1.035379042526e-04
    35    7.154732368886e-03
    36   -8.135583196795e-03
    37    1.402076367995e-01
    38    7.077650678171e-03
    39   -5.120859652527e-01
    40    2.215201273269e-01
    41    3.657581639885e-02
    42   -5.168299998779e-02
    43   -1.368321583266e-03
    44    5.110830899058e-01
    45   -2.219917030270e-01
    46   -5.357510896549e-02
    47    3.398709161658e-02
    48   -5.190196483874e-04
Sym=X
Ene= 0.697011
Spin=Alpha
Occup=0
     1    3.775722138786e-05
     2    3.579432799006e-05
     3    1.041279205067e-03
     4    1.317313345125e-03
     5   -2.168713914358e-02
     6    1.508098551308e-06
     7   -8.132985982741e-07
     8    3.337828028089e-05
     9    3.270969819377e-02
    10    4.115111910254e-02
    11   -6.808927681686e-01
    12   -2.963268207350e-02
    13   -3.705497087621e-02
    14    6.146328301415e-01
    15   -1.317060598599e-03
    16    8.172326937182e-02
    17   -7.753983497349e-02
    18   -8.607067540686e-03
    19   -1.192793245489e-03
    20    3.398526932537e-05
    21    5.754762092387e-05
    22    1.038499260315e-03
    23    1.312752172306e-03
    24   -2.168919728755e-02
    25    1.662685675006e-07
    26    3.073029780068e-05
    27   -5.683632747846e-05
    28    3.269000523868e-02
    29    4.111754401329e-02
    30   -6.808946276906e-01
    31   -2.960231292827e-02
    32   -3.701809359326e-02
    33    6.146343878665e-01
    34    1.306261281087e-03
    35   -8.172212033739e-02
    36    7.754104543844e-02
    37    8.614634045957e-03
    38    1.196735718417e-03
    39   -1.349412096550e-05
    40   -5.258750583047e-05
    41    1.036598615768e-03
    42    1.317932256303e-03
    43   -2.168908656185e-02
    44   -9.687755385093e-06
    45   -7.432857487350e-05
    46    1.031303742115e-03
    47    1.310695871242e-03
    48   -2.168797320357e-02
Sym=X
Ene= 0.713487
Spin=Alpha
Occup=0
     1   -4.926128679109e-01
     2    1.445570629587e-01
     3   -8.074554731725e-02
     4   -4.685596740739e-02
     5   -6.716247386810e-03
     6   -4.635928445589e-02
     7   -3.015502482105e-01
     8    5.086374153483e-01
     9    1.925367082965e-01
    10   -1.829109480462e-01
    11   -1.823691977504e-03
    12   -2.060263932978e-02
    13    1.984381928569e-02
    14    1.628626215746e-04
    15    1.956122582860e-01
    16   -2.063944534908e-02
    17   -2.433984669699e-02
    18    3.575517948705e-03
    19   -7.301726672232e-02
    20   -4.926147103520e-01
    21    1.447920793533e-01
    22    4.268524513299e-02
    23    8.302441041516e-02
    24    7.061995980943e-03
    25   -4.635227724278e-02
    26   -3.015583537757e-01
    27    5.084433660925e-01
    28   -1.925419205887e-01
    29    1.829161901820e-01
    30    1.785056794069e-03
    31    2.046212352784e-02
    32   -1.972513896097e-02
    33   -1.180470585702e-04
    34    1.956083657541e-01
    35   -2.062819303555e-02
    36   -2.432874292415e-02
    37    3.573225162736e-03
    38   -7.301096438842e-02
    39   -4.925807392696e-01
    40    1.447286550003e-01
    41   -4.268418424118e-02
    42   -8.301969061578e-02
    43   -7.059305968036e-03
    44   -4.925970701619e-01
    45    1.444994899753e-01
    46    8.074261558721e-02
    47    4.685538557141e-02
    48    6.710175831194e-03
Sym=X
Ene= 0.760400
Spin=Alpha
Occup=0
     1    5.301214121735e-01
     2   -3.263422684146e-01
     3    9.899947686227e-02
     4    2.112093084047e-02
     5    6.033819762233e-03
     6    8.525800190592e-02
     7   -2.268676611105e-01
     8   -1.187875568268e-01
     9    1.535878458859e-01
    10   -1.458573299238e-01
    11   -1.415029399555e-03
    12   -8.168831857022e-02
    13    7.740275825880e-02
    14    7.320874614076e-04
    15   -2.050313474079e-01
    16    1.589881616640e-02
    17    2.045042262523e-02
    18    1.328611111676e-03
    19   -2.191921566279e-02
    20    5.298869832949e-01
    21   -3.263271465268e-01
    22   -1.607324118628e-02
    23   -9.987072478375e-02
    24   -6.807000484265e-03
    25   -8.526042507132e-02
    26    2.268606715589e-01
    27    1.188545165366e-01
    28    1.535966966153e-01
    29   -1.458529146797e-01
    30   -1.425625284355e-03
    31   -8.174196128556e-02
    32    7.742550888857e-02
    33    7.791151732688e-04
    34    2.050432959847e-01
    35   -1.587927256099e-02
    36   -2.043812815085e-02
    37   -1.324280227835e-03
    38    2.191573700163e-02
    39   -5.299266947311e-01
    40    3.263314233572e-01
    41   -1.607630890734e-02
    42   -9.987560349000e-02
    43   -6.801458306393e-03
    44   -5.301537750429e-01
    45    3.263217224919e-01
    46    9.899860679692e-02
    47    2.112666219291e-02
    48    6.029939237824e-03
Sym=X
Ene= 0.802481
Spin=Alpha
Occup=0
     1    3.641466420612e-06
     2    3.060600620941e-05
     3    1.456027977889e-03
     4    1.838368951900e-03
     5   -3.045170067481e-02
     6    2.416269451676e-06
     7   -2.842302940831e-05
     8    2.755439249800e-05
     9    3.671674084078e-02
    10    4.613638940702e-02
    11   -7.636727198165e-01
    12   -5.297479680419e-02
    13   -6.655250824923e-02
    14    1.101681987451e+00
    15    8.660699743286e-04
    16   -5.407531961416e-02
    17    5.130819080280e-02
    18    5.689380397236e-03
    19    7.912892535090e-04
    20    7.753299641430e-06
    21   -2.315916302535e-05
    22    1.459344313916e-03
    23    1.839752150172e-03
    24   -3.043795926295e-02
    25    1.257260542830e-06
    26   -2.780172294703e-05
    27   -5.461298651357e-06
    28   -3.665910545610e-02
    29   -4.611068329623e-02
    30    7.636785743023e-01
    31    5.289560019793e-02
    32    6.650721442732e-02
    33   -1.101689019520e+00
    34    8.731445784541e-04
    35   -5.407445759297e-02
    36    5.130669273984e-02
    37    5.705561758556e-03
    38    7.982726585181e-04
    39    3.339623259274e-07
    40    4.002072411112e-05
    41   -1.458810885853e-03
    42   -1.850093061579e-03
    43    3.043555756054e-02
    44    4.472995897343e-06
    45   -1.367101038760e-05
    46   -1.456213195624e-03
    47   -1.845544746766e-03
    48    3.045081150075e-02
Sym=X
Ene= 0.864765
Spin=Alpha
Occup=0
     1    3.754619100033e-02
     2   -1.081482074488e+00
     3    1.516035852434e-01
     4    5.054767068679e-02
     5    1.033144026269e-02
     6   -6.322732684507e-07
     7    2.256870939387e-05
     8   -9.473892896019e-05
     9   -4.111944948322e-01
    10   -4.324304357297e-01
    11   -4.590520249518e-02
    12    9.158522854918e-01
    13    9.630544058589e-01
    14    1.022390198919e-01
    15   -2.204994341352e-04
    16    1.254827264798e-02
    17   -1.421946800317e-02
    18    2.454050864696e-01
    19    1.258137826964e-02
    20   -3.750652944393e-02
    21    1.081240051403e+00
    22    4.274840574114e-02
    23    1.538849126358e-01
    24    1.135865001128e-02
    25    9.987636897633e-07
    26   -1.876028008275e-05
    27    9.506322650774e-05
    28   -4.112028788067e-01
    29   -4.324460894756e-01
    30   -4.583950206708e-02
    31    9.158618804411e-01
    32    9.630918588847e-01
    33    1.020917445492e-01
    34    2.195319210287e-04
    35   -1.254443427060e-02
    36    1.421980659969e-02
    37   -2.454112492545e-01
    38   -1.258589932459e-02
    39    3.750495873621e-02
    40   -1.081247871195e+00
    41    4.274107900029e-02
    42    1.538884405407e-01
    43    1.135540407846e-02
    44   -3.754347261000e-02
    45    1.081487973495e+00
    46    1.516075835142e-01
    47    5.054459347156e-02
    48    1.032231603974e-02
Sym=X
Ene= 0.921999
Spin=Alpha
Occup=0
     1   -1.598484437361e-01
     2    1.209402833619e+00
     3   -1.850869902953e-01
     4    1.038323781423e-02
     5   -8.269816949719e-03
     6    8.171247143774e-08
     7    2.377763696675e-05
     8    8.125510329898e-07
     9    4.654272255752e-01
    10    4.895315437924e-01
    11    5.193788326736e-02
    12   -1.296980248014e+00
    13   -1.364334301096e+00
    14   -1.447422343512e-01
    15    1.514361542702e-04
    16   -7.470821234018e-03
    17    8.447433680347e-03
    18   -1.458407651323e-01
    19   -7.498808463369e-03
    20    1.597916074468e-01
    21   -1.209405749668e+00
    22    1.985567034974e-02
    23   -1.841920454821e-01
    24   -1.017355630965e-02
    25   -5.400689077364e-07
    26    3.255140480473e-05
    27    4.849218225785e-06
    28   -4.654293094321e-01
    29   -4.895215170852e-01
    30   -5.191325743170e-02
    31    1.296987949376e+00
    32    1.364289299297e+00
    33    1.446752341303e-01
    34    1.565998549839e-04
    35   -7.450955607630e-03
    36    8.442850630474e-03
    37   -1.458375633792e-01
    38   -7.510671071439e-03
    39    1.597839644237e-01
    40   -1.209360442881e+00
    41   -1.986397185626e-02
    42    1.841840549119e-01
    43    1.016953625359e-02
    44   -1.598580016783e-01
    45    1.209417275174e+00
    46    1.850888690728e-01
    47   -1.038330807106e-02
    48    8.257097741091e-03
Sym=X
Ene= 0.953966
Spin=Alpha
Occup=0
     1   -1.192504081684e-01
     2    9.396724802319e-01
     3   -1.011494749767e-01
     4   -9.368067351703e-02
     5   -1.051224292830e-02
     6    1.301955612740e-02
     7    2.213276601666e-01
     8    6.324156985423e-01
     9    4.801266843942e-01
    10   -4.560437505518e-01
    11   -4.479253180532e-03
    12   -1.553137141716e+00
    13    1.475226601076e+00
    14    1.447198838849e-02
    15   -2.420108904178e-02
    16   -1.451080935954e-02
    17   -1.210846823253e-02
    18    1.456238841410e-02
    19   -2.842818328870e-01
    20   -1.193116632004e-01
    21    9.399171895969e-01
    22    8.842326705624e-02
    23    1.057828788859e-01
    24    1.064583293744e-02
    25   -1.301904919192e-02
    26   -2.212934127192e-01
    27   -6.324669912334e-01
    28    4.801169746949e-01
    29   -4.560523150568e-01
    30   -4.503049690945e-03
    31   -1.553101416209e+00
    32    1.475275325451e+00
    33    1.453387824330e-02
    34    2.419643208941e-02
    35    1.450495943084e-02
    36    1.210681597925e-02
    37   -1.456702544779e-02
    38    2.842743309005e-01
    39    1.193138559399e-01
    40   -9.399423134543e-01
    41    8.841918614295e-02
    42    1.057877585103e-01
    43    1.064570272803e-02
    44    1.192571777729e-01
    45   -9.396232280062e-01
    46   -1.011438233803e-01
    47   -9.368076605662e-02
    48   -1.050457140487e-02
[5D]

======= END OF MOLDEN-FORMATTED INPUT FILE =======


        *************************************************************
        *                                                           *
        *  Thank you very much for using Q-Chem.  Have a nice day.  *
        *                                                           *
        *************************************************************


