                  Welcome to Q-Chem
     A Quantum Leap Into The Future Of Chemistry


 Q-Chem 5.4 (devel), Q-Chem, Inc., Pleasanton, CA (2021)

 E. Epifanovsky,  A. T. B. Gilbert,  Xintian Feng,  Joonho Lee,  Yuezhi Mao,  
 N. Mardirossian,  P. Pokhilko,  A. White,  M. Wormit,  M. P. Coons,  
 A. L. Dempwolff,  Zhengting Gan,  D. Hait,  P. R. Horn,  L. D. Jacobson,  
 I. Kaliman,  J. Kussmann,  A. W. Lange,  Ka Un Lao,  D. S. Levine,  Jie Liu,  
 S. C. McKenzie,  A. F. Morrison,  K. Nanda,  F. Plasser,  D. R. Rehn,  
 M. L. Vidal,  Zhi-Qiang You,  Ying Zhu,  B. Alam,  B. Albrecht,  
 A. Aldossary,  E. Alguire,  J. H. Andersen,  D. Barton,  K. Begam,  A. Behn,  
 Y. A. Bernard,  E. J. Berquist,  H. Burton,  A. Carreras,  K. Carter-Fenk,  
 R. Chakraborty,  A. D. Chien,  K. D. Closser,  V. Cofer-Shabica,  
 S. Dasgupta,  Jia Deng,  M. de Wergifosse,  M. Diedenhofen,  Hainam Do,  
 S. Ehlert,  Po-Tung Fang,  S. Fatehi,  Qingguo Feng,  T. Friedhoff,  
 J. Gayvert,  Qinghui Ge,  G. Gidofalvi,  M. Goldey,  J. Gomes,  
 C. Gonzalez-Espinoza,  S. Gulania,  A. Gunina,  M. W. D. Hanson-Heine,  
 P. H. P. Harbach,  A. W. Hauser,  M. F. Herbst,  M. Hernandez Vera,  
 M. Hodecker,  Z. C. Holden,  S. Houck,  Xunkun Huang,  Kerwin Hui,  
 B. C. Huynh,  M. Ivanov,  Hyunjun Ji,  Hanjie Jiang,  B. Kaduk,  S. Kaehler,  
 K. Khistyaev,  Jaehoon Kim,  P. Klunzinger,  Z. Koczor-Benda,  
 Joong Hoon Koh,  D. Kosenkov,  L. Koulias,  T. Kowalczyk,  C. M. Krauter,  
 K. Kue,  A. Kunitsa,  T. Kus,  A. Landau,  K. V. Lawler,  D. Lefrancois,  
 S. Lehtola,  Rain Li,  Yi-Pei Li,  Jiashu Liang,  M. Liebenthal,  
 Hung-Hsuan Lin,  You-Sheng Lin,  Fenglai Liu,  Kuan-Yu Liu,  
 M. Loipersberger,  A. Luenser,  A. Manjanath,  P. Manohar,  E. Mansoor,  
 S. F. Manzer,  Shan-Ping Mao,  A. V. Marenich,  T. Markovich,  S. Mason,  
 S. A. Maurer,  P. F. McLaughlin,  M. F. S. J. Menger,  J.-M. Mewes,  
 S. A. Mewes,  P. Morgante,  J. W. Mullinax,  K. J. Oosterbaan,  G. Paran,  
 Alexander C. Paul,  Suranjan K. Paul,  F. Pavosevic,  Zheng Pei,  S. Prager,  
 E. I. Proynov,  E. Ramos,  B. Rana,  A. E. Rask,  A. Rettig,  R. M. Richard,  
 F. Rob,  E. Rossomme,  T. Scheele,  M. Scheurer,  M. Schneider,  
 N. Sergueev,  S. M. Sharada,  W. Skomorowski,  D. W. Small,  C. J. Stein,  
 Yu-Chuan Su,  E. J. Sundstrom,  Zhen Tao,  J. Thirman,  T. Tsuchimochi,  
 N. M. Tubman,  S. P. Veccham,  O. Vydrov,  J. Wenzel,  J. Witte,  A. Yamada,  
 Kun Yao,  S. Yeganeh,  S. R. Yost,  A. Zech,  Igor Ying Zhang,  Xing Zhang,  
 Yu Zhang,  D. Zuev,  A. Aspuru-Guzik,  A. T. Bell,  N. A. Besley,  
 K. B. Bravaya,  B. R. Brooks,  D. Casanova,  Jeng-Da Chai,  S. Coriani,  
 C. J. Cramer,  A. E. DePrince, III,  R. A. DiStasio Jr.,  A. Dreuw,  
 B. D. Dunietz,  T. R. Furlani,  W. A. Goddard III,  S. Grimme,  
 S. Hammes-Schiffer,  T. Head-Gordon,  W. J. Hehre,  Chao-Ping Hsu,  
 T.-C. Jagau,  Yousung Jung,  A. Klamt,  Jing Kong,  D. S. Lambrecht,  
 WanZhen Liang,  N. J. Mayhall,  C. W. McCurdy,  J. B. Neaton,  
 C. Ochsenfeld,  J. A. Parkhill,  R. Peverati,  V. A. Rassolov,  Yihan Shao,  
 L. V. Slipchenko,  T. Stauch,  R. P. Steele,  J. E. Subotnik,  
 A. J. W. Thom,  A. Tkatchenko,  D. G. Truhlar,  T. Van Voorhis,  
 T. A. Wesolowski,  K. B. Whaley,  H. L. Woodcock III,  P. M. Zimmerman,  
 S. Faraji,  P. M. W. Gill,  M. Head-Gordon,  J. M. Herbert,  A. I. Krylov

 Additional authors for Version 5.4.1: 
 S. Kotaru,  Shaozhi Li,  Xiangyuan Li,  F. Matz,  A. Molle,  Haisheng Ren,  
 Yingli Su,  Hung-Yi Tsai,  C. Utku,  Fang Wang

 Contributors to earlier versions of Q-Chem not listed above: 
 R. D. Adamson,  B. Austin,  R. Baer,  J. Baker,  G. J. O. Beran,  
 K. Brandhorst,  S. T. Brown,  E. F. C. Byrd,  A. K. Chakraborty,  
 G. K. L. Chan,  Chun-Min Chang,  Yunqing Chen,  C.-L. Cheng,  
 Siu Hung Chien,  D. M. Chipman,  D. L. Crittenden,  H. Dachsel,  
 R. J. Doerksen,  A. D. Dutoi,  R. G. Edgar,  J. Fosso-Tande,  
 L. Fusti-Molnar,  D. Ghosh,  A. Ghysels,  A. Golubeva-Zadorozhnaya,  
 J. Gonthier,  M. S. Gordon,  S. R. Gwaltney,  G. Hawkins,  J. E. Herr,  
 A. Heyden,  S. Hirata,  E. G. Hohenstein,  G. Kedziora,  F. J. Keil,  
 C. Kelley,  Jihan Kim,  R. A. King,  R. Z. Khaliullin,  P. P. Korambath,  
 W. Kurlancheek,  A. Laurent,  A. M. Lee,  M. S. Lee,  S. V. Levchenko,  
 Ching Yeh Lin,  D. Liotard,  E. Livshits,  R. C. Lochan,  I. Lotan,  
 L. A. Martinez-Martinez,  P. E. Maslen,  N. Nair,  D. P. O'Neill,  
 D. Neuhauser,  E. Neuscamman,  C. M. Oana,  R. Olivares-Amaya,  R. Olson,  
 T. M. Perrine,  B. Peters,  P. A. Pieniazek,  A. Prociuk,  Y. M. Rhee,  
 J. Ritchie,  M. A. Rohrdanz,  E. Rosta,  N. J. Russ,  H. F. Schaefer III,  
 M. W. Schmidt,  N. E. Schultz,  S. Sharma,  N. Shenvi,  C. D. Sherrill,  
 A. C. Simmonett,  A. Sodt,  T. Stein,  D. Stuck,  K. S. Thanthiriwatte,  
 V. Vanovschi,  L. Vogt,  Tao Wang,  A. Warshel,  M. A. Watson,  
 C. F. Williams,  Q. Wu,  X. Xu,  Jun Yang,  W. Zhang,  Yan Zhao

 Please cite Q-Chem as follows:
 Y. Shao et al., Mol. Phys. 113, 184-215 (2015)
 DOI: 10.1080/00268976.2014.952696

 Q-Chem 5.4.1 for Intel X86 EM64T Linux

 Parts of Q-Chem use Armadillo 9.800.1 (Horizon Scraper).
 http://arma.sourceforge.net/

 Q-Chem begins on Mon Mar 20 18:19:20 2023  

 Host: cpu186.baobab
0

     Scratch files written to /scratch/fum/qchem73362//
 Processing $rem in /home/share/wesolowski/qc5.aug2021.FDE/config/preferences:
 Processing $rem in /home/fum/.qchemrc:

 Checking the input file for inconsistencies... 	...done.

--------------------------------------------------------------
User input:
--------------------------------------------------------------
$comment
generated from CCJob.Templates
$end

$rem
sym_ignore = true
method = adc(2)
ee_states = 10
basis = cc-pVDZ
mem_static = 1024
mem_total = 40000
adc_davidson_maxiter = 900
adc_davidson_conv = 6
adc_print = 3
adc_prop_es = true
adc_prop_es2es = true
adc_prop_tpa = true
molden_format = True
state_analysis = true
print_orbitals = 15
gen_scfman = false
fde_export_density = true
fde_details = 3
$end

$molecule
0 1
H -0.026399656183707106 -0.2649489880617919 0.0638050651410031
C -1.114195631164442 -0.4899840111580266 -0.0020244603592764723
H -1.2834601385658928 -1.5873017115095476 -0.07650041835619746
C -2.008474756435481 0.3594076742579784 0.006271159859247605
H -1.8392520900343476 1.4567370406094706 0.08072708385618782
H -3.096281954516312 0.1343863175620421 -0.0594788678409165                     
$end
--------------------------------------------------------------
 ----------------------------------------------------------------
             Standard Nuclear Orientation (Angstroms)
    I     Atom           X                Y                Z
 ----------------------------------------------------------------
    1      H      -0.0263996562    -0.2649489881     0.0638050651
    2      C      -1.1141956312    -0.4899840112    -0.0020244604
    3      H      -1.2834601386    -1.5873017115    -0.0765004184
    4      C      -2.0084747564     0.3594076743     0.0062711599
    5      H      -1.8392520900     1.4567370406     0.0807270839
    6      H      -3.0962819545     0.1343863176    -0.0594788678
 ----------------------------------------------------------------
 Nuclear Repulsion Energy =          34.31074651 hartrees
 There are        8 alpha and        8 beta electrons
 Requested basis set is cc-pVDZ
 There are 24 shells and 48 basis functions
 Total memory of 40000 MB is distributed as follows: 
   MEM_STATIC is set to 1024 MB
   QALLOC/CCMAN JOB total memory use is  38976 MB
 Warning: actual memory use might exceed 40000 MB

 Total QAlloc Memory Limit  40000 MB
 Mega-Array Size      1001 MB
 MEM_STATIC part      1024 MB

                       Distance Matrix (Angstroms)
             H (  1)   C (  2)   H (  3)   C (  4)   H (  5)
   C (  2)  1.112778
   H (  3)  1.829892  1.112791
   C (  4)  2.078883  1.233398  2.078984
   H (  5)  2.500185  2.079009  3.098354  1.112795
   H (  6)  3.098200  2.078895  2.500164  1.112781  1.829862

 A cutoff of  1.0D-11 yielded    300 shell pairs
 There are      1220 function pairs (      1329 Cartesian)
 Smallest overlap matrix eigenvalue = 3.26E-03

 Scale SEOQF with 1.000000e-01/1.000000e-01/1.000000e+00

 Standard Electronic Orientation quadrupole field applied
 Nucleus-field energy     =     0.0000000021 hartrees
 Guess from superposition of atomic densities
 Warning:  Energy on first SCF cycle will be non-variational
 SAD guess density has 16.000000 electrons
 A restricted Hartree-Fock SCF calculation will be
 performed using Pulay DIIS extrapolation
 SCF converges when DIIS error is below 1.0E-08
 using 10 threads for integral computing
 -------------------------------------------------------
 OpenMP Integral computing Module                
 Release: version 1.0, May 2013, Q-Chem Inc. Pittsburgh 
 -------------------------------------------------------
 ---------------------------------------
  Cycle       Energy         DIIS Error
 ---------------------------------------
    1     -78.5559630316      1.09E-01
    2     -78.0016642650      7.68E-03
    3     -78.0236092667      2.12E-03
    4     -78.0253539341      7.33E-04
    5     -78.0255556165      6.31E-05
    6     -78.0255578693      1.03E-05
    7     -78.0255579425      1.93E-06
    8     -78.0255579449      1.75E-07
    9     -78.0255579449      1.82E-08
   10     -78.0255579449      2.41E-09 Convergence criterion met
 ---------------------------------------
 SCF time:  CPU 1.88 s  wall 2.79 s
 SCF   energy in the final basis set = -78.02555794
 Total energy in the final basis set = -78.02555794
Exporting Density Matrix to file 'Densmat_SCF.txt'.
Export successful
================================================================================
|                                                                              |
|                                 A D C  M A N                                 |
|                                                                              |
 ------------------------------------------------------------------------------ 
|                                                                              |
| Components:                                                                  |
|                                                                              |
| - libvmm - 1.3-trunk                                                         |
|   Authors:                                                                   |
|   Evgeny Epifanovsky, Ilya Kaliman                                           |
|                                                                              |
| - libtensor - 2.5-trunk                                                      |
|   Authors:                                                                   |
|   Evgeny Epifanovsky, Michael Wormit, Dmitry Zuev, Sam Manzer,               |
|   Ilya Kaliman                                                               |
|                                                                              |
| - libwfa - 1.1-trunk                                                         |
|   Authors:                                                                   |
|   Felix Plasser, Stefanie Mewes (Baeppler), Benjamin Thomitzni,              |
|   Michael Wormit, Feng Chen, Anna I. Krylov, Pavel Pokhilko                  |
|                                                                              |
| - libadc - 1.1-trunk                                                         |
|   Authors:                                                                   |
|   Michael Wormit, Adrian L. Dempwolff, Philipp H. P. Harbach,                |
|   Caroline Krauter, Dirk Rehn, Matthias Schneider, Jan Wenzel                |
|                                                                              |
| - adcman - 2.6-trunk                                                         |
|   Authors:                                                                   |
|   Michael Wormit, Adrian L. Dempwolff, Philipp H. P. Harbach,                |
|   Caroline Krauter, Daniel Lefrancois, Jan-Michael Mewes, Dirk Rehn,         |
|   Matthias Schneider, Jan Wenzel, Andreas Dreuw                              |
|                                                                              |
| Authors of earlier versions of ADCMAN:                                       |
| Andreas Dreuw, Jan Hendrik Starcke, Dirk Rehn, Michael Wormit                |
|                                                                              |
================================================================================

 Created directory /scratch/fum/qchem73362/plots
  Import QC data ...  CPU 0.00 s  wall 0.00 s

 Alpha MOs, Restricted
 -- Occupied --                  
-11.229 -11.226  -1.059  -0.774  -0.631  -0.607  -0.470  -0.402
  1 A     2 A     3 A     4 A     5 A     6 A     7 A     8 A                  
 -- Virtual --                   
  0.191   0.205   0.222   0.233   0.310   0.488   0.563   0.601
  9 A    10 A    11 A    12 A    13 A    14 A    15 A    16 A                  
  0.665   0.710   0.794   0.819   0.838   0.937   1.005   1.026
 17 A    18 A    19 A    20 A    21 A    22 A    23 A    24 A                  
  1.124   1.218   1.281   1.295   1.310   1.560   1.780   1.783
 25 A    26 A    27 A    28 A    29 A    30 A    31 A    32 A                  
  1.817   1.859   1.885   1.894   1.919   2.010   2.303   2.303
 33 A    34 A    35 A    36 A    37 A    38 A    39 A    40 A                  
  2.354   2.400   2.505   2.639   2.777   2.826   3.080   3.496
 41 A    42 A    43 A    44 A    45 A    46 A    47 A    48 A                  

 Beta MOs, Restricted
 -- Occupied --                  
-11.229 -11.226  -1.059  -0.774  -0.631  -0.607  -0.470  -0.402
  1 A     2 A     3 A     4 A     5 A     6 A     7 A     8 A                  
 -- Virtual --                   
  0.191   0.205   0.222   0.233   0.310   0.488   0.563   0.601
  9 A    10 A    11 A    12 A    13 A    14 A    15 A    16 A                  
  0.665   0.710   0.794   0.819   0.838   0.937   1.005   1.026
 17 A    18 A    19 A    20 A    21 A    22 A    23 A    24 A                  
  1.124   1.218   1.281   1.295   1.310   1.560   1.780   1.783
 25 A    26 A    27 A    28 A    29 A    30 A    31 A    32 A                  
  1.817   1.859   1.885   1.894   1.919   2.010   2.303   2.303
 33 A    34 A    35 A    36 A    37 A    38 A    39 A    40 A                  
  2.354   2.400   2.505   2.639   2.777   2.826   3.080   3.496
 41 A    42 A    43 A    44 A    45 A    46 A    47 A    48 A                  
  Import AO data ...  CPU 0.00 s  wall 0.01 s
  Using point group: C1
  Irreducible representations in point group: A
  Molecular orbitals: 
  Occupied MOs:
  Block   0:   1 (  A) A   2 (  A) A   3 (  A) A   4 (  A) A   5 (  A) A
                  -11.23      -11.23      -1.059     -0.7743      -0.631
               6 (  A) A   7 (  A) A   8 (  A) A
                 -0.6074     -0.4697     -0.4016
  Block   1:   1 (  A) B   2 (  A) B   3 (  A) B   4 (  A) B   5 (  A) B
                  -11.23      -11.23      -1.059     -0.7743      -0.631
               6 (  A) B   7 (  A) B   8 (  A) B
                 -0.6074     -0.4697     -0.4016
  Virtual MOs:
  Block   0:   9 (  A) A  10 (  A) A  11 (  A) A  12 (  A) A  13 (  A) A
                  0.1912      0.2047      0.2225      0.2333      0.3102
              14 (  A) A  15 (  A) A  16 (  A) A  17 (  A) A  18 (  A) A
                  0.4879       0.563      0.6009      0.6647      0.7101
              19 (  A) A  20 (  A) A  21 (  A) A  22 (  A) A
                  0.7943      0.8191      0.8381      0.9372
  Block   1:  23 (  A) A  24 (  A) A  25 (  A) A  26 (  A) A  27 (  A) A
                   1.005       1.026       1.124       1.218       1.281
              28 (  A) A  29 (  A) A  30 (  A) A  31 (  A) A  32 (  A) A
                   1.295        1.31        1.56        1.78       1.783
              33 (  A) A  34 (  A) A  35 (  A) A  36 (  A) A
                   1.817       1.859       1.885       1.894
  Block   2:  37 (  A) A  38 (  A) A  39 (  A) A  40 (  A) A  41 (  A) A
                   1.919        2.01       2.303       2.303       2.354
              42 (  A) A  43 (  A) A  44 (  A) A  45 (  A) A  46 (  A) A
                     2.4       2.505       2.639       2.777       2.826
              47 (  A) A  48 (  A) A
                    3.08       3.496
  Block   3:   9 (  A) B  10 (  A) B  11 (  A) B  12 (  A) B  13 (  A) B
                  0.1912      0.2047      0.2225      0.2333      0.3102
              14 (  A) B  15 (  A) B  16 (  A) B  17 (  A) B  18 (  A) B
                  0.4879       0.563      0.6009      0.6647      0.7101
              19 (  A) B  20 (  A) B  21 (  A) B  22 (  A) B
                  0.7943      0.8191      0.8381      0.9372
  Block   4:  23 (  A) B  24 (  A) B  25 (  A) B  26 (  A) B  27 (  A) B
                   1.005       1.026       1.124       1.218       1.281
              28 (  A) B  29 (  A) B  30 (  A) B  31 (  A) B  32 (  A) B
                   1.295        1.31        1.56        1.78       1.783
              33 (  A) B  34 (  A) B  35 (  A) B  36 (  A) B
                   1.817       1.859       1.885       1.894
  Block   5:  37 (  A) B  38 (  A) B  39 (  A) B  40 (  A) B  41 (  A) B
                   1.919        2.01       2.303       2.303       2.354
              42 (  A) B  43 (  A) B  44 (  A) B  45 (  A) B  46 (  A) B
                     2.4       2.505       2.639       2.777       2.826
              47 (  A) B  48 (  A) B
                    3.08       3.496
  Import MO data ...  CPU 0.14 s  wall 0.06 s
  Import HF data ...  CPU 0.78 s  wall 0.23 s
  Import 2e integrals ...  CPU 1.40 s  wall 0.25 s

--------------------------------------------------------------------------------
                                   HF Summary                                   
--------------------------------------------------------------------------------
  Energy:                                                  -78.0255579449 a.u.
  Dip. moment [a.u.]:                  [  -0.000004,    0.000001,    0.000016]
  Total dipole [Debye]:                                               0.000041
  <r^2> [a.u.]:                        [ 174.376213,   33.971271,   11.430306]
  Total <r^2> [a.u.]:                                               219.777790
--------------------------------------------------------------------------------
  HF properties ...  CPU 0.04 s  wall 0.02 s
  MP(1) calculation ...  CPU 0.01 s  wall 0.01 s
  N^6 prerequesite intermediates ...  CPU 0.57 s  wall 0.10 s
  Difference density matrix of state mp2_gs printed to ASCII file 'State_mp2_gs_Difference.txt'
Exporting MP density matrix to file 'Densmat_MP.txt'.
Export successful
  Total density matrix of state mp2_gs printed to ASCII file 'State_mp2_gs_Total.txt'
Exporting MP density matrix to file 'Densmat_MP.txt'.
Export successful

--------------------------------------------------------------------------------
                                 MP(2) Summary                                  
--------------------------------------------------------------------------------
  MP energy contribution:                                   -0.2761794582 a.u.
  Total energy:                                            -78.3017374032 a.u.
  Dip. moment [a.u.]:                  [  -0.000004,    0.000001,    0.000015]
  Total dipole [Debye]:                                               0.000040
  <r^2> [a.u.]:                        [ 174.426617,   34.016990,   11.318559]
  Total <r^2> [a.u.]:                                               219.762166

  Density matrix analysis:
  ------------------------
  NOs
    Occupation of frontier NOs:
       0.0379   1.9448
    Number of electrons: 16.000000
    Number of unpaired electrons: n_u =  0.38917, n_u,nl =  0.03983
    NO participation ratio (PR_NO): 14.668242
  
  
  Mulliken Population Analysis
  Atom      Charge (e)              h+              e-           Del q
  --------------------------------------------------------------------
   1 H        0.050139        0.013949       -0.011343        0.002606
   2 C       -0.100285        0.087420       -0.092630       -0.005210
   3 H        0.050154        0.013948       -0.011343        0.002605
   4 C       -0.100298        0.087420       -0.092631       -0.005212
   5 H        0.050152        0.013948       -0.011343        0.002605
   6 H        0.050137        0.013949       -0.011343        0.002606
  --------------------------------------------------------------------
  Sum:       -0.000000        0.230633       -0.230633        0.000000
  
  Multipole moment analysis of the density matrix
    Molecular charge:                      -0.000000
    Number of electrons:                   16.000000
      Center of electronic charge [Ang]: [ -1.561338,  -0.065287,   0.002127]
    Total nuclear charge:                  16.000000
      Center of nuclear charge [Ang]:    [ -1.561339,  -0.065287,   0.002127]
    Dipole moment [D]:                     0.000040
      Cartesian components [D]:          [ -0.000010,   0.000003,   0.000039]
    RMS size of the density [Ang]:         1.184983
      Cartesian components [Ang]:        [  0.784219,   0.768827,   0.445074]
  
  Exciton analysis of the difference density matrix
    <r_h> [Ang]:                  [ -1.561339,  -0.065286,   0.002124]
    <r_e> [Ang]:                  [ -1.561339,  -0.065285,   0.002125]
    |<r_e - r_h>| [Ang]:            0.000001
    Hole size [Ang]:                1.370181
      Cartesian components [Ang]: [  0.845959,   0.834146,   0.682606]
    Electron size [Ang]:            1.363242
      Cartesian components [Ang]: [  0.881388,   0.866782,   0.574692]
--------------------------------------------------------------------------------
  MP(2) calculation ...  CPU 0.40 s  wall 0.23 s
  Start ADC(2)-s ...  CPU 0.02 s  wall 0.01 s
  ADC(2) intermediates ...  CPU 0.04 s  wall 0.01 s
  Starting Davidson for singlet states of irrep A ... 
--------------------------------------------------------------------------------
   It NVec Conv  Avg. Norm  Max. Norm  Conv. states           Remark
--------------------------------------------------------------------------------
        10    0  1.324e-01  4.760e-01  0.4237 n n n n n n n n Guess.
    1   20    0  3.995e-02  3.107e-01  0.3297 n n n n n n n n 
    2   30    0  6.990e-03  4.133e-02  0.3277 n n n n n n n n 
    3   40    0  2.301e-03  1.360e-02  0.3275 n n n n n n n n 
    4   50    0  8.496e-04  5.729e-03  0.3275 n n n n n n n n 
    5   20    0  4.911e-04  3.676e-03  0.3275 n n n n n n n n Subspace collapsed.
    6   30    0  7.862e-03  7.860e-02  0.3275 n n n n n n n n 
    7   40    0  4.237e-03  4.237e-02  0.3275 n n n n n n n n 
    8   50    0  1.063e-03  1.062e-02  0.3275 n n n n n n n n 
    9   20    1  3.448e-04  3.430e-03  0.3275 y n n n n n n n Subspace collapsed.
   10   30    4  2.444e-04  2.429e-03  0.3275 y n y y y n n n 
   11   40    4  1.148e-04  1.144e-03  0.3275 y n y y y n n n 
   12   50    6  2.780e-05  2.758e-04  0.3275 y y y y y n n y 
   13   20    7  1.689e-05  1.669e-04  0.3275 y y y y y y n y Subspace collapsed.
   14   30    7  1.852e-05  1.836e-04  0.3275 y y y y y y n y 
   15   40    7  2.077e-05  2.070e-04  0.3275 y y y y y y n y 
   16   50    8  2.326e-05  2.325e-04  0.3275 y y y y y y y y 
   17   20    8  1.809e-05  1.809e-04  0.3275 y y y y y y y y Subspace collapsed.
   18   30    8  1.104e-05  1.104e-04  0.3275 y y y y y y y y 
   19   40    8  8.792e-06  8.791e-05  0.3275 y y y y y y y y 
   20   50    9  9.655e-06  9.655e-05  0.3275 y y y y y y y y 
   21   19    9  6.734e-06  6.734e-05  0.3275 y y y y y y y y Subspace collapsed.
   22   28    9  7.361e-06  7.361e-05  0.3275 y y y y y y y y 
   23   36    9  8.041e-06  8.041e-05  0.3275 y y y y y y y y 
   24   43    9  7.911e-06  7.911e-05  0.3275 y y y y y y y y 
   25   49    9  6.259e-06  6.259e-05  0.3275 y y y y y y y y 
   26   50    9  6.163e-06  6.163e-05  0.3275 y y y y y y y y 
   27   15    9  3.010e-06  3.010e-05  0.3275 y y y y y y y y Subspace collapsed.
   28   20    9  2.077e-06  2.077e-05  0.3275 y y y y y y y y 
   29   25    9  1.486e-06  1.486e-05  0.3275 y y y y y y y y 
   30   30    9  1.155e-06  1.155e-05  0.3275 y y y y y y y y 
   31   35    9  1.135e-06  1.135e-05  0.3275 y y y y y y y y 
   32   39    9  1.143e-06  1.143e-05  0.3275 y y y y y y y y 
   33   43    9  7.296e-07  7.296e-06  0.3275 y y y y y y y y 
   34   47    9  4.961e-07  4.961e-06  0.3275 y y y y y y y y 
   35   48    9  4.431e-07  4.431e-06  0.3275 y y y y y y y y 
   36   48    9  4.431e-07  4.431e-06  0.3275 y y y y y y y y 
   37   50    9  4.407e-07  4.407e-06  0.3275 y y y y y y y y 
   38   13    9  2.190e-07  2.190e-06  0.3275 y y y y y y y y Subspace collapsed.
   39   15    9  1.806e-07  1.806e-06  0.3275 y y y y y y y y 
   40   17    9  1.571e-07  1.571e-06  0.3275 y y y y y y y y 
   41   19    9  1.013e-07  1.013e-06  0.3275 y y y y y y y y 
   42   21   10  7.773e-08  7.773e-07  0.3275 y y y y y y y y Converged.
--------------------------------------------------------------------------------
  Davidson Summary: 
 ------------------------------------------------------------
  State  0: excitation energy =   0.3275 a.u.   (converged)
  State  1: excitation energy =   0.3544 a.u.   (converged)
  State  2: excitation energy =   0.3557 a.u.   (converged)
  State  3: excitation energy =   0.3606 a.u.   (converged)
  State  4: excitation energy =   0.3899 a.u.   (converged)
  State  5: excitation energy =   0.3999 a.u.   (converged)
  State  6: excitation energy =   0.4261 a.u.   (converged)
  State  7: excitation energy =   0.4289 a.u.   (converged)
  State  8: excitation energy =   0.4394 a.u.   (converged)
  State  9: excitation energy =   0.4641 a.u.   (converged)
 ------------------------------------------------------------

  Singlet states of irrep A ...  CPU 235.91 s  wall 73.15 s
  TDMs ...  CPU 2.24 s  wall 0.84 s
  SDMs ...  CPU 5.03 s  wall 1.53 s
  Starting TPA DIIS iterations ... 
------------------------------------ 
   It     Res. Norm  Remark
------------------------------------
                       Guess.
    1     2.964e+00  
    2     3.518e+00  
    3     8.232e-01  
    4     1.752e-01  
    5     2.881e-02  
    6     1.251e-02  
    7     3.868e-03  
    8     9.825e-04  
    9     4.078e-04  
   10     6.201e-05  
   11     2.673e-05  
   12     4.165e-06  
   13     1.881e-06  
   14     3.992e-07  Converged.
   ... Converged in 14 steps (norm: 3.99228e-07)
------------------------------------
  Starting TPA DIIS iterations ... 
------------------------------------ 
   It     Res. Norm  Remark
------------------------------------
                       Guess.
    1     2.834e+00  
    2     3.350e+00  
    3     7.907e-01  
    4     1.742e-01  
    5     2.897e-02  
    6     1.249e-02  
    7     3.816e-03  
    8     9.731e-04  
    9     4.049e-04  
   10     6.096e-05  
   11     2.647e-05  
   12     4.194e-06  
   13     1.882e-06  
   14     4.015e-07  Converged.
   ... Converged in 14 steps (norm: 4.01452e-07)
------------------------------------
  Starting TPA DIIS iterations ... 
------------------------------------ 
   It     Res. Norm  Remark
------------------------------------
                       Guess.
    1     6.504e-01  
    2     4.291e-01  
    3     1.435e-01  
    4     3.714e-02  
    5     1.403e-02  
    6     5.581e-03  
    7     8.612e-04  
    8     3.581e-04  
    9     9.949e-05  
   10     2.249e-05  
   11     4.690e-06  
   12     2.168e-06  
   13     6.480e-07  Converged.
   ... Converged in 13 steps (norm: 6.48028e-07)
------------------------------------
  Starting TPA DIIS iterations ... 
------------------------------------ 
   It     Res. Norm  Remark
------------------------------------
                       Guess.
    1     3.324e+00  
    2     4.116e+00  
    3     9.476e-01  
    4     2.134e-01  
    5     3.614e-02  
    6     1.659e-02  
    7     5.210e-03  
    8     1.376e-03  
    9     5.787e-04  
   10     9.132e-05  
   11     3.962e-05  
   12     6.081e-06  
   13     2.771e-06  
   14     5.849e-07  Converged.
   ... Converged in 14 steps (norm: 5.849e-07)
------------------------------------
  Starting TPA DIIS iterations ... 
------------------------------------ 
   It     Res. Norm  Remark
------------------------------------
                       Guess.
    1     3.175e+00  
    2     3.919e+00  
    3     9.096e-01  
    4     2.117e-01  
    5     3.634e-02  
    6     1.655e-02  
    7     5.133e-03  
    8     1.365e-03  
    9     5.752e-04  
   10     8.991e-05  
   11     3.929e-05  
   12     6.123e-06  
   13     2.781e-06  
   14     5.891e-07  Converged.
   ... Converged in 14 steps (norm: 5.89128e-07)
------------------------------------
  Starting TPA DIIS iterations ... 
------------------------------------ 
   It     Res. Norm  Remark
------------------------------------
                       Guess.
    1     6.762e-01  
    2     4.619e-01  
    3     1.612e-01  
    4     4.572e-02  
    5     1.713e-02  
    6     6.762e-03  
    7     1.100e-03  
    8     5.046e-04  
    9     1.382e-04  
   10     2.879e-05  
   11     6.527e-06  
   12     3.287e-06  
   13     9.750e-07  Converged.
   ... Converged in 13 steps (norm: 9.74965e-07)
------------------------------------
  Starting TPA DIIS iterations ... 
------------------------------------ 
   It     Res. Norm  Remark
------------------------------------
                       Guess.
    1     3.343e+00  
    2     4.149e+00  
    3     9.543e-01  
    4     2.156e-01  
    5     3.655e-02  
    6     1.682e-02  
    7     5.289e-03  
    8     1.399e-03  
    9     5.888e-04  
   10     9.307e-05  
   11     4.039e-05  
   12     6.196e-06  
   13     2.824e-06  
   14     5.961e-07  Converged.
   ... Converged in 14 steps (norm: 5.96072e-07)
------------------------------------
  Starting TPA DIIS iterations ... 
------------------------------------ 
   It     Res. Norm  Remark
------------------------------------
                       Guess.
    1     3.193e+00  
    2     3.950e+00  
    3     9.159e-01  
    4     2.138e-01  
    5     3.676e-02  
    6     1.679e-02  
    7     5.210e-03  
    8     1.388e-03  
    9     5.853e-04  
   10     9.164e-05  
   11     4.006e-05  
   12     6.239e-06  
   13     2.836e-06  
   14     6.005e-07  Converged.
   ... Converged in 14 steps (norm: 6.00468e-07)
------------------------------------
  Starting TPA DIIS iterations ... 
------------------------------------ 
   It     Res. Norm  Remark
------------------------------------
                       Guess.
    1     6.775e-01  
    2     4.636e-01  
    3     1.622e-01  
    4     4.621e-02  
    5     1.730e-02  
    6     6.827e-03  
    7     1.114e-03  
    8     5.133e-04  
    9     1.404e-04  
   10     2.913e-05  
   11     6.638e-06  
   12     3.355e-06  
   13     9.951e-07  Converged.
   ... Converged in 13 steps (norm: 9.95098e-07)
------------------------------------
  Starting TPA DIIS iterations ... 
------------------------------------ 
   It     Res. Norm  Remark
------------------------------------
                       Guess.
    1     3.419e+00  
    2     4.278e+00  
    3     9.804e-01  
    4     2.241e-01  
    5     3.821e-02  
    6     1.777e-02  
    7     5.601e-03  
    8     1.492e-03  
    9     6.294e-04  
   10     1.001e-04  
   11     4.348e-05  
   12     6.656e-06  
   13     3.040e-06  
   14     6.410e-07  Converged.
   ... Converged in 14 steps (norm: 6.40972e-07)
------------------------------------
  Starting TPA DIIS iterations ... 
------------------------------------ 
   It     Res. Norm  Remark
------------------------------------
                       Guess.
    1     3.265e+00  
    2     4.073e+00  
    3     9.409e-01  
    4     2.222e-01  
    5     3.842e-02  
    6     1.773e-02  
    7     5.516e-03  
    8     1.480e-03  
    9     6.259e-04  
   10     9.858e-05  
   11     4.313e-05  
   12     6.702e-06  
   13     3.054e-06  
   14     6.461e-07  Converged.
   ... Converged in 14 steps (norm: 6.46096e-07)
------------------------------------
  Starting TPA DIIS iterations ... 
------------------------------------ 
   It     Res. Norm  Remark
------------------------------------
                       Guess.
    1     6.825e-01  
    2     4.702e-01  
    3     1.659e-01  
    4     4.816e-02  
    5     1.795e-02  
    6     7.083e-03  
    7     1.169e-03  
    8     5.485e-04  
    9     1.494e-04  
   10     3.049e-05  
   11     7.083e-06  
   12     3.632e-06  
   13     1.076e-06  
   14     4.714e-07  Converged.
   ... Converged in 14 steps (norm: 4.71415e-07)
------------------------------------
  Starting TPA DIIS iterations ... 
------------------------------------ 
   It     Res. Norm  Remark
------------------------------------
                       Guess.
    1     3.932e+00  
    2     5.173e+00  
    3     1.157e+00  
    4     2.866e-01  
    5     5.033e-02  
    6     2.489e-02  
    7     7.956e-03  
    8     2.202e-03  
    9     9.429e-04  
   10     1.547e-04  
   11     6.743e-05  
   12     1.025e-05  
   13     4.731e-06  
   14     1.001e-06  
   15     3.722e-07  Converged.
   ... Converged in 15 steps (norm: 3.72231e-07)
------------------------------------
  Starting TPA DIIS iterations ... 
------------------------------------ 
   It     Res. Norm  Remark
------------------------------------
                       Guess.
    1     3.752e+00  
    2     4.922e+00  
    3     1.109e+00  
    4     2.831e-01  
    5     5.058e-02  
    6     2.484e-02  
    7     7.827e-03  
    8     2.188e-03  
    9     9.394e-04  
   10     1.526e-04  
   11     6.700e-05  
   12     1.033e-05  
   13     4.780e-06  
   14     1.015e-06  
   15     3.816e-07  Converged.
   ... Converged in 15 steps (norm: 3.81643e-07)
------------------------------------
  Starting TPA DIIS iterations ... 
------------------------------------ 
   It     Res. Norm  Remark
------------------------------------
                       Guess.
    1     7.134e-01  
    2     5.128e-01  
    3     1.903e-01  
    4     6.263e-02  
    5     2.226e-02  
    6     8.910e-03  
    7     1.583e-03  
    8     8.180e-04  
    9     2.142e-04  
   10     4.013e-05  
   11     1.061e-05  
   12     5.855e-06  
   13     1.738e-06  
   14     7.754e-07  Converged.
   ... Converged in 14 steps (norm: 7.75359e-07)
------------------------------------
  Starting TPA DIIS iterations ... 
------------------------------------ 
   It     Res. Norm  Remark
------------------------------------
                       Guess.
    1     4.139e+00  
    2     5.543e+00  
    3     1.227e+00  
    4     3.140e-01  
    5     5.565e-02  
    6     2.811e-02  
    7     9.021e-03  
    8     2.526e-03  
    9     1.088e-03  
   10     1.800e-04  
   11     7.843e-05  
   12     1.193e-05  
   13     5.514e-06  
   14     1.175e-06  
   15     4.356e-07  Converged.
   ... Converged in 15 steps (norm: 4.35601e-07)
------------------------------------
  Starting TPA DIIS iterations ... 
------------------------------------ 
   It     Res. Norm  Remark
------------------------------------
                       Guess.
    1     3.948e+00  
    2     5.274e+00  
    3     1.177e+00  
    4     3.099e-01  
    5     5.591e-02  
    6     2.805e-02  
    7     8.872e-03  
    8     2.512e-03  
    9     1.085e-03  
   10     1.777e-04  
   11     7.799e-05  
   12     1.202e-05  
   13     5.583e-06  
   14     1.195e-06  
   15     4.481e-07  Converged.
   ... Converged in 15 steps (norm: 4.48114e-07)
------------------------------------
  Starting TPA DIIS iterations ... 
------------------------------------ 
   It     Res. Norm  Remark
------------------------------------
                       Guess.
    1     7.246e-01  
    2     5.290e-01  
    3     1.999e-01  
    4     6.907e-02  
    5     2.395e-02  
    6     9.699e-03  
    7     1.771e-03  
    8     9.384e-04  
    9     2.418e-04  
   10     4.432e-05  
   11     1.228e-05  
   12     6.917e-06  
   13     2.061e-06  
   14     9.306e-07  Converged.
   ... Converged in 14 steps (norm: 9.30553e-07)
------------------------------------
  Starting TPA DIIS iterations ... 
------------------------------------ 
   It     Res. Norm  Remark
------------------------------------
                       Guess.
    1     4.776e+00  
    2     6.717e+00  
    3     1.443e+00  
    4     4.073e-01  
    5     7.354e-02  
    6     3.922e-02  
    7     1.271e-02  
    8     3.662e-03  
    9     1.599e-03  
   10     2.699e-04  
   11     1.161e-04  
   12     1.790e-05  
   13     8.124e-06  
   14     1.824e-06  
   15     6.450e-07  Converged.
   ... Converged in 15 steps (norm: 6.45014e-07)
------------------------------------
  Starting TPA DIIS iterations ... 
------------------------------------ 
   It     Res. Norm  Remark
------------------------------------
                       Guess.
    1     4.552e+00  
    2     6.389e+00  
    3     1.382e+00  
    4     4.002e-01  
    5     7.382e-02  
    6     3.916e-02  
    7     1.249e-02  
    8     3.649e-03  
    9     1.598e-03  
   10     2.669e-04  
   11     1.157e-04  
   12     1.806e-05  
   13     8.300e-06  
   14     1.871e-06  
   15     6.735e-07  Converged.
   ... Converged in 15 steps (norm: 6.73545e-07)
------------------------------------
  Starting TPA DIIS iterations ... 
------------------------------------ 
   It     Res. Norm  Remark
------------------------------------
                       Guess.
    1     7.557e-01  
    2     5.761e-01  
    3     2.289e-01  
    4     9.112e-02  
    5     2.914e-02  
    6     1.234e-02  
    7     2.429e-03  
    8     1.329e-03  
    9     3.296e-04  
   10     5.883e-05  
   11     1.833e-05  
   12     1.076e-05  
   13     3.275e-06  
   14     1.535e-06  
   15     5.398e-07  Converged.
   ... Converged in 15 steps (norm: 5.39816e-07)
------------------------------------
  Starting TPA DIIS iterations ... 
------------------------------------ 
   It     Res. Norm  Remark
------------------------------------
                       Guess.
    1     4.854e+00  
    2     6.864e+00  
    3     1.470e+00  
    4     4.195e-01  
    5     7.588e-02  
    6     4.071e-02  
    7     1.320e-02  
    8     3.814e-03  
    9     1.668e-03  
   10     2.821e-04  
   11     1.209e-04  
   12     1.872e-05  
   13     8.448e-06  
   14     1.914e-06  
   15     6.708e-07  Converged.
   ... Converged in 15 steps (norm: 6.70786e-07)
------------------------------------
  Starting TPA DIIS iterations ... 
------------------------------------ 
   It     Res. Norm  Remark
------------------------------------
                       Guess.
    1     4.626e+00  
    2     6.528e+00  
    3     1.407e+00  
    4     4.121e-01  
    5     7.616e-02  
    6     4.064e-02  
    7     1.298e-02  
    8     3.802e-03  
    9     1.667e-03  
   10     2.789e-04  
   11     1.206e-04  
   12     1.889e-05  
   13     8.642e-06  
   14     1.966e-06  
   15     7.022e-07  Converged.
   ... Converged in 15 steps (norm: 7.02167e-07)
------------------------------------
  Starting TPA DIIS iterations ... 
------------------------------------ 
   It     Res. Norm  Remark
------------------------------------
                       Guess.
    1     7.591e-01  
    2     5.816e-01  
    3     2.323e-01  
    4     9.404e-02  
    5     2.978e-02  
    6     1.269e-02  
    7     2.518e-03  
    8     1.377e-03  
    9     3.406e-04  
   10     6.079e-05  
   11     1.916e-05  
   12     1.128e-05  
   13     3.447e-06  
   14     1.622e-06  
   15     5.754e-07  Converged.
   ... Converged in 15 steps (norm: 5.75353e-07)
------------------------------------
  Starting TPA DIIS iterations ... 
------------------------------------ 
   It     Res. Norm  Remark
------------------------------------
                       Guess.
    1     5.166e+00  
    2     7.458e+00  
    3     1.574e+00  
    4     4.706e-01  
    5     8.555e-02  
    6     4.689e-02  
    7     1.526e-02  
    8     4.452e-03  
    9     1.958e-03  
   10     3.333e-04  
   11     1.407e-04  
   12     2.223e-05  
   13     9.721e-06  
   14     2.297e-06  
   15     7.746e-07  Converged.
   ... Converged in 15 steps (norm: 7.74649e-07)
------------------------------------
  Starting TPA DIIS iterations ... 
------------------------------------ 
   It     Res. Norm  Remark
------------------------------------
                       Guess.
    1     4.922e+00  
    2     7.092e+00  
    3     1.507e+00  
    4     4.614e-01  
    5     8.584e-02  
    6     4.682e-02  
    7     1.499e-02  
    8     4.442e-03  
    9     1.959e-03  
   10     3.297e-04  
   11     1.405e-04  
   12     2.244e-05  
   13     9.997e-06  
   14     2.370e-06  
   15     8.197e-07  Converged.
   ... Converged in 15 steps (norm: 8.19698e-07)
------------------------------------
  Starting TPA DIIS iterations ... 
------------------------------------ 
   It     Res. Norm  Remark
------------------------------------
                       Guess.
    1     7.725e-01  
    2     6.031e-01  
    3     2.460e-01  
    4     1.062e-01  
    5     3.236e-02  
    6     1.413e-02  
    7     2.890e-03  
    8     1.568e-03  
    9     3.846e-04  
   10     6.905e-05  
   11     2.268e-05  
   12     1.349e-05  
   13     4.187e-06  
   14     1.996e-06  
   15     7.268e-07  Converged.
   ... Converged in 15 steps (norm: 7.26758e-07)
------------------------------------
  Starting TPA DIIS iterations ... 
------------------------------------ 
   It     Res. Norm  Remark
------------------------------------
                       Guess.
    1     6.045e+00  
    2     9.190e+00  
    3     1.866e+00  
    4     6.304e-01  
    5     1.154e-01  
    6     6.649e-02  
    7     2.178e-02  
    8     6.483e-03  
    9     2.890e-03  
   10     4.983e-04  
   11     1.958e-04  
   12     3.514e-05  
   13     1.316e-05  
   14     3.553e-06  
   15     1.294e-06  
   16     4.723e-07  Converged.
   ... Converged in 16 steps (norm: 4.72278e-07)
------------------------------------
  Starting TPA DIIS iterations ... 
------------------------------------ 
   It     Res. Norm  Remark
------------------------------------
                       Guess.
    1     5.756e+00  
    2     8.737e+00  
    3     1.785e+00  
    4     6.151e-01  
    5     1.157e-01  
    6     6.638e-02  
    7     2.140e-02  
    8     6.486e-03  
    9     2.899e-03  
   10     4.935e-04  
   11     1.967e-04  
   12     3.525e-05  
   13     1.368e-05  
   14     3.722e-06  
   15     1.381e-06  
   16     5.318e-07  Converged.
   ... Converged in 16 steps (norm: 5.31826e-07)
------------------------------------
  Starting TPA DIIS iterations ... 
------------------------------------ 
   It     Res. Norm  Remark
------------------------------------
                       Guess.
    1     8.057e-01  
    2     6.600e-01  
    3     2.836e-01  
    4     1.443e-01  
    5     3.991e-02  
    6     1.862e-02  
    7     4.088e-03  
    8     2.063e-03  
    9     5.113e-04  
   10     9.592e-05  
   11     3.430e-05  
   12     2.049e-05  
   13     6.680e-06  
   14     3.262e-06  
   15     1.220e-06  
   16     2.609e-07  Converged.
   ... Converged in 16 steps (norm: 2.60926e-07)
------------------------------------
  Two-photon absorbption ...  CPU 165.55 s  wall 44.53 s
  Transition density matrix of state singlet_A_1 printed to ASCII file 'State_singlet_A_1_Transition.txt'
  Transition density matrix of state singlet_A_2 printed to ASCII file 'State_singlet_A_2_Transition.txt'
  Transition density matrix of state singlet_A_3 printed to ASCII file 'State_singlet_A_3_Transition.txt'
  Transition density matrix of state singlet_A_4 printed to ASCII file 'State_singlet_A_4_Transition.txt'
  Transition density matrix of state singlet_A_5 printed to ASCII file 'State_singlet_A_5_Transition.txt'
  Transition density matrix of state singlet_A_6 printed to ASCII file 'State_singlet_A_6_Transition.txt'
  Transition density matrix of state singlet_A_7 printed to ASCII file 'State_singlet_A_7_Transition.txt'
  Transition density matrix of state singlet_A_8 printed to ASCII file 'State_singlet_A_8_Transition.txt'
  Transition density matrix of state singlet_A_9 printed to ASCII file 'State_singlet_A_9_Transition.txt'
  Transition density matrix of state singlet_A_10 printed to ASCII file 'State_singlet_A_10_Transition.txt'
  Transition properties ...  CPU 0.38 s  wall 0.60 s
  Difference density matrix of state singlet_A_1 printed to ASCII file 'State_singlet_A_1_Difference.txt'
  Total density matrix of state singlet_A_1 printed to ASCII file 'State_singlet_A_1_Total.txt'
  Difference density matrix of state singlet_A_2 printed to ASCII file 'State_singlet_A_2_Difference.txt'
  Total density matrix of state singlet_A_2 printed to ASCII file 'State_singlet_A_2_Total.txt'
  Difference density matrix of state singlet_A_3 printed to ASCII file 'State_singlet_A_3_Difference.txt'
  Total density matrix of state singlet_A_3 printed to ASCII file 'State_singlet_A_3_Total.txt'
  Difference density matrix of state singlet_A_4 printed to ASCII file 'State_singlet_A_4_Difference.txt'
  Total density matrix of state singlet_A_4 printed to ASCII file 'State_singlet_A_4_Total.txt'
  Difference density matrix of state singlet_A_5 printed to ASCII file 'State_singlet_A_5_Difference.txt'
  Total density matrix of state singlet_A_5 printed to ASCII file 'State_singlet_A_5_Total.txt'
  Difference density matrix of state singlet_A_6 printed to ASCII file 'State_singlet_A_6_Difference.txt'
  Total density matrix of state singlet_A_6 printed to ASCII file 'State_singlet_A_6_Total.txt'
  Difference density matrix of state singlet_A_7 printed to ASCII file 'State_singlet_A_7_Difference.txt'
  Total density matrix of state singlet_A_7 printed to ASCII file 'State_singlet_A_7_Total.txt'
  Difference density matrix of state singlet_A_8 printed to ASCII file 'State_singlet_A_8_Difference.txt'
  Total density matrix of state singlet_A_8 printed to ASCII file 'State_singlet_A_8_Total.txt'
  Difference density matrix of state singlet_A_9 printed to ASCII file 'State_singlet_A_9_Difference.txt'
  Total density matrix of state singlet_A_9 printed to ASCII file 'State_singlet_A_9_Total.txt'
  Difference density matrix of state singlet_A_10 printed to ASCII file 'State_singlet_A_10_Difference.txt'
  Total density matrix of state singlet_A_10 printed to ASCII file 'State_singlet_A_10_Total.txt'
  Properties ...  CPU 0.63 s  wall 0.86 s
  ISR TDMS ...  CPU 30.52 s  wall 9.43 s
  ISR transition properties ...  CPU 0.48 s  wall 0.23 s
  Sum-over-states TPA ...  CPU 0.00 s  wall 0.00 s

--------------------------------------------------------------------------------
                   State-averaged natural transition orbitals
--------------------------------------------------------------------------------
--------------------------------------------------------------------------------
  SA-NTO decomposition ...  CPU 0.01 s  wall 0.03 s

--------------------------------------------------------------------------------
                             Excited State Summary
--------------------------------------------------------------------------------
--------------------------------------------------------------------------------

  Excited state 1 (singlet, A)                                     [converged]
  ----------------------------------------------------------------------------
  Term symbol:  2 (1) A                                     R^2 =  1.18582e-13

  Total energy:                                            -77.9742012278 a.u.
  Excitation energy:                                               8.912713 eV

  Osc. strength:                                                      0.000000
  Trans. dip. moment [a.u.]:           [  -0.000129,    0.000143,    0.000001]
  <i|r^2|0> [a.u.]:                    [   0.066943,    0.089010,   -0.156678]
  Two-photon absorption cross-section (SoS) [a.u.]:                  20.133561
  Two-photon absorption matrix (SoS) [a.u.]:
                                       |    0.105264    0.120582   -1.080799 |
                                       |    0.120582    0.137203   -1.135642 |
                                       |   -1.080799   -1.135642   -0.242467 |
  Two-photon absorption cross-section [a.u.]:                         0.166268
  Two-photon absorption matrix [a.u.]:
                                       |   -0.008305   -0.010893    0.098227 |
                                       |   -0.010893   -0.013728    0.103173 |
                                       |    0.098227    0.103173    0.022033 |

  Dip. moment [a.u.]:                  [  -0.000057,    0.000046,    0.000036]
  Total dipole [Debye]:                                               0.000208
  <r^2> [a.u.]:                        [ 173.360761,   32.903773,   13.133549]
  Total <r^2> [a.u.]:                                               219.398083

  V1^2 = 0.9574, V2^2 = 0.0426

  Important amplitudes:
      occ i     occ j     vir a      vir b          v   
    -----------------------------------------------------
     7 (A) A              9 (A) A                 0.6723
     8 (A) A             11 (A) A                -0.1392
     7 (A) A             20 (A) A                 0.0777
     5 (A) A   8 (A) B    9 (A) A    9 (A) B      0.0276
     8 (A) A             16 (A) A                 0.0274
     5 (A) A             28 (A) A                 0.0153
     8 (A) A             21 (A) A                -0.0153
     5 (A) A   7 (A) B    9 (A) A   16 (A) B      0.0137
     4 (A) A   7 (A) B    9 (A) A   19 (A) B      0.0137
     7 (A) A   8 (A) B   20 (A) A   17 (A) B     -0.0108
     6 (A) A   7 (A) B    9 (A) A   18 (A) B     -0.0097
     7 (A) A   8 (A) A    9 (A) A   28 (A) A      0.0095
     5 (A) A   8 (A) B    9 (A) A   20 (A) B      0.0094
     4 (A) A   6 (A) B    9 (A) A   16 (A) B      0.0089
     8 (A) A   7 (A) B    9 (A) A   28 (A) B     -0.0082
     4 (A) A   5 (A) A    9 (A) A   10 (A) A      0.0081
     5 (A) A   6 (A) A    9 (A) A   24 (A) A      0.0079
     5 (A) A   7 (A) A    9 (A) A   16 (A) A      0.0079
     3 (A) A   7 (A) B    9 (A) A   18 (A) B      0.0076
     4 (A) A   7 (A) B   19 (A) A    9 (A) B      0.0076
     4 (A) A   5 (A) B    9 (A) A   18 (A) B     -0.0075
     5 (A) A   5 (A) B    9 (A) A   13 (A) B      0.0074
     5 (A) A   6 (A) B    9 (A) A   24 (A) B      0.0074
     4 (A) A   8 (A) B    9 (A) A   25 (A) B      0.0074
     5 (A) A   6 (A) A    9 (A) A   14 (A) A      0.0070
     5 (A) A   8 (A) A    9 (A) A   20 (A) A      0.0069
     5 (A) A   7 (A) B   11 (A) A   20 (A) B     -0.0068
     7 (A) A   8 (A) B   17 (A) A   20 (A) B     -0.0068
     7 (A) A   7 (A) B   20 (A) A   22 (A) B      0.0068
     7 (A) A   8 (A) B   19 (A) A   18 (A) B      0.0066
     5 (A) A   6 (A) B    9 (A) A   19 (A) B      0.0064
     5 (A) A             38 (A) A                 0.0063
     4 (A) A   6 (A) B   16 (A) A    9 (A) B      0.0062
     6 (A) A   7 (A) B   18 (A) A    9 (A) B     -0.0062
     4 (A) A   7 (A) A    9 (A) A   19 (A) A      0.0061
     7 (A) A   7 (A) B   13 (A) A   20 (A) B     -0.0060
     4 (A) A   5 (A) B   10 (A) A    9 (A) B     -0.0059
     5 (A) A   7 (A) A   11 (A) A   20 (A) A     -0.0058
     4 (A) A   8 (A) A    9 (A) A   25 (A) A      0.0056
     6 (A) A   7 (A) A   15 (A) A   20 (A) A     -0.0054
    -----------------------------------------------------

  Density matrix analysis:
  ------------------------
  NOs
    Occupation of frontier NOs:
       0.9598   1.0448
    Number of electrons: 16.000000
    Number of unpaired electrons: n_u =  2.34715, n_u,nl =  2.05681
    NO participation ratio (PR_NO):  2.976999
  
  
  Mulliken Population Analysis
  Atom      Charge (e)              h+              e-           Del q
  --------------------------------------------------------------------
   1 H        0.157952        0.130019       -0.022206        0.107813
   2 C       -0.315879        0.265792       -0.481385       -0.215593
   3 H        0.157920        0.129975       -0.022209        0.107767
   4 C       -0.315887        0.265811       -0.481401       -0.215590
   5 H        0.157931        0.129985       -0.022207        0.107779
   6 H        0.157962        0.130031       -0.022206        0.107825
  --------------------------------------------------------------------
  Sum:       -0.000000        1.051615       -1.051615       -0.000000
  
  Multipole moment analysis of the density matrix
    Molecular charge:                      -0.000000
    Number of electrons:                   16.000000
      Center of electronic charge [Ang]: [ -1.561337,  -0.065288,   0.002126]
    Total nuclear charge:                  16.000000
      Center of nuclear charge [Ang]:    [ -1.561339,  -0.065287,   0.002127]
    Dipole moment [D]:                     0.000208
      Cartesian components [D]:          [ -0.000145,   0.000116,   0.000092]
    RMS size of the density [Ang]:         1.182294
      Cartesian components [Ang]:        [  0.772237,   0.756050,   0.479433]
  
  Exciton analysis of the difference density matrix
    <r_h> [Ang]:                  [ -1.561369,  -0.065262,   0.002129]
    <r_e> [Ang]:                  [ -1.561342,  -0.065284,   0.002119]
    |<r_e - r_h>| [Ang]:            0.000037
    Hole size [Ang]:                1.505405
      Cartesian components [Ang]: [  1.020951,   1.008495,   0.454797]
    Electron size [Ang]:            1.472879
      Cartesian components [Ang]: [  0.870978,   0.848898,   0.830749]

  Transition density matrix analysis:
  -----------------------------------
  
  CT numbers (Mulliken)
    omega =     0.9279
    <Phe> =    -0.0092
  
  Exciton analysis of the transition density matrix
    Trans. dipole moment [D]:             0.000245
      Cartesian components [D]:         [ -0.000164,   0.000182,   0.000001]
    <r_h> [Ang]:                        [ -1.561375,  -0.065257,   0.002132]
    <r_e> [Ang]:                        [ -1.561339,  -0.065287,   0.002116]
    |<r_e - r_h>| [Ang]:                  0.000049
    Hole size [Ang]:                      1.541697
      Cartesian components [Ang]:       [  1.049171,   1.036583,   0.448957]
    Electron size [Ang]:                  1.468286
      Cartesian components [Ang]:       [  0.858853,   0.835998,   0.848141]
    RMS electron-hole separation [Ang]:   2.108223
      Cartesian components [Ang]:       [  1.339130,   1.316031,   0.958852]
    Covariance(r_h, r_e) [Ang^2]:         0.044043
    Correlation coefficient:              0.019457
    Center-of-mass size [Ang]:            1.074800
      Cartesian components [Ang]:       [  0.686205,   0.673583,   0.480212]

  Decomposition into state-averaged NTOs
    H- 1 -> L+ 0:  0.6658 ( 88.7%)
    H- 0 -> L+ 2: -0.1394 (  3.9%)
                   omega =  92.8%
  ----------------------------------------------------------------------------


  Excited state 2 (singlet, A)                                     [converged]
  ----------------------------------------------------------------------------
  Term symbol:  3 (1) A                                     R^2 =  1.04736e-13

  Total energy:                                            -77.9473755551 a.u.
  Excitation energy:                                               9.642676 eV

  Osc. strength:                                                      0.454861
  Trans. dip. moment [a.u.]:           [   1.006135,   -0.955513,   -0.009903]
  <i|r^2|0> [a.u.]:                    [   5.937214,   -0.235757,    0.000041]
  Two-photon absorption cross-section (SoS) [a.u.]:                   0.000051
  Two-photon absorption matrix (SoS) [a.u.]:
                                       |    0.000246    0.000185   -0.001770 |
                                       |    0.000185    0.000196   -0.001750 |
                                       |   -0.001770   -0.001750   -0.000369 |
  Two-photon absorption cross-section [a.u.]:                         0.000021
  Two-photon absorption matrix [a.u.]:
                                       |    0.000109    0.000119   -0.001148 |
                                       |    0.000119    0.000066   -0.001101 |
                                       |   -0.001148   -0.001101   -0.000235 |

  Dip. moment [a.u.]:                  [   0.000001,    0.000004,    0.000014]
  Total dipole [Debye]:                                               0.000038
  <r^2> [a.u.]:                        [ 175.205468,   34.730408,   11.896140]
  Total <r^2> [a.u.]:                                               221.832016

  V1^2 = 0.9704, V2^2 = 0.0296

  Important amplitudes:
      occ i     occ j     vir a      vir b          v   
    -----------------------------------------------------
     8 (A) A              9 (A) A                 0.6805
     4 (A) A             10 (A) A                 0.0682
     7 (A) A             16 (A) A                -0.0679
     5 (A) A             13 (A) A                -0.0594
     6 (A) A             14 (A) A                -0.0428
     6 (A) A             24 (A) A                -0.0419
     6 (A) A             12 (A) A                 0.0313
     8 (A) A             20 (A) A                 0.0304
     3 (A) A             12 (A) A                -0.0262
     5 (A) A             22 (A) A                 0.0251
     4 (A) A             23 (A) A                 0.0205
     3 (A) A             27 (A) A                 0.0195
     6 (A) A             27 (A) A                 0.0190
     8 (A) A   8 (A) B   17 (A) A   20 (A) B     -0.0173
     8 (A) A   8 (A) B    9 (A) A   28 (A) B     -0.0161
     6 (A) A             19 (A) A                -0.0145
     7 (A) A             21 (A) A                -0.0141
     3 (A) A             14 (A) A                -0.0128
     3 (A) A   4 (A) B    9 (A) A    9 (A) B     -0.0122
     7 (A) A             11 (A) A                 0.0115
     7 (A) A             31 (A) A                -0.0103
     8 (A) A   8 (A) B   18 (A) A   19 (A) B      0.0101
     5 (A) A   8 (A) B   11 (A) A    9 (A) B      0.0096
     3 (A) A             19 (A) A                -0.0095
     7 (A) A             36 (A) A                -0.0092
     5 (A) A   8 (A) A    9 (A) A   11 (A) A     -0.0079
     6 (A) A             35 (A) A                -0.0074
     8 (A) A   8 (A) B   25 (A) A   29 (A) B     -0.0073
     6 (A) A   8 (A) B   15 (A) A    9 (A) B      0.0069
     5 (A) A   8 (A) B   16 (A) A    9 (A) B     -0.0066
     5 (A) A             26 (A) A                -0.0066
     7 (A) A   8 (A) B   13 (A) A   20 (A) B     -0.0064
     6 (A) A   8 (A) A    9 (A) A   15 (A) A     -0.0063
     3 (A) A   5 (A) B    9 (A) A   25 (A) B     -0.0061
     3 (A) A   6 (A) B    9 (A) A   28 (A) B     -0.0060
     7 (A) A   8 (A) B   22 (A) A   20 (A) B      0.0060
     6 (A) A             40 (A) A                 0.0059
     5 (A) A   7 (A) B    9 (A) A    9 (A) B      0.0059
     5 (A) A   8 (A) B   11 (A) A   20 (A) B     -0.0059
     3 (A) A             24 (A) A                -0.0058
    -----------------------------------------------------

  Density matrix analysis:
  ------------------------
  NOs
    Occupation of frontier NOs:
       0.9478   1.0242
    Number of electrons: 16.000000
    Number of unpaired electrons: n_u =  2.31327, n_u,nl =  2.03208
    NO participation ratio (PR_NO):  2.876333
  
  
  Mulliken Population Analysis
  Atom      Charge (e)              h+              e-           Del q
  --------------------------------------------------------------------
   1 H        0.063794        0.025489       -0.011834        0.013655
   2 C       -0.127595        0.496268       -0.523578       -0.027310
   3 H        0.063810        0.025491       -0.011835        0.013656
   4 C       -0.127610        0.496267       -0.523580       -0.027313
   5 H        0.063810        0.025491       -0.011833        0.013658
   6 H        0.063791        0.025489       -0.011836        0.013654
  --------------------------------------------------------------------
  Sum:       -0.000000        1.094496       -1.094496       -0.000000
  
  Multipole moment analysis of the density matrix
    Molecular charge:                      -0.000000
    Number of electrons:                   16.000000
      Center of electronic charge [Ang]: [ -1.561339,  -0.065287,   0.002127]
    Total nuclear charge:                  16.000000
      Center of nuclear charge [Ang]:    [ -1.561339,  -0.065287,   0.002127]
    Dipole moment [D]:                     0.000038
      Cartesian components [D]:          [  0.000002,   0.000011,   0.000036]
    RMS size of the density [Ang]:         1.200171
      Cartesian components [Ang]:        [  0.792862,   0.776905,   0.456288]
  
  Exciton analysis of the difference density matrix
    <r_h> [Ang]:                  [ -1.561336,  -0.065288,   0.002119]
    <r_e> [Ang]:                  [ -1.561339,  -0.065289,   0.002120]
    |<r_e - r_h>| [Ang]:            0.000003
    Hole size [Ang]:                1.276486
      Cartesian components [Ang]: [  0.726300,   0.712371,   0.770995]
    Electron size [Ang]:            1.469348
      Cartesian components [Ang]: [  0.852511,   0.830663,   0.861515]

  Transition density matrix analysis:
  -----------------------------------
  
  CT numbers (Mulliken)
    omega =     0.9522
    <Phe> =    -0.1324
  
  Exciton analysis of the transition density matrix
    Trans. dipole moment [D]:             1.763453
      Cartesian components [D]:         [  1.278670,  -1.214336,  -0.012586]
    <r_h> [Ang]:                        [ -1.561335,  -0.065289,   0.002120]
    <r_e> [Ang]:                        [ -1.561339,  -0.065289,   0.002118]
    |<r_e - r_h>| [Ang]:                  0.000005
    Hole size [Ang]:                      1.175534
      Cartesian components [Ang]:       [  0.622370,   0.611174,   0.788038]
    Electron size [Ang]:                  1.506782
      Cartesian components [Ang]:       [  0.870439,   0.846931,   0.891871]
    RMS electron-hole separation [Ang]:   1.917164
      Cartesian components [Ang]:       [  1.085489,   1.057311,   1.174447]
    Covariance(r_h, r_e) [Ang^2]:        -0.011623
    Correlation coefficient:             -0.006562
    Center-of-mass size [Ang]:            0.952500
      Cartesian components [Ang]:       [  0.527194,   0.515690,   0.602816]

  Decomposition into state-averaged NTOs
    H- 0 -> L+ 0: -0.6699 ( 89.8%)
                   omega =  95.2%
  ----------------------------------------------------------------------------


  Excited state 3 (singlet, A)                                     [converged]
  ----------------------------------------------------------------------------
  Term symbol:  4 (1) A                                     R^2 =  5.98008e-13

  Total energy:                                            -77.9460736831 a.u.
  Excitation energy:                                               9.678102 eV

  Osc. strength:                                                      0.022185
  Trans. dip. moment [a.u.]:           [   0.012534,    0.020429,   -0.304941]
  <i|r^2|0> [a.u.]:                    [   0.073524,    0.005452,    0.002459]
  Two-photon absorption cross-section (SoS) [a.u.]:                   0.000069
  Two-photon absorption matrix (SoS) [a.u.]:
                                       |   -0.002869   -0.000129   -0.000358 |
                                       |   -0.000129    0.002947   -0.000005 |
                                       |   -0.000358   -0.000005    0.000098 |
  Two-photon absorption cross-section [a.u.]:                         0.000040
  Two-photon absorption matrix [a.u.]:
                                       |   -0.002143   -0.000129   -0.000280 |
                                       |   -0.000129    0.002281    0.000019 |
                                       |   -0.000280    0.000019    0.000046 |

  Dip. moment [a.u.]:                  [   0.000226,    0.000216,   -0.000000]
  Total dipole [Debye]:                                               0.000794
  <r^2> [a.u.]:                        [ 180.108147,   39.809053,   10.962250]
  Total <r^2> [a.u.]:                                               230.879450

  V1^2 = 0.9555, V2^2 = 0.0445

  Important amplitudes:
      occ i     occ j     vir a      vir b          v   
    -----------------------------------------------------
     8 (A) A             10 (A) A                 0.6878
     8 (A) A             23 (A) A                 0.0521
     8 (A) A             18 (A) A                -0.0331
     4 (A) A              9 (A) A                 0.0257
     8 (A) A   8 (A) B    9 (A) A   12 (A) B     -0.0205
     5 (A) A   8 (A) B   11 (A) A   10 (A) B      0.0190
     8 (A) A   8 (A) B   10 (A) A   17 (A) B      0.0188
     7 (A) A   8 (A) B   13 (A) A   10 (A) B      0.0154
     6 (A) A   8 (A) A   10 (A) A   15 (A) A     -0.0127
     6 (A) A   8 (A) B   15 (A) A   10 (A) B      0.0123
     5 (A) A   8 (A) A   10 (A) A   11 (A) A     -0.0119
     4 (A) A   8 (A) B   12 (A) A   10 (A) B     -0.0119
     7 (A) A   8 (A) B   22 (A) A   10 (A) B     -0.0116
     4 (A) A   8 (A) A   10 (A) A   12 (A) A      0.0115
     7 (A) A   8 (A) A   10 (A) A   13 (A) A     -0.0108
     7 (A) A   8 (A) A   10 (A) A   22 (A) A      0.0107
     6 (A) A   8 (A) B   10 (A) A   10 (A) B     -0.0103
     5 (A) A   8 (A) B   21 (A) A   10 (A) B      0.0097
     7 (A) A   8 (A) A   12 (A) A   16 (A) A      0.0091
     5 (A) A   8 (A) A   10 (A) A   21 (A) A     -0.0084
     4 (A) A   8 (A) B   19 (A) A   10 (A) B     -0.0080
     3 (A) A   4 (A) B   10 (A) A    9 (A) B     -0.0077
     7 (A) A   8 (A) B   16 (A) A   12 (A) B     -0.0077
     8 (A) A   8 (A) B    9 (A) A   19 (A) B     -0.0074
     8 (A) A   8 (A) B   10 (A) A   28 (A) B     -0.0073
     5 (A) A   8 (A) B   10 (A) A   11 (A) B      0.0072
     3 (A) A   8 (A) A   10 (A) A   23 (A) A     -0.0070
     7 (A) A   8 (A) B   11 (A) A   12 (A) B      0.0068
     3 (A) A   8 (A) B   10 (A) A   18 (A) B     -0.0067
     3 (A) A   8 (A) B   10 (A) A   10 (A) B      0.0066
     6 (A) A   8 (A) A   10 (A) A   18 (A) A     -0.0065
     7 (A) A   8 (A) B   12 (A) A   11 (A) B      0.0063
     8 (A) A   8 (A) B    9 (A) A   24 (A) B      0.0063
     5 (A) A   8 (A) A   10 (A) A   16 (A) A      0.0063
     3 (A) A   5 (A) B   10 (A) A   25 (A) B     -0.0059
     6 (A) A             28 (A) A                 0.0059
     3 (A) A   6 (A) B   10 (A) A   28 (A) B     -0.0058
     4 (A) A             20 (A) A                 0.0058
     4 (A) A   8 (A) A   10 (A) A   24 (A) A     -0.0057
     5 (A) A   8 (A) B   16 (A) A   10 (A) B     -0.0055
    -----------------------------------------------------

  Density matrix analysis:
  ------------------------
  NOs
    Occupation of frontier NOs:
       0.9829   0.9855
    Number of electrons: 16.000000
    Number of unpaired electrons: n_u =  2.28874, n_u,nl =  2.02481
    NO participation ratio (PR_NO):  2.694911
  
  
  Mulliken Population Analysis
  Atom      Charge (e)              h+              e-           Del q
  --------------------------------------------------------------------
   1 H       -0.158597        0.058515       -0.267252       -0.208737
   2 C        0.317254        0.540832       -0.123292        0.417540
   3 H       -0.158650        0.058515       -0.267319       -0.208804
   4 C        0.317246        0.540831       -0.123288        0.417543
   5 H       -0.158575        0.058517       -0.267245       -0.208728
   6 H       -0.158677        0.058515       -0.267329       -0.208815
  --------------------------------------------------------------------
  Sum:       -0.000000        1.315726       -1.315726        0.000000
  
  Multipole moment analysis of the density matrix
    Molecular charge:                      -0.000000
    Number of electrons:                   16.000000
      Center of electronic charge [Ang]: [ -1.561346,  -0.065294,   0.002127]
    Total nuclear charge:                  16.000000
      Center of nuclear charge [Ang]:    [ -1.561339,  -0.065287,   0.002127]
    Dipole moment [D]:                     0.000794
      Cartesian components [D]:          [  0.000574,   0.000549,  -0.000000]
    RMS size of the density [Ang]:         1.264410
      Cartesian components [Ang]:        [  0.845229,   0.832145,   0.438012]
  
  Exciton analysis of the difference density matrix
    <r_h> [Ang]:                  [ -1.561341,  -0.065289,   0.002122]
    <r_e> [Ang]:                  [ -1.561434,  -0.065376,   0.002128]
    |<r_e - r_h>| [Ang]:            0.000127
    Hole size [Ang]:                1.392230
      Cartesian components [Ang]: [  0.825819,   0.812898,   0.771701]
    Electron size [Ang]:            2.074637
      Cartesian components [Ang]: [  1.375100,   1.376055,   0.720895]

  Transition density matrix analysis:
  -----------------------------------
  
  CT numbers (Mulliken)
    omega =     0.9258
    <Phe> =    -0.0099
  
  Exciton analysis of the transition density matrix
    Trans. dipole moment [D]:             0.388737
      Cartesian components [D]:         [  0.015929,   0.025962,  -0.387541]
    <r_h> [Ang]:                        [ -1.561334,  -0.065288,   0.002118]
    <r_e> [Ang]:                        [ -1.561469,  -0.065411,   0.002129]
    |<r_e - r_h>| [Ang]:                  0.000183
    Hole size [Ang]:                      1.169153
      Cartesian components [Ang]:       [  0.604516,   0.593716,   0.805593]
    Electron size [Ang]:                  2.313643
      Cartesian components [Ang]:       [  1.533204,   1.536207,   0.801436]
    RMS electron-hole separation [Ang]:   2.583836
      Cartesian components [Ang]:       [  1.641840,   1.641069,   1.134664]
    Covariance(r_h, r_e) [Ang^2]:         0.021828
    Correlation coefficient:              0.008070
    Center-of-mass size [Ang]:            1.300338
      Cartesian components [Ang]:       [  0.827144,   0.826401,   0.569012]

  Decomposition into state-averaged NTOs
    H- 0 -> L+ 1: -0.6797 ( 92.4%)
                   omega =  92.6%
  ----------------------------------------------------------------------------


  Excited state 4 (singlet, A)                                     [converged]
  ----------------------------------------------------------------------------
  Term symbol:  5 (1) A                                     R^2 =  3.05183e-13

  Total energy:                                            -77.9411062652 a.u.
  Excitation energy:                                               9.813272 eV

  Osc. strength:                                                      0.000000
  Trans. dip. moment [a.u.]:           [  -0.000881,    0.000828,    0.000032]
  <i|r^2|0> [a.u.]:                    [   0.004875,    0.013641,   -0.023513]
  Two-photon absorption cross-section (SoS) [a.u.]:                  72.245828
  Two-photon absorption matrix (SoS) [a.u.]:
                                       |    0.197954    0.228335   -2.046551 |
                                       |    0.228335    0.261362   -2.151973 |
                                       |   -2.046551   -2.151973   -0.459317 |
  Two-photon absorption cross-section [a.u.]:                        38.998702
  Two-photon absorption matrix [a.u.]:
                                       |    0.146120    0.167796   -1.503740 |
                                       |    0.167796    0.191343   -1.580988 |
                                       |   -1.503740   -1.580988   -0.337465 |

  Dip. moment [a.u.]:                  [  -0.000218,   -0.000228,   -0.000046]
  Total dipole [Debye]:                                               0.000809
  <r^2> [a.u.]:                        [ 179.762890,   39.367305,   10.551628]
  Total <r^2> [a.u.]:                                               229.681822

  V1^2 = 0.9634, V2^2 = 0.0366

  Important amplitudes:
      occ i     occ j     vir a      vir b          v   
    -----------------------------------------------------
     8 (A) A             11 (A) A                -0.6705
     7 (A) A              9 (A) A                -0.1418
     8 (A) A             21 (A) A                -0.0771
     8 (A) A             16 (A) A                 0.0766
     5 (A) A   8 (A) B   11 (A) A   11 (A) B     -0.0168
     8 (A) A   8 (A) B   11 (A) A   17 (A) B     -0.0142
     8 (A) A   8 (A) B    9 (A) A   13 (A) B      0.0141
     7 (A) A   8 (A) B   13 (A) A   11 (A) B     -0.0130
     7 (A) A             20 (A) A                -0.0124
     4 (A) A   8 (A) B   12 (A) A   11 (A) B      0.0113
     5 (A) A   8 (A) A   11 (A) A   21 (A) A      0.0112
     8 (A) A   8 (A) B    9 (A) A   22 (A) B     -0.0106
     6 (A) A   8 (A) B   15 (A) A   11 (A) B     -0.0098
     6 (A) A   8 (A) B   10 (A) A   11 (A) B      0.0097
     7 (A) A   8 (A) B   22 (A) A   11 (A) B      0.0093
     7 (A) A   8 (A) A   11 (A) A   22 (A) A     -0.0091
     6 (A) A   8 (A) A   11 (A) A   15 (A) A      0.0084
     7 (A) A   8 (A) A   13 (A) A   16 (A) A     -0.0081
     3 (A) A   4 (A) B   11 (A) A    9 (A) B      0.0081
     3 (A) A   8 (A) B   11 (A) A   18 (A) B      0.0079
     4 (A) A   8 (A) B   19 (A) A   11 (A) B      0.0077
     5 (A) A   8 (A) B   21 (A) A   11 (A) B     -0.0069
     7 (A) A   8 (A) A   11 (A) A   13 (A) A      0.0068
     3 (A) A   8 (A) B   11 (A) A   30 (A) B      0.0063
     7 (A) A   8 (A) B   11 (A) A   13 (A) B     -0.0062
     4 (A) A   8 (A) A   11 (A) A   12 (A) A     -0.0061
     8 (A) A   8 (A) B   20 (A) A   22 (A) B     -0.0058
     3 (A) A   5 (A) B   11 (A) A   25 (A) B      0.0057
     7 (A) A   8 (A) B   12 (A) A   10 (A) B     -0.0057
     3 (A) A   6 (A) B   11 (A) A   28 (A) B      0.0057
     5 (A) A   8 (A) B    9 (A) A    9 (A) B     -0.0056
     5 (A) A   8 (A) A   11 (A) A   16 (A) A     -0.0055
     6 (A) A   8 (A) B   11 (A) A   10 (A) B      0.0055
     7 (A) A   8 (A) B   16 (A) A   13 (A) B      0.0054
     8 (A) A   8 (A) B   17 (A) A   21 (A) B      0.0053
     3 (A) A   8 (A) A   11 (A) A   18 (A) A      0.0051
     3 (A) A   8 (A) A   11 (A) A   23 (A) A      0.0050
     7 (A) A   8 (A) A   16 (A) A   22 (A) A     -0.0050
     6 (A) A   8 (A) A   10 (A) A   16 (A) A      0.0047
     8 (A) A   8 (A) B   11 (A) A   28 (A) B      0.0042
    -----------------------------------------------------

  Density matrix analysis:
  ------------------------
  NOs
    Occupation of frontier NOs:
       0.9472   1.0239
    Number of electrons: 16.000000
    Number of unpaired electrons: n_u =  2.31407, n_u,nl =  2.04445
    NO participation ratio (PR_NO):  2.873801
  
  
  Mulliken Population Analysis
  Atom      Charge (e)              h+              e-           Del q
  --------------------------------------------------------------------
   1 H       -0.119963        0.044494       -0.214597       -0.170103
   2 C        0.240018        0.501756       -0.161452        0.340303
   3 H       -0.120048        0.044484       -0.214686       -0.170202
   4 C        0.240001        0.501757       -0.161458        0.340298
   5 H       -0.120125        0.044485       -0.214763       -0.170277
   6 H       -0.119881        0.044493       -0.214512       -0.170019
  --------------------------------------------------------------------
  Sum:       -0.000000        1.181468       -1.181468        0.000000
  
  Multipole moment analysis of the density matrix
    Molecular charge:                      -0.000000
    Number of electrons:                   16.000000
      Center of electronic charge [Ang]: [ -1.561331,  -0.065279,   0.002129]
    Total nuclear charge:                  16.000000
      Center of nuclear charge [Ang]:    [ -1.561339,  -0.065287,   0.002127]
    Dipole moment [D]:                     0.000809
      Cartesian components [D]:          [ -0.000553,  -0.000579,  -0.000116]
    RMS size of the density [Ang]:         1.256113
      Cartesian components [Ang]:        [  0.841674,   0.827488,   0.429730]
  
  Exciton analysis of the difference density matrix
    <r_h> [Ang]:                  [ -1.561332,  -0.065280,   0.002122]
    <r_e> [Ang]:                  [ -1.561236,  -0.065177,   0.002149]
    |<r_e - r_h>| [Ang]:            0.000143
    Hole size [Ang]:                1.357622
      Cartesian components [Ang]: [  0.793522,   0.781248,   0.776603]
    Electron size [Ang]:            2.048068
      Cartesian components [Ang]: [  1.376505,   1.370576,   0.649105]

  Transition density matrix analysis:
  -----------------------------------
  
  CT numbers (Mulliken)
    omega =     0.9319
    <Phe> =    -0.0183
  
  Exciton analysis of the transition density matrix
    Trans. dipole moment [D]:             0.001537
      Cartesian components [D]:         [ -0.001120,   0.001052,   0.000041]
    <r_h> [Ang]:                        [ -1.561337,  -0.065287,   0.002118]
    <r_e> [Ang]:                        [ -1.561217,  -0.065154,   0.002154]
    |<r_e - r_h>| [Ang]:                  0.000182
    Hole size [Ang]:                      1.185495
      Cartesian components [Ang]:       [  0.629160,   0.618339,   0.791968]
    Electron size [Ang]:                  2.181739
      Cartesian components [Ang]:       [  1.466893,   1.461711,   0.686738]
    RMS electron-hole separation [Ang]:   2.471903
      Cartesian components [Ang]:       [  1.587323,   1.578953,   1.047674]
    Covariance(r_h, r_e) [Ang^2]:         0.027539
    Correlation coefficient:              0.010647
    Center-of-mass size [Ang]:            1.247042
      Cartesian components [Ang]:       [  0.802440,   0.797620,   0.524410]

  Decomposition into state-averaged NTOs
    H- 0 -> L+ 2: -0.6674 ( 89.1%)
    H- 1 -> L+ 0: -0.1401 (  3.9%)
                   omega =  93.2%
  ----------------------------------------------------------------------------


  Excited state 5 (singlet, A)                                     [converged]
  ----------------------------------------------------------------------------
  Term symbol:  6 (1) A                                     R^2 =  4.22384e-13

  Total energy:                                            -77.9118229100 a.u.
  Excitation energy:                                              10.610113 eV

  Osc. strength:                                                      0.000000
  Trans. dip. moment [a.u.]:           [   0.000109,    0.000055,    0.000004]
  <i|r^2|0> [a.u.]:                    [  -0.054052,    0.065312,   -0.010662]
  Two-photon absorption cross-section (SoS) [a.u.]:                 271.796993
  Two-photon absorption matrix (SoS) [a.u.]:
                                       |   -0.405776   -0.061535    4.216167 |
                                       |   -0.061535    0.482570   -3.999115 |
                                       |    4.216167   -3.999115   -0.078506 |
  Two-photon absorption cross-section [a.u.]:                       161.028335
  Two-photon absorption matrix [a.u.]:
                                       |   -0.312955   -0.047822    3.245292 |
                                       |   -0.047822    0.370769   -3.078119 |
                                       |    3.245292   -3.078119   -0.060268 |

  Dip. moment [a.u.]:                  [   0.000030,   -0.000052,   -0.000009]
  Total dipole [Debye]:                                               0.000153
[...]
    16   -1.285731819304e-03
    17   -1.583446392406e-03
    18    9.618468719352e-05
    19   -2.059293102051e-03
    20    7.494167585522e-03
    21    9.336050903069e-01
    22    2.217556859648e-04
    23    1.340467830446e-02
    24    8.250837902526e-04
    25    6.827714767547e-02
    26   -4.498180425210e-02
    27   -1.388284134854e+00
    28    1.063367014052e-01
    29   -1.009722536026e-01
    30   -1.079862765115e-03
    31    4.269876866326e-01
    32   -4.054913207250e-01
    33   -4.272523771029e-03
    34    1.398291183596e-02
    35   -1.283374400390e-03
    36   -1.582244942217e-03
    37    9.663093903986e-05
    38   -2.058654692641e-03
    39    7.489695624806e-03
    40    9.336038015936e-01
    41   -2.222288263728e-04
    42   -1.340458936082e-02
    43   -8.246232348489e-04
    44    7.494721018338e-03
    45    9.335688746989e-01
    46    1.338010426312e-02
    47    9.089279941013e-04
    48    6.925583261356e-04
Sym=X
Ene= 0.222487
Spin=Alpha
Occup=0
     1    4.777587662680e-02
     2    1.109267497307e+00
     3   -1.058624839914e-02
     4   -2.552700741954e-03
     5   -6.638844875682e-04
     6   -4.216147598384e-05
     7    5.609494502796e-05
     8    4.379147234859e-04
     9   -1.608504540362e-01
    10   -1.692384965166e-01
    11   -1.798004976408e-02
    12   -4.837796806993e-01
    13   -5.093349395153e-01
    14   -5.410763394151e-02
    15   -1.402789127100e-05
    16    5.380493522630e-04
    17   -6.030732211256e-04
    18    1.048981198880e-02
    19    5.391598152551e-04
    20   -4.779857295512e-02
    21   -1.110221448257e+00
    22   -2.020848903315e-03
    23   -1.070517364492e-02
    24   -7.459066853025e-04
    25    4.436360352167e-05
    26   -5.749113562722e-05
    27   -4.908500892390e-04
    28   -1.608489989936e-01
    29   -1.692487869383e-01
    30   -1.791832787537e-02
    31   -4.837418172904e-01
    32   -5.093406818572e-01
    33   -5.389799539778e-02
    34    1.427202165928e-05
    35   -5.409321639800e-04
    36    6.054847848936e-04
    37   -1.048817218612e-02
    38   -5.392072449493e-04
    39    4.779901208519e-02
    40    1.110221706020e+00
    41   -2.020943857093e-03
    42   -1.070560395594e-02
    43   -7.425521668295e-04
    44   -4.777573734626e-02
    45   -1.109199163755e+00
    46   -1.058578476538e-02
    47   -2.552662146251e-03
    48   -6.604499983060e-04
Sym=X
Ene= 0.233297
Spin=Alpha
Occup=0
     1    1.845654937424e-02
     2    1.075819459413e+00
     3   -1.516395949829e-02
     4   -1.001877433649e-02
     5   -1.333447271148e-03
     6    8.366154058804e-02
     7   -8.331962609190e-02
     8   -1.345003354807e+00
     9   -6.790501301179e-02
    10    6.432881349746e-02
    11    6.269988910117e-04
    12   -3.549536458387e-01
    13    3.365863644575e-01
    14    3.273778779153e-03
    15    2.083105857721e-02
    16   -2.397985007128e-03
    17   -2.768101351600e-03
    18    5.571521766580e-04
    19   -1.120648358674e-02
    20    1.842366128738e-02
    21    1.074702118355e+00
    22    9.235306005635e-03
    23    1.563514793099e-02
    24    1.388663022260e-03
    25   -8.365926130905e-02
    26    8.331508858897e-02
    27    1.344975463876e+00
    28   -6.790535481328e-02
    29    6.432907717427e-02
    30    6.486856755317e-04
    31   -3.549498901977e-01
    32    3.366004027441e-01
    33    3.358636359627e-03
    34   -2.083096344494e-02
    35    2.395291086129e-03
    36    2.768930027146e-03
    37   -5.579934094810e-04
    38    1.120603239175e-02
    39   -1.842411077554e-02
    40   -1.074700912041e+00
    41    9.235804952088e-03
    42    1.563536480534e-02
    43    1.389464602981e-03
    44   -1.845638029421e-02
    45   -1.075779483911e+00
    46   -1.516322221832e-02
    47   -1.001989780949e-02
    48   -1.331661033380e-03
Sym=X
Ene= 0.310152
Spin=Alpha
Occup=0
     1   -3.020019821503e-02
     2    1.653070480607e+00
     3   -2.502131582584e-02
     4    3.040577898269e-03
     5   -1.019260361843e-03
     6    8.998112278691e-07
     7   -7.912578467359e-06
     8    7.180329062874e-05
     9   -1.352553710549e-01
    10   -1.422919018104e-01
    11   -1.509967293942e-02
    12   -1.182727604011e+00
    13   -1.244047139985e+00
    14   -1.319786619339e-01
    15    3.593616005464e-05
    16   -1.938934618411e-03
    17    2.196625028309e-03
    18   -3.791343221120e-02
    19   -1.936153196314e-03
    20    3.020633518711e-02
    21   -1.653124092727e+00
    22    4.312363353783e-03
    23   -2.482139984022e-02
    24   -1.292165205971e-03
    25    2.333064504483e-06
    26   -6.908002152874e-06
    27   -2.357334088735e-06
    28    1.352601205662e-01
    29    1.422961725125e-01
    30    1.508441800423e-02
    31    1.182692537906e+00
    32    1.244062350865e+00
    33    1.319327352798e-01
    34    3.751988779811e-05
    35   -1.936093122237e-03
    36    2.198088611599e-03
    37   -3.791119994826e-02
    38   -1.937049777434e-03
    39    3.020113900331e-02
    40   -1.653113544852e+00
    41   -4.313295062903e-03
    42    2.482036530633e-02
    43    1.291744396128e-03
    44   -3.019426054973e-02
    45    1.653088332756e+00
    46    2.502156258363e-02
    47   -3.040949600249e-03
    48    1.017460635700e-03
Sym=X
Ene= 0.487860
Spin=Alpha
Occup=0
     1   -1.076192056785e-01
     2   -7.835577215855e-01
     3   -2.115357519430e-02
     4   -9.048606334236e-03
     5   -1.563984152553e-03
     6    6.283716849223e-02
     7    2.512306231003e-02
     8   -5.282308933022e+00
     9    7.858723693748e-02
    10   -7.462117332642e-02
    11   -7.719177725157e-04
    12    2.973975796473e+00
    13   -2.824672380324e+00
    14   -2.757776002764e-02
    15    6.499404905283e-02
    16   -3.604893738409e-03
    17   -5.216520737504e-03
    18   -1.681654028651e-03
    19    3.156678255698e-02
    20   -1.074848950152e-01
    21   -7.838218558491e-01
    22    7.977492809317e-03
    23    2.156603213553e-02
    24    1.686543986486e-03
    25   -6.283779300294e-02
    26   -2.510403260665e-02
    27    5.282329318051e+00
    28    7.861182593882e-02
    29   -7.464054904381e-02
    30   -7.805734554730e-04
    31    2.973924410173e+00
    32   -2.824604849251e+00
    33   -2.761678999882e-02
    34   -6.498850598713e-02
    35    3.599404182500e-03
    36    5.209636938721e-03
    37    1.680823887147e-03
    38   -3.157367668561e-02
    39    1.074430591921e-01
    40    7.838506353655e-01
    41    7.975093424848e-03
    42    2.156623854255e-02
    43    1.684077032449e-03
    44    1.075840702921e-01
    45    7.835752881934e-01
    46   -2.115322108010e-02
    47   -9.045027666849e-03
    48   -1.562092522998e-03
Sym=X
Ene= 0.563007
Spin=Alpha
Occup=0
     1    1.297858960455e-01
     2    1.041376099706e-01
     3   -3.147326656027e-02
     4    2.572032254655e-02
     5    4.095990175186e-05
     6   -1.608774741318e-02
     7   -2.564604814139e-01
     8   -3.251059957229e-01
     9    3.168695857731e-01
    10   -3.009025340401e-01
    11   -2.942178415990e-03
    12   -8.077527335190e-01
    13    7.670308001669e-01
    14    7.533406274471e-03
    15    1.050084696461e-02
    16    8.935805510343e-04
    17    4.583283460484e-04
    18   -1.538693109513e-03
    19    3.041983212580e-02
    20    1.297098049343e-01
    21    1.043611079006e-01
    22   -2.730463289993e-02
    23    3.011503414875e-02
    24    5.068528636109e-04
    25   -1.609749163360e-02
    26   -2.564662434013e-01
    27   -3.244258566977e-01
    28   -3.168613762173e-01
    29    3.008865696654e-01
    30    2.939884719465e-03
    31    8.081600280083e-01
    32   -7.673947215823e-01
    33   -7.541056930940e-03
    34    1.049800287683e-02
    35    8.957672685235e-04
    36    4.590067358287e-04
    37   -1.532607961823e-03
    38    3.041928678438e-02
    39    1.296731790480e-01
    40    1.045317472564e-01
    41    2.731152497978e-02
    42   -3.011822495118e-02
    43   -5.071294402400e-04
    44    1.298085882915e-01
    45    1.042508393169e-01
    46    3.147119252235e-02
    47   -2.572200009029e-02
    48   -4.197461414976e-05
Sym=X
Ene= 0.600895
Spin=Alpha
Occup=0
     1   -5.311785598425e-01
     2    3.849631985739e-01
     3   -6.140580655774e-02
     4    3.367474031778e-02
     5   -9.137631613295e-04
     6    3.993333032859e-06
     7   -5.331861139666e-06
     8    8.676510188528e-04
     9   -1.837373031672e-02
    10   -1.932881308614e-02
    11   -2.046646089662e-03
    12    1.662604464409e-01
    13    1.758423381717e-01
    14    1.863953938649e-02
    15    1.076246160728e-04
    16   -7.686345271988e-03
    17    8.716655669146e-03
    18   -1.503671864055e-01
    19   -7.702669086633e-03
    20    5.313474350338e-01
    21   -3.848187811075e-01
    22    3.676787027259e-02
    23   -5.959348484737e-02
    24   -1.833659222551e-03
    25   -3.570499726798e-06
    26    1.450763763001e-05
    27   -8.302480531456e-04
    28   -1.835828458744e-02
    29   -1.934470130549e-02
    30   -2.053696951932e-03
    31    1.662175356388e-01
    32    1.759046469196e-01
    33    1.857739587988e-02
    34   -1.083516617700e-04
    35    7.678885663381e-03
    36   -8.720839228763e-03
    37    1.503782536623e-01
    38    7.703739771135e-03
    39   -5.313849827200e-01
    40    3.848567954747e-01
    41    3.676287086616e-02
    42   -5.959328888999e-02
    43   -1.837368379909e-03
    44    5.311854501928e-01
    45   -3.850166112903e-01
    46   -6.140972027547e-02
    47    3.367481639102e-02
    48   -9.137076992148e-04
Sym=X
Ene= 0.664664
Spin=Alpha
Occup=0
     1    3.657288868377e-05
     2    8.385106518059e-05
     3    6.021289273997e-04
     4    7.663603691152e-04
     5   -1.255342503378e-02
     6   -1.891598132106e-06
     7   -6.603971872701e-06
     8    3.522891219274e-04
     9    3.091634328493e-02
    10    3.888087575636e-02
    11   -6.434495024444e-01
    12   -2.954073124883e-02
    13   -3.654721606397e-02
    14    6.090921576022e-01
    15   -1.328171906732e-03
    16    8.249805529839e-02
    17   -7.827338266253e-02
    18   -8.685596891027e-03
    19   -1.207054024299e-03
    20    2.946001724458e-05
    21    1.232611974747e-04
    22    5.984198073999e-04
    23    7.630985903344e-04
    24   -1.255078617556e-02
    25    2.671702994883e-06
    26    2.742531506687e-05
    27   -3.663597426870e-04
    28    3.089531331204e-02
    29    3.885579585381e-02
    30   -6.434518819948e-01
    31   -2.951399631281e-02
    32   -3.652174785588e-02
    33    6.090933430064e-01
    34    1.321614138276e-03
    35   -8.249705951758e-02
    36    7.827373325126e-02
    37    8.698897948116e-03
    38    1.210254834587e-03
    39   -1.829505024800e-05
    40   -9.926654765553e-05
    41    5.957297515706e-04
    42    7.638733394362e-04
    43   -1.255036271747e-02
    44   -1.110024421460e-05
    45   -1.387082904106e-04
    46    5.925197173418e-04
    47    7.612115870958e-04
    48   -1.255381762070e-02
Sym=X
Ene= 0.710146
Spin=Alpha
Occup=0
     1   -5.370919136882e-01
     2    1.363498497077e-01
     3   -6.650107953682e-02
     4   -4.997267794439e-02
     5   -6.220759495023e-03
     6   -4.151722013204e-02
     7   -2.520697207758e-01
     8    5.663772612205e-01
     9    1.213555647647e-01
    10   -1.153286709248e-01
    11   -1.151141622560e-03
    12    1.225880877503e-01
    13   -1.160500145848e-01
    14   -1.207531495213e-03
    15    1.870262481576e-01
    16   -2.057450573557e-02
    17   -2.401563024994e-02
    18    4.143420000670e-03
    19   -8.426462789137e-02
    20   -5.370817572771e-01
    21    1.365939127618e-01
    22    4.652676408015e-02
    23    6.895624202408e-02
    24    6.395613230269e-03
    25   -4.150853206490e-02
    26   -2.520722480762e-01
    27    5.658274328612e-01
    28   -1.213580535684e-01
    29    1.153292581723e-01
    30    1.125208348881e-03
    31   -1.228977229763e-01
    32    1.163353445844e-01
    33    1.244229884680e-03
    34    1.870271805492e-01
    35   -2.056362872945e-02
    36   -2.400591238592e-02
    37    4.141202296403e-03
    38   -8.425405162468e-02
    39   -5.370514965357e-01
    40    1.364833072733e-01
    41   -4.652603861818e-02
    42   -6.895264225110e-02
    43   -6.392350658686e-03
    44   -5.370776462763e-01
    45    1.362515420522e-01
    46    6.649922251196e-02
    47    4.997235362133e-02
    48    6.216739660246e-03
Sym=X
Ene= 0.794349
Spin=Alpha
Occup=0
     1    5.523815292734e-01
     2   -5.837415340696e-01
     3    1.187573401628e-01
     4    3.577729426144e-02
     5    7.868332410673e-03
     6    8.547552026607e-02
     7   -2.411359444502e-01
     8   -8.421474889646e-01
     9    7.215089853236e-03
    10   -6.886284330251e-03
    11   -3.715326944901e-05
    12    5.200425424732e-01
    13   -4.939512052696e-01
    14   -4.890635935636e-03
    15   -2.021901643407e-01
    16    1.825959604084e-02
    17    2.244500213611e-02
    18   -9.449787224625e-04
    19    2.265358526557e-02
    20    5.522308708527e-01
    21   -5.836518619970e-01
    22   -2.969706375365e-02
    23   -1.203339051012e-01
    24   -8.699006492829e-03
    25   -8.547668581104e-02
    26    2.411405724894e-01
    27    8.422058806552e-01
    28    7.229054868478e-03
    29   -6.879375114738e-03
    30   -9.486558403662e-05
    31    5.199759209855e-01
    32   -4.939304555620e-01
    33   -4.775259409611e-03
    34    2.022020849968e-01
    35   -1.822952787175e-02
    36   -2.243817888679e-02
    37    9.489821063213e-04
    38   -2.265237201184e-02
    39   -5.522718248250e-01
    40    5.836618870749e-01
    41   -2.969952915829e-02
    42   -1.203388418455e-01
    43   -8.694103566860e-03
    44   -5.524145682796e-01
    45    5.837195503612e-01
    46    1.187552936606e-01
    47    3.578386203109e-02
    48    7.860343680627e-03
Sym=X
Ene= 0.819122
Spin=Alpha
Occup=0
     1    2.229515286851e-05
     2    1.099515535050e-04
     3    1.370213001106e-03
     4    1.739667566507e-03
     5   -2.885628178519e-02
     6    4.992288323275e-06
     7   -4.729176395733e-05
     8   -2.862646122243e-06
     9    3.673446518910e-02
    10    4.615114508221e-02
    11   -7.631637612873e-01
    12   -5.674209101331e-02
    13   -7.134193841284e-02
    14    1.178733304405e+00
    15    1.545534947061e-03
    16   -9.671679115282e-02
    17    9.176622984053e-02
    18    1.016119452803e-02
    19    1.419725652536e-03
    20    1.584300254772e-05
    21   -1.611499679880e-04
    22    1.376518204898e-03
    23    1.724866577868e-03
    24   -2.884252194217e-02
    25   -2.173365565644e-06
    26   -2.979967322389e-05
    27    6.373106614925e-05
    28   -3.660004013593e-02
    29   -4.602817255987e-02
    30    7.631785428742e-01
    31    5.653748948947e-02
    32    7.102170897287e-02
    33   -1.178761906677e+00
    34    1.566155918219e-03
    35   -9.671537672529e-02
    36    9.176083227529e-02
    37    1.021894316265e-02
    38    1.424348442844e-03
    39   -2.033736275908e-05
    40    1.730405175671e-04
    41   -1.386466318187e-03
    42   -1.771624724775e-03
    43    2.883629145098e-02
    44   -2.676174916261e-05
    45   -9.799813121341e-05
    46   -1.388950217068e-03
    47   -1.753109339598e-03
    48    2.885322285694e-02
Sym=X
Ene= 0.838133
Spin=Alpha
Occup=0
     1   -1.392618611716e-02
     2   -1.044458119121e+00
     3    1.353826912804e-01
     4    4.312166427293e-02
     5    9.101191513462e-03
     6   -5.317069254034e-06
     7    3.098783012491e-05
     8    8.070506410456e-05
     9   -4.071338900349e-01
    10   -4.282271793094e-01
    11   -4.553770531535e-02
    12    9.209493825388e-01
    13    9.687089019745e-01
    14    1.029594219873e-01
    15   -1.868075298714e-04
    16    1.084133485483e-02
    17   -1.229186108543e-02
    18    2.122984564758e-01
    19    1.086328087340e-02
    20    1.389311925295e-02
    21    1.044386951995e+00
    22    3.617415492706e-02
    23    1.373349021972e-01
    24    1.003907492001e-02
    25    5.629356185167e-06
    26   -2.785671898519e-05
    27   -7.748268216009e-05
    28   -4.071493406592e-01
    29   -4.282528432391e-01
    30   -4.531005443945e-02
    31    9.209660579423e-01
    32    9.687624281640e-01
    33    1.025453864251e-01
    34    1.855585720860e-04
    35   -1.086354812097e-02
    36    1.231251465592e-02
    37   -2.122987723231e-01
    38   -1.086638200806e-02
    39   -1.389892881950e-02
    40   -1.044380537394e+00
    41    3.616499970977e-02
    42    1.373355390270e-01
    43    1.004110858056e-02
    44    1.393389323894e-02
    45    1.044447233935e+00
    46    1.353839525191e-01
    47    4.311609268982e-02
    48    9.099523900716e-03
Sym=X
Ene= 0.937193
Spin=Alpha
Occup=0
     1   -1.675620751779e-01
     2    1.168188027174e+00
     3   -1.848903686298e-01
     4    1.903750168461e-02
     5   -7.739128962403e-03
     6   -2.799625885727e-06
     7   -3.855120514893e-05
     8    8.256402547068e-05
     9    4.877973918335e-01
    10    5.130721768108e-01
    11    5.443066249191e-02
    12   -1.342548723953e+00
    13   -1.412270652085e+00
    14   -1.498232397025e-01
    15    1.318175001973e-04
    16   -6.195242052012e-03
    17    6.997837060989e-03
    18   -1.208626495219e-01
    19   -6.213009400690e-03
    20    1.675130559745e-01
    21   -1.168242285362e+00
    22    2.848203210981e-02
    23   -1.835653120496e-01
    24   -9.720481258048e-03
    25   -2.891431020661e-06
    26   -2.813067389895e-05
    27    8.376251205225e-05
    28   -4.878015335494e-01
    29   -5.130673163598e-01
    30   -5.441380609009e-02
    31    1.342552974147e+00
    32    1.412231474325e+00
    33    1.497630980317e-01
    34    1.365702119870e-04
    35   -6.176262090436e-03
    36    6.993590852927e-03
    37   -1.208588071890e-01
    38   -6.223633137226e-03
    39    1.675085050408e-01
    40   -1.168204957406e+00
    41   -2.849106898094e-02
    42    1.835570004942e-01
    43    9.715692939214e-03
    44   -1.675708309422e-01
    45    1.168204304534e+00
    46    1.848912657553e-01
    47   -1.903877337909e-02
    48    7.725709070608e-03
Sym=X
Ene= 1.004612
Spin=Alpha
Occup=0
     1    3.878892497050e-02
     2   -8.163589048562e-01
     3    1.408346306972e-01
     4    6.556502850082e-02
     5    1.071994343506e-02
     6   -9.947413848349e-03
     7   -1.117449665702e+00
     8    2.241048383711e+00
     9   -1.888953923340e-01
    10    1.794021260868e-01
    11    1.780688031755e-03
    12    5.306074674200e-01
    13   -5.038842384377e-01
    14   -5.012657627107e-03
    15    1.389362596426e-02
    16    5.588953760385e-03
    17    4.532028248442e-03
    18   -5.967735553830e-03
    19    1.160822048127e-01
    20    3.878306623486e-02
    21   -8.163417451950e-01
    22   -5.831205626046e-02
    23   -1.439475079712e-01
    24   -1.151299396962e-02
    25   -9.946145582968e-03
    26   -1.117447998929e+00
    27    2.241096496066e+00
    28    1.888844237309e-01
    29   -1.793904504660e-01
    30   -1.785343379753e-03
    31   -5.305733038403e-01
    32    5.038466833797e-01
    33    5.035724929148e-03
    34    1.388736159465e-02
    35    5.572797500096e-03
    36    4.525032060747e-03
    37   -5.968739847413e-03
    38    1.160593329828e-01
    39    3.878049230995e-02
    40   -8.163204124308e-01
    41    5.830505434354e-02
    42    1.439497962007e-01
    43    1.150791629570e-02
    44    3.878331120652e-02
    45   -8.163254374676e-01
    46   -1.408346945025e-01
    47   -6.556252342168e-02
    48   -1.070105748871e-02
[5D]

======= END OF MOLDEN-FORMATTED INPUT FILE =======


        *************************************************************
        *                                                           *
        *  Thank you very much for using Q-Chem.  Have a nice day.  *
        *                                                           *
        *************************************************************


