                  Welcome to Q-Chem
     A Quantum Leap Into The Future Of Chemistry


 Q-Chem 5.4 (devel), Q-Chem, Inc., Pleasanton, CA (2021)

 E. Epifanovsky,  A. T. B. Gilbert,  Xintian Feng,  Joonho Lee,  Yuezhi Mao,  
 N. Mardirossian,  P. Pokhilko,  A. White,  M. Wormit,  M. P. Coons,  
 A. L. Dempwolff,  Zhengting Gan,  D. Hait,  P. R. Horn,  L. D. Jacobson,  
 I. Kaliman,  J. Kussmann,  A. W. Lange,  Ka Un Lao,  D. S. Levine,  Jie Liu,  
 S. C. McKenzie,  A. F. Morrison,  K. Nanda,  F. Plasser,  D. R. Rehn,  
 M. L. Vidal,  Zhi-Qiang You,  Ying Zhu,  B. Alam,  B. Albrecht,  
 A. Aldossary,  E. Alguire,  J. H. Andersen,  D. Barton,  K. Begam,  A. Behn,  
 Y. A. Bernard,  E. J. Berquist,  H. Burton,  A. Carreras,  K. Carter-Fenk,  
 R. Chakraborty,  A. D. Chien,  K. D. Closser,  V. Cofer-Shabica,  
 S. Dasgupta,  Jia Deng,  M. de Wergifosse,  M. Diedenhofen,  Hainam Do,  
 S. Ehlert,  Po-Tung Fang,  S. Fatehi,  Qingguo Feng,  T. Friedhoff,  
 J. Gayvert,  Qinghui Ge,  G. Gidofalvi,  M. Goldey,  J. Gomes,  
 C. Gonzalez-Espinoza,  S. Gulania,  A. Gunina,  M. W. D. Hanson-Heine,  
 P. H. P. Harbach,  A. W. Hauser,  M. F. Herbst,  M. Hernandez Vera,  
 M. Hodecker,  Z. C. Holden,  S. Houck,  Xunkun Huang,  Kerwin Hui,  
 B. C. Huynh,  M. Ivanov,  Hyunjun Ji,  Hanjie Jiang,  B. Kaduk,  S. Kaehler,  
 K. Khistyaev,  Jaehoon Kim,  P. Klunzinger,  Z. Koczor-Benda,  
 Joong Hoon Koh,  D. Kosenkov,  L. Koulias,  T. Kowalczyk,  C. M. Krauter,  
 K. Kue,  A. Kunitsa,  T. Kus,  A. Landau,  K. V. Lawler,  D. Lefrancois,  
 S. Lehtola,  Rain Li,  Yi-Pei Li,  Jiashu Liang,  M. Liebenthal,  
 Hung-Hsuan Lin,  You-Sheng Lin,  Fenglai Liu,  Kuan-Yu Liu,  
 M. Loipersberger,  A. Luenser,  A. Manjanath,  P. Manohar,  E. Mansoor,  
 S. F. Manzer,  Shan-Ping Mao,  A. V. Marenich,  T. Markovich,  S. Mason,  
 S. A. Maurer,  P. F. McLaughlin,  M. F. S. J. Menger,  J.-M. Mewes,  
 S. A. Mewes,  P. Morgante,  J. W. Mullinax,  K. J. Oosterbaan,  G. Paran,  
 Alexander C. Paul,  Suranjan K. Paul,  F. Pavosevic,  Zheng Pei,  S. Prager,  
 E. I. Proynov,  E. Ramos,  B. Rana,  A. E. Rask,  A. Rettig,  R. M. Richard,  
 F. Rob,  E. Rossomme,  T. Scheele,  M. Scheurer,  M. Schneider,  
 N. Sergueev,  S. M. Sharada,  W. Skomorowski,  D. W. Small,  C. J. Stein,  
 Yu-Chuan Su,  E. J. Sundstrom,  Zhen Tao,  J. Thirman,  T. Tsuchimochi,  
 N. M. Tubman,  S. P. Veccham,  O. Vydrov,  J. Wenzel,  J. Witte,  A. Yamada,  
 Kun Yao,  S. Yeganeh,  S. R. Yost,  A. Zech,  Igor Ying Zhang,  Xing Zhang,  
 Yu Zhang,  D. Zuev,  A. Aspuru-Guzik,  A. T. Bell,  N. A. Besley,  
 K. B. Bravaya,  B. R. Brooks,  D. Casanova,  Jeng-Da Chai,  S. Coriani,  
 C. J. Cramer,  A. E. DePrince, III,  R. A. DiStasio Jr.,  A. Dreuw,  
 B. D. Dunietz,  T. R. Furlani,  W. A. Goddard III,  S. Grimme,  
 S. Hammes-Schiffer,  T. Head-Gordon,  W. J. Hehre,  Chao-Ping Hsu,  
 T.-C. Jagau,  Yousung Jung,  A. Klamt,  Jing Kong,  D. S. Lambrecht,  
 WanZhen Liang,  N. J. Mayhall,  C. W. McCurdy,  J. B. Neaton,  
 C. Ochsenfeld,  J. A. Parkhill,  R. Peverati,  V. A. Rassolov,  Yihan Shao,  
 L. V. Slipchenko,  T. Stauch,  R. P. Steele,  J. E. Subotnik,  
 A. J. W. Thom,  A. Tkatchenko,  D. G. Truhlar,  T. Van Voorhis,  
 T. A. Wesolowski,  K. B. Whaley,  H. L. Woodcock III,  P. M. Zimmerman,  
 S. Faraji,  P. M. W. Gill,  M. Head-Gordon,  J. M. Herbert,  A. I. Krylov

 Additional authors for Version 5.4.1: 
 S. Kotaru,  Shaozhi Li,  Xiangyuan Li,  F. Matz,  A. Molle,  Haisheng Ren,  
 Yingli Su,  Hung-Yi Tsai,  C. Utku,  Fang Wang

 Contributors to earlier versions of Q-Chem not listed above: 
 R. D. Adamson,  B. Austin,  R. Baer,  J. Baker,  G. J. O. Beran,  
 K. Brandhorst,  S. T. Brown,  E. F. C. Byrd,  A. K. Chakraborty,  
 G. K. L. Chan,  Chun-Min Chang,  Yunqing Chen,  C.-L. Cheng,  
 Siu Hung Chien,  D. M. Chipman,  D. L. Crittenden,  H. Dachsel,  
 R. J. Doerksen,  A. D. Dutoi,  R. G. Edgar,  J. Fosso-Tande,  
 L. Fusti-Molnar,  D. Ghosh,  A. Ghysels,  A. Golubeva-Zadorozhnaya,  
 J. Gonthier,  M. S. Gordon,  S. R. Gwaltney,  G. Hawkins,  J. E. Herr,  
 A. Heyden,  S. Hirata,  E. G. Hohenstein,  G. Kedziora,  F. J. Keil,  
 C. Kelley,  Jihan Kim,  R. A. King,  R. Z. Khaliullin,  P. P. Korambath,  
 W. Kurlancheek,  A. Laurent,  A. M. Lee,  M. S. Lee,  S. V. Levchenko,  
 Ching Yeh Lin,  D. Liotard,  E. Livshits,  R. C. Lochan,  I. Lotan,  
 L. A. Martinez-Martinez,  P. E. Maslen,  N. Nair,  D. P. O'Neill,  
 D. Neuhauser,  E. Neuscamman,  C. M. Oana,  R. Olivares-Amaya,  R. Olson,  
 T. M. Perrine,  B. Peters,  P. A. Pieniazek,  A. Prociuk,  Y. M. Rhee,  
 J. Ritchie,  M. A. Rohrdanz,  E. Rosta,  N. J. Russ,  H. F. Schaefer III,  
 M. W. Schmidt,  N. E. Schultz,  S. Sharma,  N. Shenvi,  C. D. Sherrill,  
 A. C. Simmonett,  A. Sodt,  T. Stein,  D. Stuck,  K. S. Thanthiriwatte,  
 V. Vanovschi,  L. Vogt,  Tao Wang,  A. Warshel,  M. A. Watson,  
 C. F. Williams,  Q. Wu,  X. Xu,  Jun Yang,  W. Zhang,  Yan Zhao

 Please cite Q-Chem as follows:
 Y. Shao et al., Mol. Phys. 113, 184-215 (2015)
 DOI: 10.1080/00268976.2014.952696

 Q-Chem 5.4.1 for Intel X86 EM64T Linux

 Parts of Q-Chem use Armadillo 9.800.1 (Horizon Scraper).
 http://arma.sourceforge.net/

 Q-Chem begins on Thu Nov 17 15:39:40 2022  

 Host: cpu196.baobab
0

     Scratch files written to /scratch/fum/qchem12632//
 Processing $rem in /home/share/wesolowski/qc5.aug2021.FDE/config/preferences:
 Processing $rem in /home/fum/.qchemrc:

 Checking the input file for inconsistencies... 	...done.

--------------------------------------------------------------
User input:
--------------------------------------------------------------
$comment
generated from CCJob.Templates
$end

$rem
sym_ignore = true
method = adc(2)
ee_states = 10
basis = cc-pVDZ
mem_static = 1024
mem_total = 40000
adc_davidson_maxiter = 900
adc_davidson_conv = 6
adc_print = 3
adc_prop_es = true
adc_prop_es2es = true
adc_prop_tpa = true
molden_format = True
state_analysis = true
print_orbitals = 15
gen_scfman = false
fde_export_density = true
fde_details = 3
$end

$molecule
0 1
H -0.0348278765 -0.2442097827 0.0636489606
C -1.0765972949 -0.5242748755 -0.0023551776
H -1.313264467 -1.5667591607 -0.0757276926
C -2.043634118 0.3926884087 0.0061254933
H -1.8137616575 1.4459188338 0.0804456828
H -3.085977293 0.114931858 -0.0593381042                     
$end
--------------------------------------------------------------
 ----------------------------------------------------------------
             Standard Nuclear Orientation (Angstroms)
    I     Atom           X                Y                Z
 ----------------------------------------------------------------
    1      H      -0.0348278765    -0.2442097827     0.0636489606
    2      C      -1.0765972949    -0.5242748755    -0.0023551776
    3      H      -1.3132644670    -1.5667591607    -0.0757276926
    4      C      -2.0436341180     0.3926884087     0.0061254933
    5      H      -1.8137616575     1.4459188338     0.0804456828
    6      H      -3.0859772930     0.1149318580    -0.0593381042
 ----------------------------------------------------------------
 Nuclear Repulsion Energy =          33.45935689 hartrees
 There are        8 alpha and        8 beta electrons
 Requested basis set is cc-pVDZ
 There are 24 shells and 48 basis functions
 Total memory of 40000 MB is distributed as follows: 
   MEM_STATIC is set to 1024 MB
   QALLOC/CCMAN JOB total memory use is  38976 MB
 Warning: actual memory use might exceed 40000 MB

 Total QAlloc Memory Limit  40000 MB
 Mega-Array Size      1001 MB
 MEM_STATIC part      1024 MB

                       Distance Matrix (Angstroms)
             H (  1)   C (  2)   H (  3)   C (  4)   H (  5)
   C (  2)  1.080776
   H (  3)  1.844712  1.071526
   C (  4)  2.108139  1.332687  2.092743
   H (  5)  2.453859  2.105215  3.057959  1.080583
   H (  6)  3.074674  2.109370  2.443535  1.080700  1.846510

 A cutoff of  1.0D-11 yielded    300 shell pairs
 There are      1220 function pairs (      1329 Cartesian)
 Smallest overlap matrix eigenvalue = 4.80E-03

 Scale SEOQF with 1.000000e-01/1.000000e-01/1.000000e+00

 Standard Electronic Orientation quadrupole field applied
 Nucleus-field energy     =     0.0000000022 hartrees
 Guess from superposition of atomic densities
 Warning:  Energy on first SCF cycle will be non-variational
 SAD guess density has 16.000000 electrons
 A restricted Hartree-Fock SCF calculation will be
 performed using Pulay DIIS extrapolation
 SCF converges when DIIS error is below 1.0E-08
 using 10 threads for integral computing
 -------------------------------------------------------
 OpenMP Integral computing Module                
 Release: version 1.0, May 2013, Q-Chem Inc. Pittsburgh 
 -------------------------------------------------------
 ---------------------------------------
  Cycle       Energy         DIIS Error
 ---------------------------------------
    1     -78.4458624529      1.01E-01
    2     -78.0175446494      7.23E-03
    3     -78.0382076396      1.85E-03
    4     -78.0396920779      5.74E-04
    5     -78.0398143293      5.83E-05
    6     -78.0398162173      1.01E-05
    7     -78.0398162813      3.56E-06
    8     -78.0398162863      1.07E-06
    9     -78.0398162869      1.50E-07
   10     -78.0398162869      4.67E-08
   11     -78.0398162869      8.11E-09 Convergence criterion met
 ---------------------------------------
 SCF time:  CPU 1.53 s  wall 2.29 s
 SCF   energy in the final basis set = -78.03981629
 Total energy in the final basis set = -78.03981629
Exporting Density Matrix to file 'Densmat_SCF.txt'.
Export successful
================================================================================
|                                                                              |
|                                 A D C  M A N                                 |
|                                                                              |
 ------------------------------------------------------------------------------ 
|                                                                              |
| Components:                                                                  |
|                                                                              |
| - libvmm - 1.3-trunk                                                         |
|   Authors:                                                                   |
|   Evgeny Epifanovsky, Ilya Kaliman                                           |
|                                                                              |
| - libtensor - 2.5-trunk                                                      |
|   Authors:                                                                   |
|   Evgeny Epifanovsky, Michael Wormit, Dmitry Zuev, Sam Manzer,               |
|   Ilya Kaliman                                                               |
|                                                                              |
| - libwfa - 1.1-trunk                                                         |
|   Authors:                                                                   |
|   Felix Plasser, Stefanie Mewes (Baeppler), Benjamin Thomitzni,              |
|   Michael Wormit, Feng Chen, Anna I. Krylov, Pavel Pokhilko                  |
|                                                                              |
| - libadc - 1.1-trunk                                                         |
|   Authors:                                                                   |
|   Michael Wormit, Adrian L. Dempwolff, Philipp H. P. Harbach,                |
|   Caroline Krauter, Dirk Rehn, Matthias Schneider, Jan Wenzel                |
|                                                                              |
| - adcman - 2.6-trunk                                                         |
|   Authors:                                                                   |
|   Michael Wormit, Adrian L. Dempwolff, Philipp H. P. Harbach,                |
|   Caroline Krauter, Daniel Lefrancois, Jan-Michael Mewes, Dirk Rehn,         |
|   Matthias Schneider, Jan Wenzel, Andreas Dreuw                              |
|                                                                              |
| Authors of earlier versions of ADCMAN:                                       |
| Andreas Dreuw, Jan Hendrik Starcke, Dirk Rehn, Michael Wormit                |
|                                                                              |
================================================================================

 Created directory /scratch/fum/qchem12632/plots
  Import QC data ...  CPU 0.00 s  wall 0.00 s

 Alpha MOs, Restricted
 -- Occupied --                  
-11.235 -11.233  -1.033  -0.791  -0.642  -0.582  -0.505  -0.374
  1 A     2 A     3 A     4 A     5 A     6 A     7 A     8 A                  
 -- Virtual --                   
  0.168   0.204   0.233   0.240   0.303   0.462   0.577   0.616
  9 A    10 A    11 A    12 A    13 A    14 A    15 A    16 A                  
  0.689   0.710   0.786   0.808   0.863   0.937   0.973   1.010
 17 A    18 A    19 A    20 A    21 A    22 A    23 A    24 A                  
  1.131   1.234   1.255   1.266   1.294   1.603   1.728   1.752
 25 A    26 A    27 A    28 A    29 A    30 A    31 A    32 A                  
  1.821   1.860   1.869   1.925   1.977   1.981   2.222   2.259
 33 A    34 A    35 A    36 A    37 A    38 A    39 A    40 A                  
  2.379   2.459   2.510   2.637   2.728   2.828   3.147   3.405
 41 A    42 A    43 A    44 A    45 A    46 A    47 A    48 A                  

 Beta MOs, Restricted
 -- Occupied --                  
-11.235 -11.233  -1.033  -0.791  -0.642  -0.582  -0.505  -0.374
  1 A     2 A     3 A     4 A     5 A     6 A     7 A     8 A                  
 -- Virtual --                   
  0.168   0.204   0.233   0.240   0.303   0.462   0.577   0.616
  9 A    10 A    11 A    12 A    13 A    14 A    15 A    16 A                  
  0.689   0.710   0.786   0.808   0.863   0.937   0.973   1.010
 17 A    18 A    19 A    20 A    21 A    22 A    23 A    24 A                  
  1.131   1.234   1.255   1.266   1.294   1.603   1.728   1.752
 25 A    26 A    27 A    28 A    29 A    30 A    31 A    32 A                  
  1.821   1.860   1.869   1.925   1.977   1.981   2.222   2.259
 33 A    34 A    35 A    36 A    37 A    38 A    39 A    40 A                  
  2.379   2.459   2.510   2.637   2.728   2.828   3.147   3.405
 41 A    42 A    43 A    44 A    45 A    46 A    47 A    48 A                  
  Import AO data ...  CPU 0.00 s  wall 0.00 s
  Using point group: C1
  Irreducible representations in point group: A
  Molecular orbitals: 
  Occupied MOs:
  Block   0:   1 (  A) A   2 (  A) A   3 (  A) A   4 (  A) A   5 (  A) A
                  -11.23      -11.23      -1.033     -0.7907      -0.642
               6 (  A) A   7 (  A) A   8 (  A) A
                 -0.5821     -0.5054     -0.3739
  Block   1:   1 (  A) B   2 (  A) B   3 (  A) B   4 (  A) B   5 (  A) B
                  -11.23      -11.23      -1.033     -0.7907      -0.642
               6 (  A) B   7 (  A) B   8 (  A) B
                 -0.5821     -0.5054     -0.3739
  Virtual MOs:
  Block   0:   9 (  A) A  10 (  A) A  11 (  A) A  12 (  A) A  13 (  A) A
                  0.1684      0.2039      0.2333      0.2399      0.3033
              14 (  A) A  15 (  A) A  16 (  A) A  17 (  A) A  18 (  A) A
                  0.4621      0.5773      0.6158      0.6892      0.7099
              19 (  A) A  20 (  A) A  21 (  A) A  22 (  A) A
                   0.786       0.808       0.863      0.9373
  Block   1:  23 (  A) A  24 (  A) A  25 (  A) A  26 (  A) A  27 (  A) A
                  0.9729        1.01       1.131       1.234       1.255
              28 (  A) A  29 (  A) A  30 (  A) A  31 (  A) A  32 (  A) A
                   1.266       1.294       1.603       1.728       1.752
              33 (  A) A  34 (  A) A  35 (  A) A  36 (  A) A
                   1.821        1.86       1.869       1.925
  Block   2:  37 (  A) A  38 (  A) A  39 (  A) A  40 (  A) A  41 (  A) A
                   1.977       1.981       2.222       2.259       2.379
              42 (  A) A  43 (  A) A  44 (  A) A  45 (  A) A  46 (  A) A
                   2.459        2.51       2.637       2.728       2.828
              47 (  A) A  48 (  A) A
                   3.147       3.405
  Block   3:   9 (  A) B  10 (  A) B  11 (  A) B  12 (  A) B  13 (  A) B
                  0.1684      0.2039      0.2333      0.2399      0.3033
              14 (  A) B  15 (  A) B  16 (  A) B  17 (  A) B  18 (  A) B
                  0.4621      0.5773      0.6158      0.6892      0.7099
              19 (  A) B  20 (  A) B  21 (  A) B  22 (  A) B
                   0.786       0.808       0.863      0.9373
  Block   4:  23 (  A) B  24 (  A) B  25 (  A) B  26 (  A) B  27 (  A) B
                  0.9729        1.01       1.131       1.234       1.255
              28 (  A) B  29 (  A) B  30 (  A) B  31 (  A) B  32 (  A) B
                   1.266       1.294       1.603       1.728       1.752
              33 (  A) B  34 (  A) B  35 (  A) B  36 (  A) B
                   1.821        1.86       1.869       1.925
  Block   5:  37 (  A) B  38 (  A) B  39 (  A) B  40 (  A) B  41 (  A) B
                   1.977       1.981       2.222       2.259       2.379
              42 (  A) B  43 (  A) B  44 (  A) B  45 (  A) B  46 (  A) B
                   2.459        2.51       2.637       2.728       2.828
              47 (  A) B  48 (  A) B
                   3.147       3.405
  Import MO data ...  CPU 0.01 s  wall 0.00 s
  Import HF data ...  CPU 0.08 s  wall 0.03 s
  Import 2e integrals ...  CPU 0.68 s  wall 0.13 s

--------------------------------------------------------------------------------
                                   HF Summary                                   
--------------------------------------------------------------------------------
  Energy:                                                  -78.0398162869 a.u.
  Dip. moment [a.u.]:                  [  -0.000922,   -0.001041,    0.000186]
  Total dipole [Debye]:                                               0.003565
  <r^2> [a.u.]:                        [ 175.314827,   34.805468,   11.616828]
  Total <r^2> [a.u.]:                                               221.737123
--------------------------------------------------------------------------------
  HF properties ...  CPU 0.01 s  wall 0.01 s
  MP(1) calculation ...  CPU 0.01 s  wall 0.00 s
  N^6 prerequesite intermediates ...  CPU 0.52 s  wall 0.07 s
  Difference density matrix of state mp2_gs printed to ASCII file 'State_mp2_gs_Difference.txt'
Exporting MP density matrix to file 'Densmat_MP.txt'.
Export successful
  Total density matrix of state mp2_gs printed to ASCII file 'State_mp2_gs_Total.txt'
Exporting MP density matrix to file 'Densmat_MP.txt'.
Export successful

--------------------------------------------------------------------------------
                                 MP(2) Summary                                  
--------------------------------------------------------------------------------
  MP energy contribution:                                   -0.2795688263 a.u.
  Total energy:                                            -78.3193851132 a.u.
  Dip. moment [a.u.]:                  [  -0.000782,   -0.000980,    0.000192]
  Total dipole [Debye]:                                               0.003224
  <r^2> [a.u.]:                        [ 175.362652,   34.847542,   11.449348]
  Total <r^2> [a.u.]:                                               221.659542

  Density matrix analysis:
  ------------------------
  NOs
    Occupation of frontier NOs:
       0.0453   1.9383
    Number of electrons: 16.000000
    Number of unpaired electrons: n_u =  0.40278, n_u,nl =  0.04496
    NO participation ratio (PR_NO): 13.849005
  
  
  Mulliken Population Analysis
  Atom      Charge (e)              h+              e-           Del q
  --------------------------------------------------------------------
   1 H        0.050668        0.014046       -0.011174        0.002872
   2 C       -0.095941        0.092606       -0.098545       -0.005940
   3 H        0.047886        0.014220       -0.011145        0.003075
   4 C       -0.102975        0.093077       -0.098915       -0.005837
   5 H        0.049950        0.014118       -0.011181        0.002936
   6 H        0.050413        0.014079       -0.011185        0.002893
  --------------------------------------------------------------------
  Sum:        0.000000        0.242146       -0.242146       -0.000000
  
  Multipole moment analysis of the density matrix
    Molecular charge:                      0.000000
    Number of electrons:                   16.000000
      Center of electronic charge [Ang]: [ -1.560550,  -0.064945,   0.001972]
    Total nuclear charge:                  16.000000
      Center of nuclear charge [Ang]:    [ -1.560576,  -0.064977,   0.001978]
    Dipole moment [D]:                     0.003224
      Cartesian components [D]:          [ -0.001987,  -0.002492,   0.000489]
    RMS size of the density [Ang]:         1.199957
      Cartesian components [Ang]:        [  0.796142,   0.778252,   0.447638]
  
  Exciton analysis of the difference density matrix
    <r_h> [Ang]:                  [ -1.560884,  -0.063809,   0.001977]
    <r_e> [Ang]:                  [ -1.561189,  -0.063941,   0.001962]
    |<r_e - r_h>| [Ang]:            0.000333
    Hole size [Ang]:                1.392458
      Cartesian components [Ang]: [  0.846698,   0.832125,   0.727743]
    Electron size [Ang]:            1.359504
      Cartesian components [Ang]: [  0.878210,   0.860854,   0.579592]
--------------------------------------------------------------------------------
  MP(2) calculation ...  CPU 0.13 s  wall 0.12 s
  Start ADC(2)-s ...  CPU 0.01 s  wall 0.00 s
  ADC(2) intermediates ...  CPU 0.02 s  wall 0.01 s
  Starting Davidson for singlet states of irrep A ... 
--------------------------------------------------------------------------------
   It NVec Conv  Avg. Norm  Max. Norm  Conv. states           Remark
--------------------------------------------------------------------------------
        10    0  1.330e-01  4.688e-01  0.4120 n n n n n n n n Guess.
    1   20    0  2.305e-02  1.108e-01  0.3262 n n n n n n n n 
    2   30    0  5.810e-03  2.475e-02  0.3215 n n n n n n n n 
    3   40    0  1.827e-03  1.090e-02  0.3211 n n n n n n n n 
    4   50    0  5.830e-04  3.917e-03  0.3211 n n n n n n n n 
    5   20    0  2.807e-04  2.026e-03  0.3211 n n n n n n n n Subspace collapsed.
    6   30    0  1.554e-04  1.271e-03  0.3211 n n n n n n n n 
    7   40    0  1.119e-04  7.907e-04  0.3211 n n n n n n n n 
    8   50    0  8.433e-05  7.645e-04  0.3211 n n n n n n n n 
    9   20    2  5.823e-05  5.507e-04  0.3211 n y n y n n n n Subspace collapsed.
   10   30    4  6.107e-05  5.864e-04  0.3211 n y y y n y n n 
   11   40    5  6.520e-05  6.481e-04  0.3211 n y y y y y n n 
   12   50    6  5.893e-05  5.880e-04  0.3211 y y y y y y n n 
   13   20    6  2.638e-05  2.632e-04  0.3211 y y y y y y n n Subspace collapsed.
   14   30    6  1.953e-05  1.949e-04  0.3211 y y y y y y n n 
   15   40    6  1.076e-05  1.073e-04  0.3211 y y y y y y n n 
   16   50    6  1.165e-05  1.165e-04  0.3211 y y y y y y n n 
   17   20    7  6.966e-06  6.962e-05  0.3211 y y y y y y n y Subspace collapsed.
   18   30    7  1.057e-05  1.057e-04  0.3211 y y y y y y n y 
   19   40    7  1.093e-05  1.093e-04  0.3211 y y y y y y n y 
   20   50    9  1.072e-05  1.072e-04  0.3211 y y y y y y y y 
   21   20    9  4.267e-06  4.267e-05  0.3211 y y y y y y y y Subspace collapsed.
   22   30    9  3.436e-06  3.436e-05  0.3211 y y y y y y y y 
   23   31    9  3.419e-06  3.419e-05  0.3211 y y y y y y y y 
   24   32    9  3.424e-06  3.424e-05  0.3211 y y y y y y y y 
   25   33    9  3.433e-06  3.432e-05  0.3211 y y y y y y y y 
   26   34    9  3.421e-06  3.421e-05  0.3211 y y y y y y y y 
   27   35    9  3.420e-06  3.420e-05  0.3211 y y y y y y y y 
   28   36    9  3.407e-06  3.407e-05  0.3211 y y y y y y y y 
   29   36    9  3.407e-06  3.407e-05  0.3211 y y y y y y y y 
   30   46    9  2.941e-06  2.941e-05  0.3211 y y y y y y y y 
   31   50    9  1.994e-06  1.994e-05  0.3211 y y y y y y y y 
   32   16    9  1.467e-06  1.467e-05  0.3211 y y y y y y y y Subspace collapsed.
   33   22    9  2.147e-06  2.147e-05  0.3211 y y y y y y y y 
   34   27    9  2.066e-06  2.066e-05  0.3211 y y y y y y y y 
   35   27    9  2.066e-06  2.066e-05  0.3211 y y y y y y y y 
   36   27    9  2.066e-06  2.066e-05  0.3211 y y y y y y y y 
   37   37    9  1.811e-06  1.811e-05  0.3211 y y y y y y y y 
   38   41    9  9.843e-07  9.843e-06  0.3211 y y y y y y y y 
   39   45    9  4.261e-07  4.261e-06  0.3211 y y y y y y y y 
   40   49    9  1.603e-07  1.603e-06  0.3211 y y y y y y y y 
   41   50    9  1.394e-07  1.394e-06  0.3211 y y y y y y y y 
   42   14   10  7.202e-08  7.202e-07  0.3211 y y y y y y y y Converged.
--------------------------------------------------------------------------------
  Davidson Summary: 
 ------------------------------------------------------------
  State  0: excitation energy =   0.3211 a.u.   (converged)
  State  1: excitation energy =   0.3333 a.u.   (converged)
  State  2: excitation energy =   0.3373 a.u.   (converged)
  State  3: excitation energy =   0.3619 a.u.   (converged)
  State  4: excitation energy =   0.3756 a.u.   (converged)
  State  5: excitation energy =   0.3874 a.u.   (converged)
  State  6: excitation energy =   0.4255 a.u.   (converged)
  State  7: excitation energy =   0.4475 a.u.   (converged)
  State  8: excitation energy =   0.4567 a.u.   (converged)
  State  9: excitation energy =   0.4657 a.u.   (converged)
 ------------------------------------------------------------

  Singlet states of irrep A ...  CPU 105.32 s  wall 35.24 s
  TDMs ...  CPU 0.66 s  wall 0.27 s
  SDMs ...  CPU 1.47 s  wall 0.52 s
  Starting TPA DIIS iterations ... 
------------------------------------ 
   It     Res. Norm  Remark
------------------------------------
                       Guess.
    1     4.406e+00  
    2     5.843e+00  
    3     1.078e+00  
    4     2.572e-01  
    5     6.594e-02  
    6     2.683e-02  
    7     8.229e-03  
    8     1.445e-03  
    9     5.353e-04  
   10     8.960e-05  
   11     2.823e-05  
   12     4.355e-06  
   13     1.389e-06  
   14     4.208e-07  Converged.
   ... Converged in 14 steps (norm: 4.20786e-07)
------------------------------------
  Starting TPA DIIS iterations ... 
------------------------------------ 
   It     Res. Norm  Remark
------------------------------------
                       Guess.
    1     4.189e+00  
    2     5.546e+00  
    3     1.027e+00  
    4     2.530e-01  
    5     6.516e-02  
    6     2.631e-02  
    7     8.061e-03  
    8     1.415e-03  
    9     5.212e-04  
   10     8.789e-05  
   11     2.738e-05  
   12     4.207e-06  
   13     1.371e-06  
   14     4.070e-07  Converged.
   ... Converged in 14 steps (norm: 4.06951e-07)
------------------------------------
  Starting TPA DIIS iterations ... 
------------------------------------ 
   It     Res. Norm  Remark
------------------------------------
                       Guess.
    1     6.878e-01  
    2     4.835e-01  
    3     1.708e-01  
    4     5.954e-02  
    5     1.825e-02  
    6     6.622e-03  
    7     1.032e-03  
    8     4.432e-04  
    9     1.256e-04  
   10     2.656e-05  
   11     6.871e-06  
   12     1.964e-06  
   13     1.385e-06  
   14     5.825e-07  Converged.
   ... Converged in 14 steps (norm: 5.82549e-07)
------------------------------------
  Starting TPA DIIS iterations ... 
------------------------------------ 
   It     Res. Norm  Remark
------------------------------------
                       Guess.
    1     4.708e+00  
    2     6.386e+00  
    3     1.163e+00  
    4     2.873e-01  
    5     7.471e-02  
    6     3.067e-02  
    7     9.388e-03  
    8     1.646e-03  
    9     6.146e-04  
   10     1.034e-04  
   11     3.294e-05  
   12     5.124e-06  
   13     1.645e-06  
   14     4.974e-07  Converged.
   ... Converged in 14 steps (norm: 4.97435e-07)
------------------------------------
  Starting TPA DIIS iterations ... 
------------------------------------ 
   It     Res. Norm  Remark
------------------------------------
                       Guess.
    1     4.476e+00  
    2     6.061e+00  
    3     1.107e+00  
    4     2.824e-01  
    5     7.385e-02  
    6     3.009e-02  
    7     9.198e-03  
    8     1.612e-03  
    9     5.981e-04  
   10     1.015e-04  
   11     3.192e-05  
   12     4.947e-06  
   13     1.624e-06  
   14     4.814e-07  Converged.
   ... Converged in 14 steps (norm: 4.81366e-07)
------------------------------------
  Starting TPA DIIS iterations ... 
------------------------------------ 
   It     Res. Norm  Remark
------------------------------------
                       Guess.
    1     7.005e-01  
    2     5.018e-01  
    3     1.812e-01  
    4     6.775e-02  
    5     1.973e-02  
    6     7.269e-03  
    7     1.173e-03  
    8     5.255e-04  
    9     1.524e-04  
   10     2.990e-05  
   11     7.964e-06  
   12     2.346e-06  
   13     1.753e-06  
   14     7.490e-07  Converged.
   ... Converged in 14 steps (norm: 7.49028e-07)
------------------------------------
  Starting TPA DIIS iterations ... 
------------------------------------ 
   It     Res. Norm  Remark
------------------------------------
                       Guess.
    1     4.815e+00  
    2     6.580e+00  
    3     1.193e+00  
    4     2.983e-01  
    5     7.791e-02  
    6     3.208e-02  
    7     9.811e-03  
    8     1.720e-03  
    9     6.437e-04  
   10     1.085e-04  
   11     3.469e-05  
   12     5.410e-06  
   13     1.742e-06  
   14     5.259e-07  Converged.
   ... Converged in 14 steps (norm: 5.25904e-07)
------------------------------------
  Starting TPA DIIS iterations ... 
------------------------------------ 
   It     Res. Norm  Remark
------------------------------------
                       Guess.
    1     4.577e+00  
    2     6.246e+00  
    3     1.136e+00  
    4     2.931e-01  
    5     7.702e-02  
    6     3.148e-02  
    7     9.613e-03  
    8     1.684e-03  
    9     6.263e-04  
   10     1.064e-04  
   11     3.360e-05  
   12     5.221e-06  
   13     1.719e-06  
   14     5.091e-07  Converged.
   ... Converged in 14 steps (norm: 5.09055e-07)
------------------------------------
  Starting TPA DIIS iterations ... 
------------------------------------ 
   It     Res. Norm  Remark
------------------------------------
                       Guess.
    1     7.047e-01  
    2     5.081e-01  
    3     1.848e-01  
    4     7.080e-02  
    5     2.025e-02  
    6     7.505e-03  
    7     1.225e-03  
    8     5.564e-04  
    9     1.624e-04  
   10     3.086e-05  
   11     8.368e-06  
   12     2.491e-06  
   13     1.897e-06  
   14     8.153e-07  Converged.
   ... Converged in 14 steps (norm: 8.1534e-07)
------------------------------------
  Starting TPA DIIS iterations ... 
------------------------------------ 
   It     Res. Norm  Remark
------------------------------------
                       Guess.
    1     5.567e+00  
    2     7.985e+00  
    3     1.404e+00  
    4     3.800e-01  
    5     1.017e-01  
    6     4.267e-02  
    7     1.296e-02  
    8     2.264e-03  
    9     8.621e-04  
   10     1.467e-04  
   11     4.808e-05  
   12     7.601e-06  
   13     2.494e-06  
   14     7.456e-07  Converged.
   ... Converged in 14 steps (norm: 7.45611e-07)
------------------------------------
  Starting TPA DIIS iterations ... 
------------------------------------ 
   It     Res. Norm  Remark
------------------------------------
                       Guess.
    1     5.290e+00  
    2     7.578e+00  
    3     1.336e+00  
    4     3.725e-01  
    5     1.006e-01  
    6     4.191e-02  
    7     1.271e-02  
    8     2.216e-03  
    9     8.377e-04  
   10     1.439e-04  
   11     4.648e-05  
   12     7.326e-06  
   13     2.460e-06  
   14     7.237e-07  Converged.
   ... Converged in 14 steps (norm: 7.23657e-07)
------------------------------------
  Starting TPA DIIS iterations ... 
------------------------------------ 
   It     Res. Norm  Remark
------------------------------------
                       Guess.
    1     7.320e-01  
    2     5.502e-01  
    3     2.097e-01  
    4     9.422e-02  
    5     2.385e-02  
    6     9.268e-03  
    7     1.630e-03  
    8     7.908e-04  
    9     2.375e-04  
   10     3.463e-05  
   11     1.150e-05  
   12     3.664e-06  
   13     3.113e-06  
   14     1.394e-06  
   15     5.675e-07  Converged.
   ... Converged in 15 steps (norm: 5.67472e-07)
------------------------------------
  Starting TPA DIIS iterations ... 
------------------------------------ 
   It     Res. Norm  Remark
------------------------------------
                       Guess.
    1     6.072e+00  
    2     8.960e+00  
    3     1.545e+00  
    4     4.389e-01  
    5     1.189e-01  
    6     5.039e-02  
    7     1.524e-02  
    8     2.655e-03  
    9     1.021e-03  
   10     1.746e-04  
   11     5.804e-05  
   12     9.230e-06  
   13     3.067e-06  
   14     9.121e-07  Converged.
   ... Converged in 14 steps (norm: 9.12084e-07)
------------------------------------
  Starting TPA DIIS iterations ... 
------------------------------------ 
   It     Res. Norm  Remark
------------------------------------
                       Guess.
    1     5.768e+00  
    2     8.502e+00  
    3     1.470e+00  
    4     4.297e-01  
    5     1.176e-01  
    6     4.952e-02  
    7     1.494e-02  
    8     2.597e-03  
    9     9.915e-04  
   10     1.713e-04  
   11     5.605e-05  
   12     8.891e-06  
   13     3.025e-06  
   14     8.873e-07  Converged.
   ... Converged in 14 steps (norm: 8.87276e-07)
------------------------------------
  Starting TPA DIIS iterations ... 
------------------------------------ 
   It     Res. Norm  Remark
------------------------------------
                       Guess.
    1     7.480e-01  
    2     5.765e-01  
    3     2.258e-01  
    4     1.117e-01  
    5     2.629e-02  
    6     1.055e-02  
    7     1.938e-03  
    8     9.537e-04  
    9     2.893e-04  
   10     3.568e-05  
   11     1.392e-05  
   12     4.609e-06  
   13     4.133e-06  
   14     1.894e-06  
   15     7.585e-07  Converged.
   ... Converged in 15 steps (norm: 7.58473e-07)
------------------------------------
  Starting TPA DIIS iterations ... 
------------------------------------ 
   It     Res. Norm  Remark
------------------------------------
                       Guess.
    1     6.569e+00  
    2     9.945e+00  
    3     1.682e+00  
    4     4.999e-01  
    5     1.366e-01  
    6     5.845e-02  
    7     1.759e-02  
    8     3.058e-03  
    9     1.187e-03  
   10     2.037e-04  
   11     6.854e-05  
   12     1.094e-05  
   13     3.679e-06  
   14     1.092e-06  
   15     3.553e-07  Converged.
   ... Converged in 15 steps (norm: 3.55349e-07)
------------------------------------
  Starting TPA DIIS iterations ... 
------------------------------------ 
   It     Res. Norm  Remark
------------------------------------
                       Guess.
    1     6.240e+00  
    2     9.437e+00  
    3     1.600e+00  
    4     4.888e-01  
    5     1.352e-01  
    6     5.747e-02  
    7     1.724e-02  
    8     2.991e-03  
    9     1.152e-03  
   10     1.997e-04  
   11     6.611e-05  
   12     1.054e-05  
   13     3.628e-06  
   14     1.065e-06  
   15     3.493e-07  Converged.
   ... Converged in 15 steps (norm: 3.49305e-07)
------------------------------------
  Starting TPA DIIS iterations ... 
------------------------------------ 
   It     Res. Norm  Remark
------------------------------------
                       Guess.
    1     7.624e-01  
    2     6.012e-01  
    3     2.413e-01  
    4     1.302e-01  
    5     2.876e-02  
    6     1.188e-02  
    7     2.269e-03  
    8     1.108e-03  
    9     3.395e-04  
   10     3.703e-05  
   11     1.658e-05  
   12     5.673e-06  
   13     5.302e-06  
   14     2.475e-06  
   15     9.960e-07  Converged.
   ... Converged in 15 steps (norm: 9.95984e-07)
------------------------------------
  Starting TPA DIIS iterations ... 
------------------------------------ 
   It     Res. Norm  Remark
------------------------------------
                       Guess.
    1     8.727e+00  
    2     1.447e+01  
    3     2.269e+00  
    4     7.930e-01  
    5     2.220e-01  
    6     9.803e-02  
    7     2.891e-02  
    8     4.991e-03  
    9     2.000e-03  
   10     3.453e-04  
   11     1.196e-04  
   12     1.934e-05  
   13     6.677e-06  
   14     2.068e-06  
   15     6.658e-07  Converged.
   ... Converged in 15 steps (norm: 6.65816e-07)
------------------------------------
  Starting TPA DIIS iterations ... 
------------------------------------ 
   It     Res. Norm  Remark
------------------------------------
                       Guess.
    1     8.286e+00  
    2     1.373e+01  
    3     2.157e+00  
    4     7.719e-01  
    5     2.200e-01  
    6     9.654e-02  
    7     2.835e-02  
    8     4.871e-03  
    9     1.934e-03  
   10     3.384e-04  
   11     1.151e-04  
   12     1.864e-05  
   13     6.613e-06  
   14     2.036e-06  
   15     6.583e-07  Converged.
   ... Converged in 15 steps (norm: 6.5831e-07)
------------------------------------
  Starting TPA DIIS iterations ... 
------------------------------------ 
   It     Res. Norm  Remark
------------------------------------
                       Guess.
    1     8.134e-01  
    2     6.970e-01  
    3     3.045e-01  
    4     2.209e-01  
    5     4.034e-02  
    6     1.822e-02  
    7     3.970e-03  
    8     1.604e-03  
    9     5.408e-04  
   10     5.699e-05  
   11     3.116e-05  
   12     1.197e-05  
   13     1.220e-05  
   14     5.953e-06  
   15     2.694e-06  
   16     1.114e-06  
   17     2.764e-07  Converged.
   ... Converged in 17 steps (norm: 2.76384e-07)
------------------------------------
  Starting TPA DIIS iterations ... 
------------------------------------ 
   It     Res. Norm  Remark
------------------------------------
                       Guess.
    1     1.054e+01  
    2     1.854e+01  
    3     2.748e+00  
    4     1.067e+00  
    5     3.025e-01  
    6     1.362e-01  
    7     3.956e-02  
    8     6.801e-03  
    9     2.779e-03  
   10     4.800e-04  
   11     1.663e-04  
   12     2.737e-05  
   13     9.407e-06  
   14     3.142e-06  
   15     9.989e-07  Converged.
   ... Converged in 15 steps (norm: 9.98854e-07)
------------------------------------
  Starting TPA DIIS iterations ... 
------------------------------------ 
   It     Res. Norm  Remark
------------------------------------
                       Guess.
    1     1.000e+01  
    2     1.759e+01  
    3     2.612e+00  
    4     1.035e+00  
    5     2.998e-01  
    6     1.343e-01  
    7     3.880e-02  
    8     6.627e-03  
    9     2.684e-03  
   10     4.701e-04  
   11     1.602e-04  
   12     2.642e-05  
   13     9.378e-06  
   14     3.114e-06  
   15     9.880e-07  Converged.
   ... Converged in 15 steps (norm: 9.88017e-07)
------------------------------------
  Starting TPA DIIS iterations ... 
------------------------------------ 
   It     Res. Norm  Remark
------------------------------------
                       Guess.
    1     8.464e-01  
    2     7.673e-01  
    3     3.534e-01  
    4     3.022e-01  
    5     5.095e-02  
    6     2.382e-02  
    7     5.628e-03  
    8     1.799e-03  
    9     6.932e-04  
   10     8.493e-05  
   11     4.698e-05  
   12     1.960e-05  
   13     2.023e-05  
   14     9.976e-06  
   15     4.891e-06  
   16     1.985e-06  
   17     5.708e-07  Converged.
   ... Converged in 17 steps (norm: 5.70775e-07)
------------------------------------
  Starting TPA DIIS iterations ... 
------------------------------------ 
   It     Res. Norm  Remark
------------------------------------
                       Guess.
    1     1.148e+01  
    2     2.075e+01  
    3     2.993e+00  
    4     1.216e+00  
    5     3.470e-01  
    6     1.576e-01  
    7     4.545e-02  
    8     7.799e-03  
    9     3.214e-03  
   10     5.545e-04  
   11     1.914e-04  
   12     3.191e-05  
   13     1.092e-05  
   14     3.785e-06  
   15     1.227e-06  
   16     3.053e-07  Converged.
   ... Converged in 16 steps (norm: 3.05322e-07)
------------------------------------
  Starting TPA DIIS iterations ... 
------------------------------------ 
   It     Res. Norm  Remark
------------------------------------
                       Guess.
    1     1.089e+01  
    2     1.969e+01  
    3     2.844e+00  
    4     1.179e+00  
    5     3.440e-01  
    6     1.554e-01  
    7     4.457e-02  
    8     7.592e-03  
    9     3.102e-03  
   10     5.430e-04  
   11     1.844e-04  
   12     3.081e-05  
   13     1.090e-05  
   14     3.765e-06  
   15     1.209e-06  
   16     4.145e-07  Converged.
   ... Converged in 16 steps (norm: 4.14492e-07)
------------------------------------
  Starting TPA DIIS iterations ... 
------------------------------------ 
   It     Res. Norm  Remark
------------------------------------
                       Guess.
    1     8.612e-01  
    2     8.012e-01  
    3     3.776e-01  
    4     3.436e-01  
    5     5.668e-02  
    6     2.668e-02  
    7     6.538e-03  
    8     1.855e-03  
    9     7.687e-04  
   10     1.007e-04  
   11     5.637e-05  
   12     2.450e-05  
   13     2.535e-05  
   14     1.244e-05  
   15     6.281e-06  
   16     2.525e-06  
   17     7.733e-07  Converged.
   ... Converged in 17 steps (norm: 7.73306e-07)
------------------------------------
  Starting TPA DIIS iterations ... 
------------------------------------ 
   It     Res. Norm  Remark
------------------------------------
                       Guess.
    1     1.253e+01  
    2     2.330e+01  
    3     3.264e+00  
    4     1.389e+00  
    5     3.988e-01  
    6     1.827e-01  
    7     5.231e-02  
    8     8.960e-03  
    9     3.724e-03  
   10     6.413e-04  
   11     2.200e-04  
   12     3.731e-05  
   13     1.274e-05  
   14     4.571e-06  
   15     1.547e-06  
   16     3.885e-07  Converged.
   ... Converged in 16 steps (norm: 3.88507e-07)
------------------------------------
  Starting TPA DIIS iterations ... 
------------------------------------ 
   It     Res. Norm  Remark
------------------------------------
                       Guess.
    1     1.190e+01  
    2     2.210e+01  
    3     3.101e+00  
    4     1.344e+00  
    5     3.953e-01  
    6     1.802e-01  
    7     5.129e-02  
    8     8.714e-03  
    9     3.592e-03  
   10     6.279e-04  
   11     2.122e-04  
   12     3.603e-05  
   13     1.272e-05  
   14     4.566e-06  
   15     1.516e-06  
   16     5.381e-07  Converged.
   ... Converged in 16 steps (norm: 5.38084e-07)
------------------------------------
  Starting TPA DIIS iterations ... 
------------------------------------ 
   It     Res. Norm  Remark
------------------------------------
                       Guess.
    1     8.764e-01  
    2     8.375e-01  
    3     4.038e-01  
    4     3.878e-01  
    5     6.324e-02  
    6     2.976e-02  
    7     7.582e-03  
    8     1.904e-03  
    9     8.515e-04  
   10     1.189e-04  
   11     6.779e-05  
   12     3.078e-05  
   13     3.213e-05  
   14     1.548e-05  
   15     8.036e-06  
   16     3.188e-06  
   17     1.032e-06  
   18     5.206e-07  Converged.
   ... Converged in 18 steps (norm: 5.20637e-07)
------------------------------------
  Two-photon absorbption ...  CPU 79.49 s  wall 18.86 s
  Transition density matrix of state singlet_A_1 printed to ASCII file 'State_singlet_A_1_Transition.txt'
  Transition density matrix of state singlet_A_2 printed to ASCII file 'State_singlet_A_2_Transition.txt'
  Transition density matrix of state singlet_A_3 printed to ASCII file 'State_singlet_A_3_Transition.txt'
  Transition density matrix of state singlet_A_4 printed to ASCII file 'State_singlet_A_4_Transition.txt'
  Transition density matrix of state singlet_A_5 printed to ASCII file 'State_singlet_A_5_Transition.txt'
  Transition density matrix of state singlet_A_6 printed to ASCII file 'State_singlet_A_6_Transition.txt'
  Transition density matrix of state singlet_A_7 printed to ASCII file 'State_singlet_A_7_Transition.txt'
  Transition density matrix of state singlet_A_8 printed to ASCII file 'State_singlet_A_8_Transition.txt'
  Transition density matrix of state singlet_A_9 printed to ASCII file 'State_singlet_A_9_Transition.txt'
  Transition density matrix of state singlet_A_10 printed to ASCII file 'State_singlet_A_10_Transition.txt'
  Transition properties ...  CPU 0.16 s  wall 0.30 s
  Difference density matrix of state singlet_A_1 printed to ASCII file 'State_singlet_A_1_Difference.txt'
  Total density matrix of state singlet_A_1 printed to ASCII file 'State_singlet_A_1_Total.txt'
  Difference density matrix of state singlet_A_2 printed to ASCII file 'State_singlet_A_2_Difference.txt'
  Total density matrix of state singlet_A_2 printed to ASCII file 'State_singlet_A_2_Total.txt'
  Difference density matrix of state singlet_A_3 printed to ASCII file 'State_singlet_A_3_Difference.txt'
  Total density matrix of state singlet_A_3 printed to ASCII file 'State_singlet_A_3_Total.txt'
  Difference density matrix of state singlet_A_4 printed to ASCII file 'State_singlet_A_4_Difference.txt'
  Total density matrix of state singlet_A_4 printed to ASCII file 'State_singlet_A_4_Total.txt'
  Difference density matrix of state singlet_A_5 printed to ASCII file 'State_singlet_A_5_Difference.txt'
  Total density matrix of state singlet_A_5 printed to ASCII file 'State_singlet_A_5_Total.txt'
  Difference density matrix of state singlet_A_6 printed to ASCII file 'State_singlet_A_6_Difference.txt'
  Total density matrix of state singlet_A_6 printed to ASCII file 'State_singlet_A_6_Total.txt'
  Difference density matrix of state singlet_A_7 printed to ASCII file 'State_singlet_A_7_Difference.txt'
  Total density matrix of state singlet_A_7 printed to ASCII file 'State_singlet_A_7_Total.txt'
  Difference density matrix of state singlet_A_8 printed to ASCII file 'State_singlet_A_8_Difference.txt'
  Total density matrix of state singlet_A_8 printed to ASCII file 'State_singlet_A_8_Total.txt'
  Difference density matrix of state singlet_A_9 printed to ASCII file 'State_singlet_A_9_Difference.txt'
  Total density matrix of state singlet_A_9 printed to ASCII file 'State_singlet_A_9_Total.txt'
  Difference density matrix of state singlet_A_10 printed to ASCII file 'State_singlet_A_10_Difference.txt'
  Total density matrix of state singlet_A_10 printed to ASCII file 'State_singlet_A_10_Total.txt'
  Properties ...  CPU 0.30 s  wall 0.51 s
  ISR TDMS ...  CPU 8.85 s  wall 3.15 s
  ISR transition properties ...  CPU 0.17 s  wall 0.08 s
  Sum-over-states TPA ...  CPU 0.00 s  wall 0.00 s

--------------------------------------------------------------------------------
                   State-averaged natural transition orbitals
--------------------------------------------------------------------------------
--------------------------------------------------------------------------------
  SA-NTO decomposition ...  CPU 0.01 s  wall 0.02 s

--------------------------------------------------------------------------------
                             Excited State Summary
--------------------------------------------------------------------------------
--------------------------------------------------------------------------------

  Excited state 1 (singlet, A)                                     [converged]
  ----------------------------------------------------------------------------
  Term symbol:  2 (1) A                                     R^2 =  3.66447e-14

  Total energy:                                            -77.9983182057 a.u.
  Excitation energy:                                               8.736675 eV

  Osc. strength:                                                      0.445434
  Trans. dip. moment [a.u.]:           [  -1.046393,    0.992982,    0.009118]
  <i|r^2|0> [a.u.]:                    [  -6.168821,    0.239081,   -0.000397]
  Two-photon absorption cross-section (SoS) [a.u.]:                   0.002345
  Two-photon absorption matrix (SoS) [a.u.]:
                                       |   -0.006712   -0.010650   -0.001041 |
                                       |   -0.010650   -0.013171   -0.001846 |
                                       |   -0.001041   -0.001846    0.006395 |
  Two-photon absorption cross-section [a.u.]:                         0.000976
  Two-photon absorption matrix [a.u.]:
                                       |    0.003451   -0.004508   -0.000438 |
                                       |   -0.004508    0.002332   -0.001422 |
                                       |   -0.000438   -0.001422    0.008734 |

  Dip. moment [a.u.]:                  [  -0.000643,   -0.001054,    0.000265]
  Total dipole [Debye]:                                               0.003209
  <r^2> [a.u.]:                        [ 176.117283,   35.539089,   11.858988]
  Total <r^2> [a.u.]:                                               223.515359

  V1^2 = 0.9715, V2^2 = 0.0285

  Important amplitudes:
      occ i     occ j     vir a      vir b          v   
    -----------------------------------------------------
     8 (A) A              9 (A) A                -0.6811
     6 (A) A             14 (A) A                -0.0624
     4 (A) A             10 (A) A                -0.0604
     7 (A) A             16 (A) A                -0.0569
     5 (A) A             13 (A) A                -0.0511
     6 (A) A             23 (A) A                -0.0485
     8 (A) A             20 (A) A                -0.0350
     6 (A) A             19 (A) A                 0.0310
     3 (A) A             12 (A) A                 0.0280
     5 (A) A             22 (A) A                 0.0214
     7 (A) A             11 (A) A                 0.0210
     4 (A) A             24 (A) A                -0.0187
     3 (A) A             26 (A) A                 0.0185
     8 (A) A   8 (A) B   17 (A) A   20 (A) B      0.0184
     8 (A) A   8 (A) B    9 (A) A   28 (A) B      0.0168
     6 (A) A             26 (A) A                -0.0164
     7 (A) A             21 (A) A                -0.0147
     3 (A) A             14 (A) A                 0.0139
     6 (A) A             12 (A) A                 0.0130
     3 (A) A   4 (A) B    9 (A) A    9 (A) B      0.0129
     3 (A) A             19 (A) A                -0.0119
     8 (A) A   8 (A) B   18 (A) A   19 (A) B      0.0113
     7 (A) A             32 (A) A                -0.0096
     7 (A) A             36 (A) A                -0.0086
     3 (A) A             23 (A) A                 0.0080
     8 (A) A   8 (A) B   25 (A) A   29 (A) B     -0.0076
     6 (A) A             35 (A) A                -0.0072
     6 (A) A             40 (A) A                -0.0068
     3 (A) A   6 (A) B    9 (A) A   28 (A) B     -0.0065
     6 (A) A   8 (A) A   19 (A) A   28 (A) A      0.0061
     5 (A) A   7 (A) B    9 (A) A    9 (A) B      0.0060
     7 (A) A   8 (A) B   13 (A) A   20 (A) B      0.0059
     5 (A) A   8 (A) B   16 (A) A    9 (A) B      0.0059
     5 (A) A   8 (A) B   11 (A) A   20 (A) B     -0.0059
     5 (A) A   8 (A) B   11 (A) A    9 (A) B      0.0058
     3 (A) A   5 (A) B    9 (A) A   25 (A) B      0.0058
     3 (A) A             40 (A) A                 0.0057
     7 (A) A   8 (A) B   22 (A) A   20 (A) B     -0.0057
     6 (A) A   8 (A) A    9 (A) A   18 (A) A     -0.0057
     8 (A) A   8 (A) B   19 (A) A   30 (A) B      0.0056
    -----------------------------------------------------

  Density matrix analysis:
  ------------------------
  NOs
    Occupation of frontier NOs:
       0.9496   1.0216
    Number of electrons: 16.000000
    Number of unpaired electrons: n_u =  2.31280, n_u,nl =  2.03253
    NO participation ratio (PR_NO):  2.862090
  
  
  Mulliken Population Analysis
  Atom      Charge (e)              h+              e-           Del q
  --------------------------------------------------------------------
   1 H        0.058457        0.020332       -0.012543        0.007789
   2 C       -0.110965        0.490891       -0.505915       -0.015024
   3 H        0.055314        0.020073       -0.012644        0.007429
   4 C       -0.118575        0.490757       -0.506357       -0.015600
   5 H        0.057558        0.020153       -0.012544        0.007609
   6 H        0.058211        0.020325       -0.012528        0.007797
  --------------------------------------------------------------------
  Sum:       -0.000000        1.062531       -1.062531       -0.000000
  
  Multipole moment analysis of the density matrix
    Molecular charge:                      -0.000000
    Number of electrons:                   16.000000
      Center of electronic charge [Ang]: [ -1.560555,  -0.064942,   0.001969]
    Total nuclear charge:                  16.000000
      Center of nuclear charge [Ang]:    [ -1.560576,  -0.064977,   0.001978]
    Dipole moment [D]:                     0.003209
      Cartesian components [D]:          [ -0.001635,  -0.002679,   0.000672]
    RMS size of the density [Ang]:         1.213410
      Cartesian components [Ang]:        [  0.804385,   0.785990,   0.455576]
  
  Exciton analysis of the difference density matrix
    <r_h> [Ang]:                  [ -1.560250,  -0.065548,   0.001806]
    <r_e> [Ang]:                  [ -1.560319,  -0.065511,   0.001770]
    |<r_e - r_h>| [Ang]:            0.000086
    Hole size [Ang]:                1.285160
      Cartesian components [Ang]: [  0.728505,   0.712029,   0.783537]
    Electron size [Ang]:            1.463053
      Cartesian components [Ang]: [  0.854041,   0.830209,   0.849642]

  Transition density matrix analysis:
  -----------------------------------
  
  CT numbers (Mulliken)
    omega =     0.9536
    <Phe> =    -0.1608
  
  Exciton analysis of the transition density matrix
    Trans. dipole moment [D]:             1.833336
      Cartesian components [D]:         [ -1.329833,   1.261954,   0.011588]
    <r_h> [Ang]:                        [ -1.560022,  -0.065935,   0.001822]
    <r_e> [Ang]:                        [ -1.560341,  -0.065441,   0.001750]
    |<r_e - r_h>| [Ang]:                  0.000592
    Hole size [Ang]:                      1.214138
      Cartesian components [Ang]:       [  0.649633,   0.636295,   0.804511]
    Electron size [Ang]:                  1.485890
      Cartesian components [Ang]:       [  0.864473,   0.839112,   0.869739]
    RMS electron-hole separation [Ang]:   1.936719
      Cartesian components [Ang]:       [  1.106775,   1.075098,   1.170510]
    Covariance(r_h, r_e) [Ang^2]:        -0.034439
    Correlation coefficient:             -0.019089
    Center-of-mass size [Ang]:            0.950411
      Cartesian components [Ang]:       [  0.527666,   0.515297,   0.599432]

  Decomposition into state-averaged NTOs
    H- 0 -> L+ 0: -0.6700 ( 89.8%)
    H- 2 -> L+ 5: -0.0838 (  1.4%)
                   omega =  95.4%
  ----------------------------------------------------------------------------


  Excited state 2 (singlet, A)                                     [converged]
  ----------------------------------------------------------------------------
  Term symbol:  3 (1) A                                     R^2 =  6.36832e-14

  Total energy:                                            -77.9861061030 a.u.
  Excitation energy:                                               9.068983 eV

  Osc. strength:                                                      0.000025
  Trans. dip. moment [a.u.]:           [  -0.001136,    0.000264,    0.010494]
  <i|r^2|0> [a.u.]:                    [   0.058750,    0.085128,   -0.150575]
  Two-photon absorption cross-section (SoS) [a.u.]:                   4.991607
  Two-photon absorption matrix (SoS) [a.u.]:
                                       |    0.055879    0.059722   -0.566528 |
                                       |    0.059722    0.063194   -0.537447 |
                                       |   -0.566528   -0.537447   -0.118510 |
  Two-photon absorption cross-section [a.u.]:                         0.065249
  Two-photon absorption matrix [a.u.]:
                                       |   -0.002085   -0.006584    0.067917 |
                                       |   -0.006584   -0.011354    0.057823 |
                                       |    0.067917    0.057823    0.013406 |

  Dip. moment [a.u.]:                  [  -0.028119,    0.004999,   -0.000379]
  Total dipole [Debye]:                                               0.072598
  <r^2> [a.u.]:                        [ 174.360458,   33.888506,   13.164535]
  Total <r^2> [a.u.]:                                               221.413499

  V1^2 = 0.9542, V2^2 = 0.0458

  Important amplitudes:
      occ i     occ j     vir a      vir b          v   
    -----------------------------------------------------
     7 (A) A              9 (A) A                -0.6692
     8 (A) A             11 (A) A                 0.1470
     7 (A) A             20 (A) A                -0.0759
     5 (A) A   8 (A) B    9 (A) A    9 (A) B      0.0317
     8 (A) A             16 (A) A                 0.0272
     8 (A) A             10 (A) A                -0.0188
     8 (A) A             21 (A) A                -0.0175
     5 (A) A             28 (A) A                 0.0151
     4 (A) A   7 (A) B    9 (A) A   19 (A) B      0.0135
     5 (A) A   7 (A) B    9 (A) A   16 (A) B     -0.0134
     7 (A) A   8 (A) B   20 (A) A   17 (A) B      0.0105
     8 (A) A             12 (A) A                 0.0104
     7 (A) A   8 (A) A    9 (A) A   28 (A) A     -0.0098
     5 (A) A   8 (A) B    9 (A) A   20 (A) B      0.0096
     4 (A) A   6 (A) B    9 (A) A   16 (A) B     -0.0091
     5 (A) A   6 (A) A    9 (A) A   23 (A) A     -0.0091
     5 (A) A   6 (A) A    9 (A) A   14 (A) A     -0.0089
     5 (A) A   6 (A) B    9 (A) A   19 (A) B      0.0087
     8 (A) A   7 (A) B    9 (A) A   28 (A) B      0.0085
     4 (A) A   5 (A) A    9 (A) A   10 (A) A      0.0084
     6 (A) A   7 (A) B    9 (A) A   18 (A) B     -0.0083
     5 (A) A   6 (A) B    9 (A) A   23 (A) B     -0.0080
     3 (A) A   7 (A) B    9 (A) A   18 (A) B     -0.0080
     5 (A) A   7 (A) A    9 (A) A   16 (A) A     -0.0079
     4 (A) A   8 (A) B    9 (A) A   25 (A) B      0.0077
     7 (A) A   8 (A) B   17 (A) A   20 (A) B      0.0074
     4 (A) A   7 (A) B   19 (A) A    9 (A) B      0.0074
     5 (A) A   5 (A) B    9 (A) A   13 (A) B     -0.0072
     7 (A) A   8 (A) B   19 (A) A   18 (A) B      0.0072
     5 (A) A   8 (A) A    9 (A) A   20 (A) A      0.0069
     4 (A) A   5 (A) B    9 (A) A   18 (A) B     -0.0068
     7 (A) A   7 (A) B   20 (A) A   22 (A) B     -0.0065
     7 (A) A   8 (A) B   17 (A) A    9 (A) B      0.0065
     5 (A) A   6 (A) B    9 (A) A   14 (A) B     -0.0063
     4 (A) A   7 (A) A    9 (A) A   19 (A) A      0.0061
     4 (A) A   5 (A) B   10 (A) A    9 (A) B     -0.0061
     5 (A) A   7 (A) B   11 (A) A   20 (A) B     -0.0060
     4 (A) A   7 (A) B    9 (A) A   14 (A) B      0.0060
     6 (A) A   7 (A) A   19 (A) A   28 (A) A      0.0057
     4 (A) A   8 (A) A    9 (A) A   25 (A) A      0.0057
    -----------------------------------------------------

  Density matrix analysis:
  ------------------------
  NOs
    Occupation of frontier NOs:
       0.9579   1.0539
    Number of electrons: 16.000000
    Number of unpaired electrons: n_u =  2.35479, n_u,nl =  2.06272
    NO participation ratio (PR_NO):  3.026879
  
  
  Mulliken Population Analysis
  Atom      Charge (e)              h+              e-           Del q
  --------------------------------------------------------------------
   1 H        0.145328        0.122798       -0.028138        0.094660
   2 C       -0.297503        0.268712       -0.470273       -0.201562
   3 H        0.149977        0.123104       -0.021013        0.102092
   4 C       -0.303434        0.275128       -0.475587       -0.200459
   5 H        0.152045        0.129344       -0.027249        0.102096
   6 H        0.153587        0.124636       -0.021462        0.103174
  --------------------------------------------------------------------
  Sum:        0.000000        1.043722       -1.043722       -0.000000
  
  Multipole moment analysis of the density matrix
    Molecular charge:                      0.000000
    Number of electrons:                   16.000000
      Center of electronic charge [Ang]: [ -1.559646,  -0.065143,   0.001991]
    Total nuclear charge:                  16.000000
      Center of nuclear charge [Ang]:    [ -1.560576,  -0.064977,   0.001978]
    Dipole moment [D]:                     0.072598
      Cartesian components [D]:          [ -0.071471,   0.012707,  -0.000963]
    RMS size of the density [Ang]:         1.199328
      Cartesian components [Ang]:        [  0.786843,   0.767376,   0.479999]
  
  Exciton analysis of the difference density matrix
    <r_h> [Ang]:                  [ -1.567617,  -0.051626,   0.002474]
    <r_e> [Ang]:                  [ -1.553757,  -0.054658,   0.002763]
    |<r_e - r_h>| [Ang]:            0.014191
    Hole size [Ang]:                1.484751
      Cartesian components [Ang]: [  1.002732,   0.996247,   0.454428]
    Electron size [Ang]:            1.476960
      Cartesian components [Ang]: [  0.883090,   0.857250,   0.816508]

  Transition density matrix analysis:
  -----------------------------------
  
  CT numbers (Mulliken)
    omega =     0.9218
    <Phe> =    -0.0123
  
  Exciton analysis of the transition density matrix
    Trans. dipole moment [D]:             0.013419
      Cartesian components [D]:         [ -0.001444,   0.000335,   0.013337]
    <r_h> [Ang]:                        [ -1.569297,  -0.050118,   0.002524]
    <r_e> [Ang]:                        [ -1.551831,  -0.055415,   0.002766]
    |<r_e - r_h>| [Ang]:                  0.018253
    Hole size [Ang]:                      1.512909
      Cartesian components [Ang]:       [  1.025464,   1.020028,   0.443689]
    Electron size [Ang]:                  1.474320
      Cartesian components [Ang]:       [  0.873918,   0.846889,   0.832265]
    RMS electron-hole separation [Ang]:   2.092770
      Cartesian components [Ang]:       [  1.331473,   1.311006,   0.942406]
    Covariance(r_h, r_e) [Ang^2]:         0.041580
    Correlation coefficient:              0.018641
    Center-of-mass size [Ang]:            1.066029
      Cartesian components [Ang]:       [  0.681561,   0.670195,   0.471943]

  Decomposition into state-averaged NTOs
    H- 1 -> L+ 0: -0.6615 ( 87.5%)
    H- 0 -> L+ 2:  0.1475 (  4.4%)
                   omega =  92.2%
  ----------------------------------------------------------------------------


  Excited state 3 (singlet, A)                                     [converged]
  ----------------------------------------------------------------------------
  Term symbol:  4 (1) A                                     R^2 =  8.66460e-14

  Total energy:                                            -77.9820876832 a.u.
  Excitation energy:                                               9.178330 eV

  Osc. strength:                                                      0.025520
  Trans. dip. moment [a.u.]:           [  -0.015189,   -0.020740,    0.335900]
  <i|r^2|0> [a.u.]:                    [  -0.091761,   -0.006367,    0.001254]
  Two-photon absorption cross-section (SoS) [a.u.]:                   0.002479
  Two-photon absorption matrix (SoS) [a.u.]:
                                       |   -0.004803   -0.001084    0.016961 |
                                       |   -0.001084    0.002601   -0.001508 |
                                       |    0.016961   -0.001508   -0.001288 |
  Two-photon absorption cross-section [a.u.]:                         0.001212
  Two-photon absorption matrix [a.u.]:
                                       |   -0.003925    0.000453    0.005586 |
                                       |    0.000453    0.001999   -0.010146 |
                                       |    0.005586   -0.010146   -0.002370 |

  Dip. moment [a.u.]:                  [   0.006020,   -0.037412,   -0.002339]
  Total dipole [Debye]:                                               0.096498
  <r^2> [a.u.]:                        [ 180.908700,   40.462646,   11.026516]
  Total <r^2> [a.u.]:                                               232.397862

  V1^2 = 0.9588, V2^2 = 0.0412

  Important amplitudes:
      occ i     occ j     vir a      vir b          v   
    -----------------------------------------------------
     8 (A) A             10 (A) A                -0.6889
     8 (A) A             24 (A) A                -0.0507
     8 (A) A             18 (A) A                 0.0309
     4 (A) A              9 (A) A                -0.0236
     8 (A) A   8 (A) B    9 (A) A   12 (A) B      0.0218
     7 (A) A              9 (A) A                 0.0193
     8 (A) A   8 (A) B   10 (A) A   17 (A) B     -0.0173
     8 (A) A             15 (A) A                -0.0170
     5 (A) A   8 (A) B   11 (A) A   10 (A) B      0.0164
     7 (A) A   8 (A) B   13 (A) A   10 (A) B     -0.0141
     4 (A) A   8 (A) B   12 (A) A   10 (A) B      0.0110
     6 (A) A   8 (A) A   10 (A) A   15 (A) A     -0.0110
     7 (A) A   8 (A) B   22 (A) A   10 (A) B      0.0108
     6 (A) A   8 (A) B   15 (A) A   10 (A) B      0.0108
     4 (A) A   8 (A) A   10 (A) A   12 (A) A     -0.0106
     7 (A) A   8 (A) A   10 (A) A   22 (A) A     -0.0099
     7 (A) A   8 (A) A   10 (A) A   13 (A) A      0.0097
     5 (A) A   8 (A) B   21 (A) A   10 (A) B     -0.0094
     5 (A) A   8 (A) A   10 (A) A   11 (A) A     -0.0093
     6 (A) A   8 (A) A   10 (A) A   18 (A) A     -0.0088
     6 (A) A   8 (A) B   10 (A) A   10 (A) B     -0.0087
     7 (A) A   8 (A) A   12 (A) A   16 (A) A      0.0081
     5 (A) A   8 (A) A   10 (A) A   21 (A) A      0.0080
     3 (A) A   4 (A) B   10 (A) A    9 (A) B      0.0079
     4 (A) A   8 (A) B   19 (A) A   10 (A) B     -0.0075
     8 (A) A   8 (A) B    9 (A) A   23 (A) B     -0.0075
     8 (A) A   8 (A) B   10 (A) A   28 (A) B      0.0073
     3 (A) A   8 (A) B   10 (A) A   10 (A) B     -0.0072
     3 (A) A   8 (A) A   10 (A) A   24 (A) A      0.0071
     5 (A) A   8 (A) B   10 (A) A   11 (A) B      0.0071
     7 (A) A   8 (A) B   16 (A) A   12 (A) B     -0.0070
     3 (A) A   8 (A) B   10 (A) A   18 (A) B      0.0069
     8 (A) A   8 (A) B    9 (A) A   19 (A) B     -0.0067
     6 (A) A   8 (A) B   18 (A) A   10 (A) B      0.0067
     3 (A) A   6 (A) B   10 (A) A   28 (A) B     -0.0062
     6 (A) A             28 (A) A                 0.0057
     7 (A) A   8 (A) B   12 (A) A   11 (A) B     -0.0057
     3 (A) A   5 (A) B   10 (A) A   25 (A) B      0.0056
     3 (A) A   8 (A) A   10 (A) A   18 (A) A      0.0056
     5 (A) A   8 (A) A   10 (A) A   16 (A) A     -0.0056
    -----------------------------------------------------

  Density matrix analysis:
  ------------------------
  NOs
    Occupation of frontier NOs:
       0.9822   0.9843
    Number of electrons: 16.000000
    Number of unpaired electrons: n_u =  2.28618, n_u,nl =  2.02463
    NO participation ratio (PR_NO):  2.693771
  
  
  Mulliken Population Analysis
  Atom      Charge (e)              h+              e-           Del q
  --------------------------------------------------------------------
   1 H       -0.163204        0.053737       -0.267609       -0.213872
   2 C        0.332400        0.535968       -0.107627        0.428341
   3 H       -0.162365        0.053912       -0.264163       -0.210250
   4 C        0.328337        0.539090       -0.107778        0.431312
   5 H       -0.170499        0.053498       -0.273946       -0.220449
   6 H       -0.164668        0.054259       -0.269340       -0.215082
  --------------------------------------------------------------------
  Sum:        0.000000        1.290463       -1.290463       -0.000000
  
  Multipole moment analysis of the density matrix
    Molecular charge:                      -0.000000
    Number of electrons:                   16.000000
      Center of electronic charge [Ang]: [ -1.560775,  -0.063740,   0.002056]
    Total nuclear charge:                  16.000000
      Center of nuclear charge [Ang]:    [ -1.560576,  -0.064977,   0.001978]
    Dipole moment [D]:                     0.096498
      Cartesian components [D]:          [  0.015303,  -0.095091,  -0.005945]
    RMS size of the density [Ang]:         1.275653
      Cartesian components [Ang]:        [  0.854520,   0.839110,   0.439294]
  
  Exciton analysis of the difference density matrix
    <r_h> [Ang]:                  [ -1.561975,  -0.064129,   0.001873]
    <r_e> [Ang]:                  [ -1.564764,  -0.049190,   0.002911]
    |<r_e - r_h>| [Ang]:            0.015233
    Hole size [Ang]:                1.410110
      Cartesian components [Ang]: [  0.834489,   0.819002,   0.788210]
    Electron size [Ang]:            2.076434
      Cartesian components [Ang]: [  1.375185,   1.375109,   0.727679]

  Transition density matrix analysis:
  -----------------------------------
  
  CT numbers (Mulliken)
    omega =     0.9261
    <Phe> =    -0.0109
  
  Exciton analysis of the transition density matrix
    Trans. dipole moment [D]:             0.428135
      Cartesian components [D]:         [ -0.019304,  -0.026358,   0.426886]
    <r_h> [Ang]:                        [ -1.561109,  -0.066764,   0.001678]
    <r_e> [Ang]:                        [ -1.566158,  -0.044235,   0.003214]
    |<r_e - r_h>| [Ang]:                  0.023139
    Hole size [Ang]:                      1.213273
      Cartesian components [Ang]:       [  0.636895,   0.623968,   0.822835]
    Electron size [Ang]:                  2.295884
      Cartesian components [Ang]:       [  1.519511,   1.521514,   0.804466]
    RMS electron-hole separation [Ang]:   2.586967
      Cartesian components [Ang]:       [  1.640125,   1.637670,   1.149097]
    Covariance(r_h, r_e) [Ang^2]:         0.025627
    Correlation coefficient:              0.009200
    Center-of-mass size [Ang]:            1.303300
      Cartesian components [Ang]:       [  0.827513,   0.825716,   0.576200]

  Decomposition into state-averaged NTOs
    H- 0 -> L+ 1: -0.6792 ( 92.3%)
                   omega =  92.6%
  ----------------------------------------------------------------------------


  Excited state 4 (singlet, A)                                     [converged]
  ----------------------------------------------------------------------------
  Term symbol:  5 (1) A                                     R^2 =  1.82698e-13

  Total energy:                                            -77.9574565152 a.u.
  Excitation energy:                                               9.848578 eV

  Osc. strength:                                                      0.000013
  Trans. dip. moment [a.u.]:           [   0.000621,    0.000146,   -0.007353]
  <i|r^2|0> [a.u.]:                    [   0.023304,    0.017163,   -0.036683]
  Two-photon absorption cross-section (SoS) [a.u.]:                 151.970357
  Two-photon absorption matrix (SoS) [a.u.]:
                                       |    0.304435    0.328946   -3.128081 |
                                       |    0.328946    0.350117   -2.963417 |
                                       |   -3.128081   -2.963417   -0.653795 |
  Two-photon absorption cross-section [a.u.]:                        93.901758
  Two-photon absorption matrix [a.u.]:
                                       |    0.243452    0.258977   -2.467243 |
                                       |    0.258977    0.271102   -2.320569 |
                                       |   -2.467243   -2.320569   -0.513688 |

  Dip. moment [a.u.]:                  [   0.043244,    0.026803,    0.003230]
  Total dipole [Debye]:                                               0.129576
  <r^2> [a.u.]:                        [ 181.991363,   40.022119,   10.760463]
  Total <r^2> [a.u.]:                                               232.773944

  V1^2 = 0.9635, V2^2 = 0.0365

  Important amplitudes:
      occ i     occ j     vir a      vir b          v   
    -----------------------------------------------------
     8 (A) A             11 (A) A                 0.6694
     7 (A) A              9 (A) A                 0.1491
     8 (A) A             21 (A) A                -0.0780
     8 (A) A             16 (A) A                 0.0641
     8 (A) A             12 (A) A                 0.0272
     8 (A) A   8 (A) B    9 (A) A   13 (A) B     -0.0167
     5 (A) A   8 (A) B   11 (A) A   11 (A) B     -0.0155
     6 (A) A              9 (A) A                 0.0146
     8 (A) A   8 (A) B   11 (A) A   17 (A) B      0.0140
     7 (A) A             20 (A) A                 0.0136
     7 (A) A   8 (A) B   13 (A) A   11 (A) B      0.0128
     5 (A) A   8 (A) A   11 (A) A   21 (A) A     -0.0110
     4 (A) A   8 (A) B   12 (A) A   11 (A) B     -0.0109
     8 (A) A   8 (A) B    9 (A) A   22 (A) B      0.0107
     7 (A) A   8 (A) A   11 (A) A   22 (A) A      0.0096
     6 (A) A   8 (A) B   15 (A) A   11 (A) B     -0.0090
     6 (A) A   8 (A) B   10 (A) A   11 (A) B      0.0089
     7 (A) A   8 (A) B   22 (A) A   11 (A) B     -0.0089
     3 (A) A   4 (A) B   11 (A) A    9 (A) B     -0.0083
     3 (A) A   8 (A) B   11 (A) A   18 (A) B     -0.0081
     6 (A) A   8 (A) A   11 (A) A   15 (A) A      0.0081
     7 (A) A   8 (A) A   13 (A) A   16 (A) A     -0.0078
     7 (A) A   8 (A) A   11 (A) A   13 (A) A     -0.0077
     5 (A) A   8 (A) B   21 (A) A   11 (A) B      0.0071
     4 (A) A   8 (A) B   19 (A) A   11 (A) B      0.0070
     5 (A) A   8 (A) B    9 (A) A    9 (A) B     -0.0067
     4 (A) A   8 (A) A   11 (A) A   12 (A) A      0.0062
     6 (A) A   8 (A) A   11 (A) A   18 (A) A      0.0062
     3 (A) A   6 (A) B   11 (A) A   28 (A) B      0.0061
     6 (A) A   8 (A) B   18 (A) A   11 (A) B     -0.0060
     7 (A) A   8 (A) B   16 (A) A   13 (A) B      0.0057
     3 (A) A   8 (A) A   11 (A) A   18 (A) A     -0.0056
     5 (A) A   8 (A) B   10 (A) A   10 (A) B     -0.0056
     3 (A) A   8 (A) B   11 (A) A   30 (A) B     -0.0055
     3 (A) A   5 (A) B   11 (A) A   25 (A) B     -0.0054
     6 (A) A   8 (A) B   11 (A) A   10 (A) B      0.0054
     7 (A) A   8 (A) B   12 (A) A   10 (A) B      0.0053
     8 (A) A   8 (A) B   20 (A) A   22 (A) B      0.0053
     3 (A) A   8 (A) A   11 (A) A   24 (A) A     -0.0053
     5 (A) A   8 (A) A   11 (A) A   16 (A) A      0.0048
    -----------------------------------------------------

  Density matrix analysis:
  ------------------------
  NOs
    Occupation of frontier NOs:
       0.9411   1.0275
    Number of electrons: 16.000000
    Number of unpaired electrons: n_u =  2.31857, n_u,nl =  2.04875
    NO participation ratio (PR_NO):  2.911031
  
  
  Mulliken Population Analysis
  Atom      Charge (e)              h+              e-           Del q
  --------------------------------------------------------------------
   1 H       -0.153231        0.045277       -0.249175       -0.203899
   2 C        0.281560        0.496547       -0.119045        0.377502
   3 H       -0.124272        0.047415       -0.219572       -0.172157
   4 C        0.274111        0.498251       -0.121165        0.377086
   5 H       -0.109471        0.047508       -0.206929       -0.159420
   6 H       -0.168699        0.045511       -0.264623       -0.219112
  --------------------------------------------------------------------
  Sum:        0.000000        1.180510       -1.180510       -0.000000
  
  Multipole moment analysis of the density matrix
    Molecular charge:                      0.000000
    Number of electrons:                   16.000000
      Center of electronic charge [Ang]: [ -1.562006,  -0.065864,   0.001871]
    Total nuclear charge:                  16.000000
      Center of nuclear charge [Ang]:    [ -1.560576,  -0.064977,   0.001978]
    Dipole moment [D]:                     0.129576
      Cartesian components [D]:          [  0.109915,   0.068126,   0.008210]
    RMS size of the density [Ang]:         1.276618
      Cartesian components [Ang]:        [  0.863313,   0.834338,   0.433963]
  
  Exciton analysis of the difference density matrix
    <r_h> [Ang]:                  [ -1.562285,  -0.065337,   0.001773]
    <r_e> [Ang]:                  [ -1.582020,  -0.077791,   0.000411]
    |<r_e - r_h>| [Ang]:            0.023376
    Hole size [Ang]:                1.394822
      Cartesian components [Ang]: [  0.818925,   0.806084,   0.790645]
    Electron size [Ang]:            2.125592
      Cartesian components [Ang]: [  1.476814,   1.369470,   0.679494]

  Transition density matrix analysis:
  -----------------------------------
  
  CT numbers (Mulliken)
    omega =     0.9299
    <Phe> =    -0.0133
  
  Exciton analysis of the transition density matrix
    Trans. dipole moment [D]:             0.009380
      Cartesian components [D]:         [  0.000789,   0.000186,  -0.009345]
    <r_h> [Ang]:                        [ -1.560667,  -0.065088,   0.001811]
    <r_e> [Ang]:                        [ -1.586415,  -0.079825,   0.000126]
    |<r_e - r_h>| [Ang]:                  0.029715
    Hole size [Ang]:                      1.227695
      Cartesian components [Ang]:       [  0.655937,   0.651547,   0.807755]
    Electron size [Ang]:                  2.264441
      Cartesian components [Ang]:       [  1.575670,   1.457242,   0.722082]
    RMS electron-hole separation [Ang]:   2.565373
      Cartesian components [Ang]:       [  1.698242,   1.588795,   1.082978]
    Covariance(r_h, r_e) [Ang^2]:         0.027337
    Correlation coefficient:              0.009833
    Center-of-mass size [Ang]:            1.293213
      Cartesian components [Ang]:       [  0.857702,   0.801886,   0.541965]

  Decomposition into state-averaged NTOs
    H- 0 -> L+ 2:  0.6641 ( 88.2%)
    H- 1 -> L+ 0:  0.1471 (  4.3%)
                   omega =  93.0%
  ----------------------------------------------------------------------------


  Excited state 5 (singlet, A)                                     [converged]
  ----------------------------------------------------------------------------
  Term symbol:  6 (1) A                                     R^2 =  2.27054e-13

  Total energy:                                            -77.9437807504 a.u.
  Excitation energy:                                              10.220715 eV

  Osc. strength:                                                      0.000005
  Trans. dip. moment [a.u.]:           [  -0.000150,   -0.000223,    0.004264]
  <i|r^2|0> [a.u.]:                    [   0.086603,   -0.106175,    0.018914]
  Two-photon absorption cross-section (SoS) [a.u.]:                 172.880876
  Two-photon absorption matrix (SoS) [a.u.]:
                                       |    0.305109    0.026275   -3.172080 |
                                       |    0.026275   -0.398611    3.378768 |
                                       |   -3.172080    3.378768    0.102420 |
  Two-photon absorption cross-section [a.u.]:                        75.855235
  Two-photon absorption matrix [a.u.]:
                                       |    0.202251    0.016441   -2.075062 |
                                       |    0.016441   -0.263722    2.262270 |
[...]
    16   -1.472808050829e-03
    17   -1.795372466181e-03
    18    6.903811699502e-05
    19   -3.246258759026e-03
    20    9.655772444612e-03
    21    9.261269180859e-01
    22   -2.678249874872e-04
    23    1.401370126174e-02
    24    8.272158370620e-04
    25    7.095500569918e-02
    26   -5.311970838428e-02
    27   -1.408526047783e+00
    28    9.720697698688e-02
    29   -9.380391929303e-02
    30   -1.201090652310e-03
    31    3.843080522394e-01
    32   -3.677809852687e-01
    33   -4.578231934382e-03
    34    1.576411948727e-02
    35   -1.492112195261e-03
    36   -1.801154839542e-03
    37   -2.768140822020e-04
    38   -3.290944021503e-03
    39    1.078794622937e-02
    40    9.472052554930e-01
    41    1.238770918899e-04
    42   -1.407720701214e-02
    43   -8.459445448237e-04
    44    9.397517191993e-03
    45    9.395853497623e-01
    46    1.415837380649e-02
    47    3.902136036510e-04
    48    6.837242785550e-04
Sym=X
Ene= 0.233297
Spin=Alpha
Occup=0
     1   -2.742696589379e-02
     2   -1.283649038126e+00
     3    1.499926497932e-02
     4    4.180624121502e-03
     5    9.558373570873e-04
     6   -7.460441514009e-03
     7    8.034889886043e-03
     8    1.142971142333e-01
     9    1.564578750964e-01
    10    1.540945704117e-01
    11    1.658420307632e-02
    12    5.660575408417e-01
    13    5.468377186817e-01
    14    5.936176420848e-02
    15   -1.303599012913e-03
    16    1.525655358477e-04
    17    1.452838929285e-04
    18    2.413953785567e-04
    19    7.647253717506e-04
    20    2.277339741416e-02
    21    1.113853802163e+00
    22    2.116615755754e-03
    23    1.307383942013e-02
    24    8.817639649653e-04
    25    8.117583317177e-03
    26   -8.285096854639e-03
    27   -1.367759252820e-01
    28    1.575830642467e-01
    29    1.553764651562e-01
    30    1.674420295592e-02
    31    5.644596241206e-01
    32    5.400937843265e-01
    33    5.900941304202e-02
    34    1.855855353509e-03
    35   -2.356465217085e-04
    36   -1.814923141021e-04
    37   -7.370424355408e-04
    38   -1.115998182670e-03
    39   -2.334086711478e-02
    40   -1.090688503533e+00
    41    1.971660026763e-03
    42    1.265871986607e-02
    43    8.529235026220e-04
    44    2.646960053844e-02
    45    1.287793257755e+00
    46    1.529659252095e-02
    47    4.265761474740e-03
    48    9.754070177977e-04
Sym=X
Ene= 0.239861
Spin=Alpha
Occup=0
     1    1.390044977303e-02
     2    9.896857470929e-01
     3   -1.592333239290e-02
     4   -9.031835107317e-03
     5   -1.295068810419e-03
     6    8.657446898467e-02
     7   -7.937271767583e-02
     8   -1.611928102120e+00
     9   -4.569404776058e-02
    10    6.842262016475e-02
    11    1.870877385080e-03
    12   -1.821933085576e-01
    13    2.673609474502e-01
    14    7.048610661831e-03
    15    2.302531577048e-02
    16   -2.656734002099e-03
    17   -3.043386951962e-03
    18    7.049995447642e-04
    19   -1.297827973369e-02
    20    1.692003091869e-02
    21    1.205116485648e+00
    22    8.693014147241e-03
    23    1.910469206540e-02
    24    1.549495906273e-03
    25   -8.550752628403e-02
    26    7.812355658697e-02
    27    1.583390095267e+00
    28   -4.376824346678e-02
    29    7.004944395199e-02
    30    2.299105427360e-03
    31   -1.733553448709e-01
    32    2.707269152868e-01
    33    8.675860015848e-03
    34   -2.246481134078e-02
    35    2.550841292188e-03
    36    3.020381542436e-03
    37   -1.133893185351e-03
    38    1.265397018575e-02
    39   -1.727109515758e-02
    40   -1.190702512669e+00
    41    8.714679594725e-03
    42    1.869034153256e-02
    43    1.542985018607e-03
    44   -1.484859720923e-02
    45   -9.681583352721e-01
    46   -1.543770433258e-02
    47   -9.068183375689e-03
    48   -1.259152883020e-03
Sym=X
Ene= 0.303317
Spin=Alpha
Occup=0
     1    2.031436514040e-02
     2   -1.694784735983e+00
     3    2.279101466405e-02
     4   -4.521668864564e-04
     5    1.060524428667e-03
     6    4.689216940347e-04
     7   -1.596215549731e-04
     8   -2.538133642274e-02
     9    1.340671635263e-01
    10    1.391636321084e-01
    11    1.463868016802e-02
    12    1.150117286399e+00
    13    1.197699050817e+00
    14    1.258930573558e-01
    15    6.319389429347e-04
    16    1.578150416884e-03
    17   -1.953650300565e-03
    18    3.275084509562e-02
    19    1.209047840901e-03
    20   -2.112652635705e-02
    21    1.714559909128e+00
    22   -1.403947802093e-03
    23    2.295948772655e-02
    24    1.293241963638e-03
    25   -1.728477735933e-04
    26   -5.815334181772e-04
    27    1.537912668050e-02
    28   -1.344271138176e-01
    29   -1.395613950262e-01
    30   -1.470946081288e-02
    31   -1.137263218388e+00
    32   -1.198138885118e+00
    33   -1.254089497730e-01
    34   -9.952383468614e-05
    35    1.598662535038e-03
    36   -1.860195058318e-03
    37    3.211033665847e-02
    38    1.695879240213e-03
    39   -1.896380892091e-02
    40    1.687897139074e+00
    41    1.628728750650e-03
    42   -2.264613196402e-02
    43   -1.278090085153e-03
    44    1.940441249228e-02
    45   -1.698660571788e+00
    46   -2.300904392383e-02
    47    3.143527118436e-04
    48   -1.069286540215e-03
Sym=X
Ene= 0.462129
Spin=Alpha
Occup=0
     1   -1.159290882651e-01
     2   -7.089963824163e-01
     3   -1.583430960395e-02
     4   -1.033382172457e-02
     5   -1.365127243593e-03
     6    6.051459078827e-02
     7    1.738006242271e-02
     8   -3.579141539487e+00
     9    1.023758035356e-01
    10   -9.870836035028e-02
    11   -1.107818482046e-03
    12    2.421931064559e+00
    13   -2.313006083127e+00
    14   -2.204750214986e-02
    15    5.351631466024e-02
    16   -3.411759552051e-03
    17   -4.655688582297e-03
    18   -1.167458765784e-03
    19    1.753842746203e-02
    20   -1.200772446899e-01
    21   -7.206893812008e-01
    22    8.564579554523e-03
    23    1.644781945603e-02
    24    1.384638613064e-03
    25   -6.092570788023e-02
    26   -1.580729333909e-02
    27    3.590302652372e+00
    28    1.057345795620e-01
    29   -1.011229712760e-01
    30   -1.234488928599e-03
    31    2.423982150663e+00
    32   -2.294681677382e+00
    33   -2.150422482524e-02
    34   -5.265449754632e-02
    35    3.242032444320e-03
    36    4.527383119813e-03
    37    5.409931581414e-04
    38   -1.907764668518e-02
    39    1.147770040348e-01
    40    7.081186562261e-01
    41    8.528165784439e-03
    42    1.630396781791e-02
    43    1.372704161283e-03
    44    1.106212953980e-01
    45    7.217241167476e-01
    46   -1.540993067639e-02
    47   -9.877208897534e-03
    48   -1.326763083739e-03
Sym=X
Ene= 0.577324
Spin=Alpha
Occup=0
     1    2.434263515030e-01
     2    3.725167040298e-02
     3   -1.861177399937e-02
     4    2.590827742549e-02
     5    6.613769675996e-04
     6   -4.068056600012e-03
     7   -1.555323151172e-01
     8   -4.839166050873e-01
     9    2.976045206757e-01
    10   -2.888873978520e-01
    11   -3.040393271594e-03
    12   -7.054101045822e-01
    13    7.007430638962e-01
    14    8.430677795870e-03
    15   -5.906501949527e-03
    16    3.860713541663e-03
    17    3.781631400534e-03
    18   -4.966244524590e-03
    19    6.019602830674e-02
    20    2.609758283864e-01
    21    3.384361940303e-02
    22   -2.517363279989e-02
    23    1.495905189320e-02
    24   -3.020599900825e-04
    25   -5.759671780022e-03
    26   -1.571630852656e-01
    27   -3.999640236121e-01
    28   -2.967032538586e-01
    29    2.842909056443e-01
    30    2.779938402480e-03
    31    7.683122027048e-01
    32   -7.393447906544e-01
    33   -7.878061973488e-03
    34   -6.265462936312e-03
    35    3.994266030735e-03
    36    3.691614515952e-03
    37   -2.758754186713e-03
    38    6.023056277506e-02
    39    2.477811922631e-01
    40    5.407575069432e-02
    41    2.765664776542e-02
    42   -1.730210917654e-02
    43    2.672815759190e-04
    44    2.535265931816e-01
    45    5.488520939939e-02
    46    1.780236612211e-02
    47   -2.565253246677e-02
    48   -6.986912410977e-04
Sym=X
Ene= 0.615779
Spin=Alpha
Occup=0
     1   -5.297751837175e-01
     2    1.967294476018e-01
     3   -6.168066056386e-02
     4    3.705872404880e-02
     5   -7.246165471830e-04
     6   -9.636634662957e-04
     7    3.060100886437e-03
     8   -2.074764241148e-02
     9   -4.336914092084e-02
    10   -3.969082524481e-02
    11   -4.434021665537e-03
    12    3.158779424198e-01
    13    2.908340131660e-01
    14    3.225762018924e-02
    15    4.050449236762e-03
    16   -7.747231498056e-03
    17    7.976295353163e-03
    18   -1.468620592559e-01
    19   -7.416041263041e-03
    20    4.964329127220e-01
    21   -1.769143866894e-01
    22    4.223352085327e-02
    23   -5.789145491469e-02
    24   -1.443283498022e-03
    25    4.806897754187e-04
    26   -1.867169811350e-03
    27    2.833644805952e-02
    28   -3.877437050713e-02
    29   -4.079092153560e-02
    30   -4.265021243978e-03
    31    2.928354737891e-01
    32    2.957641952802e-01
    33    3.159365351322e-02
    34   -1.057213460996e-03
    35    7.402489917558e-03
    36   -8.667928778107e-03
    37    1.496494989211e-01
    38    5.357677848259e-03
    39   -5.191301256063e-01
    40    2.061917571770e-01
    41    4.065439057888e-02
    42   -5.880721863391e-02
    43   -1.605888934854e-03
    44    5.194169715305e-01
    45   -2.092744388037e-01
    46   -6.177684922135e-02
    47    3.813057602968e-02
    48   -6.248568635294e-04
Sym=X
Ene= 0.689249
Spin=Alpha
Occup=0
     1    3.423266912354e-04
     2    2.288743622937e-04
     3    1.021799484004e-03
     4    1.283272256571e-03
     5   -2.090905163438e-02
     6    2.242269819612e-05
     7    1.252256694639e-04
     8    2.021824853553e-04
     9    3.168055840407e-02
    10    3.998036994060e-02
    11   -6.700458228136e-01
    12   -2.966787223913e-02
    13   -3.598256672576e-02
    14    6.139724594817e-01
    15   -1.364982529382e-03
    16    8.264536715153e-02
    17   -7.858598237563e-02
    18   -8.619516380452e-03
    19   -1.095099136010e-03
    20    3.542115317725e-04
    21    2.041199542547e-04
    22    1.029918079445e-03
    23    1.312190305161e-03
    24   -2.264328133963e-02
    25    9.719613102315e-08
    26    3.466206404782e-04
    27   -4.829798836131e-04
    28    3.184046762905e-02
    29    3.996368664824e-02
    30   -6.702551094391e-01
    31   -2.981093477706e-02
    32   -3.593470069628e-02
    33    6.131307532649e-01
    34    1.197959068213e-03
    35   -8.262348292853e-02
    36    7.844554483861e-02
    37    8.589412767371e-03
    38    1.156103408425e-03
    39   -2.815371501106e-05
    40   -5.085092241880e-04
    41    9.922124565460e-04
    42    1.346528008481e-03
    43   -2.110348648819e-02
    44   -3.447344824416e-05
    45   -4.662961554172e-04
    46    9.143743996276e-04
    47    1.269874222744e-03
    48   -2.105881570362e-02
Sym=X
Ene= 0.709862
Spin=Alpha
Occup=0
     1   -4.654128991619e-01
     2    1.599357658669e-01
     3   -7.984159509802e-02
     4   -4.448822056370e-02
     5   -6.472511597040e-03
     6   -4.704270711313e-02
     7   -3.272197063299e-01
     8    5.140157649728e-01
     9    2.087301220716e-01
    10   -1.894594863807e-01
    11   -1.647000412280e-03
    12   -1.063875644551e-01
    13    5.874924290013e-02
    14   -1.718061879285e-03
    15    1.920516062830e-01
    16   -2.034641933195e-02
    17   -2.379686803165e-02
    18    3.234596911007e-03
    19   -7.718006205066e-02
    20   -4.697809090395e-01
    21    1.177249864500e-01
    22    4.073323211002e-02
    23    8.065920181056e-02
    24    6.699268664032e-03
    25   -4.792873088560e-02
    26   -3.199810280470e-01
    27    4.721251608852e-01
    28   -2.037777597614e-01
    29    1.910524820579e-01
    30    1.437833830553e-03
    31    7.203928650854e-02
    32   -5.909021706910e-02
    33    7.126844175445e-04
    34    1.966089392745e-01
    35   -2.075609541722e-02
    36   -2.410228787979e-02
    37    9.774400143945e-04
    38   -7.583045350715e-02
    39   -4.730916629776e-01
    40    1.394617894058e-01
    41   -4.150745007687e-02
    42   -8.169695356201e-02
    43   -6.828092107917e-03
    44   -4.863289058579e-01
    45    1.576370678404e-01
    46    8.278617661561e-02
    47    4.372660211322e-02
    48    6.551037760272e-03
Sym=X
Ene= 0.786008
Spin=Alpha
Occup=0
     1   -5.323106062113e-01
     2    4.887513043457e-01
     3   -1.138923085776e-01
     4   -2.719377111534e-02
     5   -7.033573150030e-03
     6   -9.216483821535e-02
     7    2.032454135665e-01
     8    6.660721039743e-01
     9   -1.001098089432e-01
    10    1.160221375569e-01
    11    1.546134572976e-03
    12   -3.393341900238e-01
    13    2.604382978708e-01
    14    3.598317715221e-04
    15    2.104071404733e-01
    16   -1.805443908031e-02
    17   -2.219789770715e-02
    18   -1.392927176086e-03
    19   -9.959590963217e-03
    20   -5.384958255439e-01
    21    4.314178100398e-01
    22    1.997238878525e-02
    23    1.121154031610e-01
    24    7.604712933937e-03
    25    9.083351805157e-02
    26   -2.208258928082e-01
    27   -6.452388400191e-01
    28   -1.148525357207e-01
    29    1.100990492304e-01
    30    1.495049917157e-03
    31   -3.076054032783e-01
    32    2.828082689813e-01
    33    1.252426549669e-03
    34   -2.050028116865e-01
    35    1.720320440837e-02
    36    2.188326646112e-02
    37   -1.753517931443e-03
    38    7.375985778211e-03
    39    5.407624215361e-01
    40   -4.632403125261e-01
    41    1.885964441435e-02
    42    1.123273162861e-01
    43    7.609107130902e-03
    44    5.206256927437e-01
    45   -4.628521075445e-01
    46   -1.087636465099e-01
    47   -2.711305322100e-02
    48   -6.771316257421e-03
Sym=X
Ene= 0.808028
Spin=Alpha
Occup=0
     1    3.177843244819e-04
     2   -4.182083664629e-04
     3    1.669544968586e-03
     4    2.009798845429e-03
     5   -3.362526518322e-02
     6    6.921750762608e-05
     7   -3.108500681969e-04
     8   -3.442076550688e-05
     9    3.634756877725e-02
    10    4.518216160530e-02
    11   -7.626699059901e-01
    12   -5.337638292124e-02
    13   -6.708365939240e-02
    14    1.127525582694e+00
    15    8.305740515419e-04
    16   -6.514510474363e-02
    17    6.179536745484e-02
    18    6.798502776943e-03
    19    8.788333662678e-04
    20    3.228312953421e-04
    21   -2.186509319972e-04
    22    1.736398031153e-03
    23    2.114389529976e-03
    24   -3.641310808248e-02
    25   -5.121360241226e-05
    26   -6.222580541795e-05
    27    2.262572219455e-04
    28   -3.609016823084e-02
    29   -4.568334057753e-02
    30    7.631152170938e-01
    31    5.372294719639e-02
    32    6.708863294805e-02
    33   -1.127150062185e+00
    34    1.208263631719e-03
    35   -6.505054427175e-02
    36    6.184708668841e-02
    37    6.754041048637e-03
    38    9.411525721837e-04
    39   -3.171677573838e-04
    40    3.573256689392e-04
    41   -1.583533492822e-03
    42   -2.190859569935e-03
    43    3.423160592619e-02
    44   -3.110590785563e-04
    45    4.963241035774e-04
    46   -1.436136903469e-03
    47   -2.030507835809e-03
    48    3.372276398263e-02
Sym=X
Ene= 0.862954
Spin=Alpha
Occup=0
     1    4.568312303998e-03
     2   -1.088261505952e+00
     3    1.455532424704e-01
     4    5.638086400352e-02
     5    1.022984281427e-02
     6   -1.391466795831e-03
     7   -6.592534198190e-03
     8    4.985866453416e-03
     9   -4.048506524912e-01
    10   -4.169164634505e-01
    11   -4.397541088135e-02
    12    9.442311225385e-01
    13    9.833214183584e-01
    14    1.032237843129e-01
    15    4.307650503414e-03
    16    1.135263486295e-02
    17   -1.407883165006e-02
    18    2.355630266797e-01
    19    9.826579366444e-03
    20   -1.579524380206e-02
    21    1.101869715506e+00
    22    5.007804118601e-02
    23    1.514566308244e-01
    24    1.142685206264e-02
    25    8.757734999808e-04
    26   -5.409095060294e-03
    27    6.768630767716e-03
    28   -4.147860425900e-01
    29   -4.321808508790e-01
    30   -4.551983243977e-02
    31    9.593792990080e-01
    32    1.013859020104e+00
    33    1.061251052511e-01
    34   -1.814327970518e-03
    35   -1.178784697373e-02
    36    1.392931801476e-02
    37   -2.384805664396e-01
    38   -1.171355452873e-02
    39    1.977999150022e-02
    40   -1.119879777619e+00
    41    4.836046365069e-02
    42    1.552101181468e-01
    43    1.162211010185e-02
    44   -1.113051523596e-02
    45    1.102345118225e+00
    46    1.497267833525e-01
    47    5.552565810118e-02
    48    1.034753199211e-02
Sym=X
Ene= 0.937279
Spin=Alpha
Occup=0
     1    1.064540104595e-01
     2   -1.324375147284e+00
     3    1.846495918878e-01
     4   -2.970459410614e-03
     5    8.638843505761e-03
     6   -1.920824266650e-03
     7   -1.844603080437e-02
     8    1.482086073471e-02
     9   -4.896910453481e-01
    10   -4.902924671122e-01
    11   -5.242354546821e-02
    12    1.524116612358e+00
    13    1.532379803378e+00
    14    1.635581475688e-01
    15    7.242632247861e-03
    16    5.828091995673e-03
    17   -7.638972059735e-03
    18    1.237500368228e-01
    19    8.072065504285e-03
    20   -1.171593196110e-01
    21    1.291070235001e+00
    22   -1.343768277952e-02
    23    1.834842801655e-01
    24    1.022557262322e-02
    25    9.886177488795e-04
    26   -1.350003297353e-02
    27    4.039998677805e-02
    28    4.614585778004e-01
    29    5.016933752937e-01
    30    5.181585173809e-02
    31   -1.448724595038e+00
    32   -1.552190594510e+00
    33   -1.613061308110e-01
    34   -1.561262165082e-03
    35    5.591347805128e-03
    36   -6.829260877338e-03
    37    1.161319598065e-01
    38   -3.202941600612e-04
    39   -1.098861307412e-01
    40    1.275861283471e+00
    41    1.244043273500e-02
    42   -1.788282858981e-01
    43   -1.007427086701e-02
    44    1.124251450323e-01
    45   -1.275266581664e+00
    46   -1.806979762198e-01
    47    6.889328632160e-03
    48   -8.171773869234e-03
Sym=X
Ene= 0.972852
Spin=Alpha
Occup=0
     1   -6.428427011414e-02
     2    8.814342585945e-01
     3   -8.498846331456e-02
     4   -9.763543801875e-02
     5   -9.823491447736e-03
     6    2.463304375376e-02
     7    2.358268547317e-01
     8    5.477935306780e-01
     9    4.668201733583e-01
    10   -4.623830569954e-01
    11   -5.276129597680e-03
    12   -1.451703424714e+00
    13    1.446174463961e+00
    14    1.685392011329e-02
    15   -5.165784501548e-02
    16   -1.274498189351e-02
    17   -1.016278101670e-02
    18    1.825697891362e-02
    19   -3.002760820381e-01
    20   -6.365575918929e-02
    21    9.427617011383e-01
    22    9.545698615809e-02
    23    9.686247250550e-02
    24    1.032305383343e-02
    25   -2.493877930950e-02
    26   -2.537716621452e-01
    27   -5.177019311497e-01
    28    4.874152668100e-01
    29   -4.488411854342e-01
    30   -3.852517509632e-03
    31   -1.521936398427e+00
    32    1.395626888317e+00
    33    1.150394557749e-02
    34    5.225263140127e-02
    35    1.292498354343e-02
    36    9.862433067694e-03
    37   -1.349904465345e-02
    38    3.007059801864e-01
    39    6.377575127119e-02
    40   -9.013022936761e-01
    41    9.534328134108e-02
    42    9.244634337951e-02
    43    1.013256150940e-02
    44    6.844504079429e-02
    45   -9.464060093073e-01
    46   -9.394600607484e-02
    47   -9.866599890441e-02
    48   -1.024418724258e-02
[5D]

======= END OF MOLDEN-FORMATTED INPUT FILE =======


        *************************************************************
        *                                                           *
        *  Thank you very much for using Q-Chem.  Have a nice day.  *
        *                                                           *
        *************************************************************


