                  Welcome to Q-Chem
     A Quantum Leap Into The Future Of Chemistry


 Q-Chem 5.4 (devel), Q-Chem, Inc., Pleasanton, CA (2021)

 E. Epifanovsky,  A. T. B. Gilbert,  Xintian Feng,  Joonho Lee,  Yuezhi Mao,  
 N. Mardirossian,  P. Pokhilko,  A. White,  M. Wormit,  M. P. Coons,  
 A. L. Dempwolff,  Zhengting Gan,  D. Hait,  P. R. Horn,  L. D. Jacobson,  
 I. Kaliman,  J. Kussmann,  A. W. Lange,  Ka Un Lao,  D. S. Levine,  Jie Liu,  
 S. C. McKenzie,  A. F. Morrison,  K. Nanda,  F. Plasser,  D. R. Rehn,  
 M. L. Vidal,  Zhi-Qiang You,  Ying Zhu,  B. Alam,  B. Albrecht,  
 A. Aldossary,  E. Alguire,  J. H. Andersen,  D. Barton,  K. Begam,  A. Behn,  
 Y. A. Bernard,  E. J. Berquist,  H. Burton,  A. Carreras,  K. Carter-Fenk,  
 R. Chakraborty,  A. D. Chien,  K. D. Closser,  V. Cofer-Shabica,  
 S. Dasgupta,  Jia Deng,  M. de Wergifosse,  M. Diedenhofen,  Hainam Do,  
 S. Ehlert,  Po-Tung Fang,  S. Fatehi,  Qingguo Feng,  T. Friedhoff,  
 J. Gayvert,  Qinghui Ge,  G. Gidofalvi,  M. Goldey,  J. Gomes,  
 C. Gonzalez-Espinoza,  S. Gulania,  A. Gunina,  M. W. D. Hanson-Heine,  
 P. H. P. Harbach,  A. W. Hauser,  M. F. Herbst,  M. Hernandez Vera,  
 M. Hodecker,  Z. C. Holden,  S. Houck,  Xunkun Huang,  Kerwin Hui,  
 B. C. Huynh,  M. Ivanov,  Hyunjun Ji,  Hanjie Jiang,  B. Kaduk,  S. Kaehler,  
 K. Khistyaev,  Jaehoon Kim,  P. Klunzinger,  Z. Koczor-Benda,  
 Joong Hoon Koh,  D. Kosenkov,  L. Koulias,  T. Kowalczyk,  C. M. Krauter,  
 K. Kue,  A. Kunitsa,  T. Kus,  A. Landau,  K. V. Lawler,  D. Lefrancois,  
 S. Lehtola,  Rain Li,  Yi-Pei Li,  Jiashu Liang,  M. Liebenthal,  
 Hung-Hsuan Lin,  You-Sheng Lin,  Fenglai Liu,  Kuan-Yu Liu,  
 M. Loipersberger,  A. Luenser,  A. Manjanath,  P. Manohar,  E. Mansoor,  
 S. F. Manzer,  Shan-Ping Mao,  A. V. Marenich,  T. Markovich,  S. Mason,  
 S. A. Maurer,  P. F. McLaughlin,  M. F. S. J. Menger,  J.-M. Mewes,  
 S. A. Mewes,  P. Morgante,  J. W. Mullinax,  K. J. Oosterbaan,  G. Paran,  
 Alexander C. Paul,  Suranjan K. Paul,  F. Pavosevic,  Zheng Pei,  S. Prager,  
 E. I. Proynov,  E. Ramos,  B. Rana,  A. E. Rask,  A. Rettig,  R. M. Richard,  
 F. Rob,  E. Rossomme,  T. Scheele,  M. Scheurer,  M. Schneider,  
 N. Sergueev,  S. M. Sharada,  W. Skomorowski,  D. W. Small,  C. J. Stein,  
 Yu-Chuan Su,  E. J. Sundstrom,  Zhen Tao,  J. Thirman,  T. Tsuchimochi,  
 N. M. Tubman,  S. P. Veccham,  O. Vydrov,  J. Wenzel,  J. Witte,  A. Yamada,  
 Kun Yao,  S. Yeganeh,  S. R. Yost,  A. Zech,  Igor Ying Zhang,  Xing Zhang,  
 Yu Zhang,  D. Zuev,  A. Aspuru-Guzik,  A. T. Bell,  N. A. Besley,  
 K. B. Bravaya,  B. R. Brooks,  D. Casanova,  Jeng-Da Chai,  S. Coriani,  
 C. J. Cramer,  A. E. DePrince, III,  R. A. DiStasio Jr.,  A. Dreuw,  
 B. D. Dunietz,  T. R. Furlani,  W. A. Goddard III,  S. Grimme,  
 S. Hammes-Schiffer,  T. Head-Gordon,  W. J. Hehre,  Chao-Ping Hsu,  
 T.-C. Jagau,  Yousung Jung,  A. Klamt,  Jing Kong,  D. S. Lambrecht,  
 WanZhen Liang,  N. J. Mayhall,  C. W. McCurdy,  J. B. Neaton,  
 C. Ochsenfeld,  J. A. Parkhill,  R. Peverati,  V. A. Rassolov,  Yihan Shao,  
 L. V. Slipchenko,  T. Stauch,  R. P. Steele,  J. E. Subotnik,  
 A. J. W. Thom,  A. Tkatchenko,  D. G. Truhlar,  T. Van Voorhis,  
 T. A. Wesolowski,  K. B. Whaley,  H. L. Woodcock III,  P. M. Zimmerman,  
 S. Faraji,  P. M. W. Gill,  M. Head-Gordon,  J. M. Herbert,  A. I. Krylov

 Additional authors for Version 5.4.1: 
 S. Kotaru,  Shaozhi Li,  Xiangyuan Li,  F. Matz,  A. Molle,  Haisheng Ren,  
 Yingli Su,  Hung-Yi Tsai,  C. Utku,  Fang Wang

 Contributors to earlier versions of Q-Chem not listed above: 
 R. D. Adamson,  B. Austin,  R. Baer,  J. Baker,  G. J. O. Beran,  
 K. Brandhorst,  S. T. Brown,  E. F. C. Byrd,  A. K. Chakraborty,  
 G. K. L. Chan,  Chun-Min Chang,  Yunqing Chen,  C.-L. Cheng,  
 Siu Hung Chien,  D. M. Chipman,  D. L. Crittenden,  H. Dachsel,  
 R. J. Doerksen,  A. D. Dutoi,  R. G. Edgar,  J. Fosso-Tande,  
 L. Fusti-Molnar,  D. Ghosh,  A. Ghysels,  A. Golubeva-Zadorozhnaya,  
 J. Gonthier,  M. S. Gordon,  S. R. Gwaltney,  G. Hawkins,  J. E. Herr,  
 A. Heyden,  S. Hirata,  E. G. Hohenstein,  G. Kedziora,  F. J. Keil,  
 C. Kelley,  Jihan Kim,  R. A. King,  R. Z. Khaliullin,  P. P. Korambath,  
 W. Kurlancheek,  A. Laurent,  A. M. Lee,  M. S. Lee,  S. V. Levchenko,  
 Ching Yeh Lin,  D. Liotard,  E. Livshits,  R. C. Lochan,  I. Lotan,  
 L. A. Martinez-Martinez,  P. E. Maslen,  N. Nair,  D. P. O'Neill,  
 D. Neuhauser,  E. Neuscamman,  C. M. Oana,  R. Olivares-Amaya,  R. Olson,  
 T. M. Perrine,  B. Peters,  P. A. Pieniazek,  A. Prociuk,  Y. M. Rhee,  
 J. Ritchie,  M. A. Rohrdanz,  E. Rosta,  N. J. Russ,  H. F. Schaefer III,  
 M. W. Schmidt,  N. E. Schultz,  S. Sharma,  N. Shenvi,  C. D. Sherrill,  
 A. C. Simmonett,  A. Sodt,  T. Stein,  D. Stuck,  K. S. Thanthiriwatte,  
 V. Vanovschi,  L. Vogt,  Tao Wang,  A. Warshel,  M. A. Watson,  
 C. F. Williams,  Q. Wu,  X. Xu,  Jun Yang,  W. Zhang,  Yan Zhao

 Please cite Q-Chem as follows:
 Y. Shao et al., Mol. Phys. 113, 184-215 (2015)
 DOI: 10.1080/00268976.2014.952696

 Q-Chem 5.4.1 for Intel X86 EM64T Linux

 Parts of Q-Chem use Armadillo 9.800.1 (Horizon Scraper).
 http://arma.sourceforge.net/

 Q-Chem begins on Thu Nov 17 15:39:40 2022  

 Host: cpu198.baobab
0

     Scratch files written to /scratch/fum/qchem8494//
 Processing $rem in /home/share/wesolowski/qc5.aug2021.FDE/config/preferences:
 Processing $rem in /home/fum/.qchemrc:

 Checking the input file for inconsistencies... 	...done.

--------------------------------------------------------------
User input:
--------------------------------------------------------------
$comment
generated from CCJob.Templates
$end

$rem
sym_ignore = true
method = adc(2)
ee_states = 10
basis = cc-pVDZ
mem_static = 1024
mem_total = 40000
adc_davidson_maxiter = 900
adc_davidson_conv = 6
adc_print = 3
adc_prop_es = true
adc_prop_es2es = true
adc_prop_tpa = true
molden_format = True
state_analysis = true
print_orbitals = 15
gen_scfman = false
fde_export_density = true
fde_details = 3
$end

$molecule
0 1
H -0.0348278765 -0.2442097827 0.0636489606
C -1.0765972949 -0.5242748755 -0.0023551776
H -1.313264467 -1.5767591607 -0.0757276926
C -2.033634118 0.3926884087 0.0061254933
H -1.8137616575 1.4459188338 0.0804456828
H -3.085977293 0.114931858 -0.0593381042                     
$end
--------------------------------------------------------------
 ----------------------------------------------------------------
             Standard Nuclear Orientation (Angstroms)
    I     Atom           X                Y                Z
 ----------------------------------------------------------------
    1      H      -0.0348278765    -0.2442097827     0.0636489606
    2      C      -1.0765972949    -0.5242748755    -0.0023551776
    3      H      -1.3132644670    -1.5767591607    -0.0757276926
    4      C      -2.0336341180     0.3926884087     0.0061254933
    5      H      -1.8137616575     1.4459188338     0.0804456828
    6      H      -3.0859772930     0.1149318580    -0.0593381042
 ----------------------------------------------------------------
 Nuclear Repulsion Energy =          33.49071635 hartrees
 There are        8 alpha and        8 beta electrons
 Requested basis set is cc-pVDZ
 There are 24 shells and 48 basis functions
 Total memory of 40000 MB is distributed as follows: 
   MEM_STATIC is set to 1024 MB
   QALLOC/CCMAN JOB total memory use is  38976 MB
 Warning: actual memory use might exceed 40000 MB

 Total QAlloc Memory Limit  40000 MB
 Mega-Array Size      1001 MB
 MEM_STATIC part      1024 MB

                       Distance Matrix (Angstroms)
             H (  1)   C (  2)   H (  3)   C (  4)   H (  5)
   C (  2)  1.080776
   H (  3)  1.851895  1.081258
   C (  4)  2.098613  1.325448  2.098656
   H (  5)  2.453859  2.105215  3.067812  1.078500
   H (  6)  3.074674  2.109370  2.450428  1.090349  1.846510

 A cutoff of  1.0D-11 yielded    300 shell pairs
 There are      1220 function pairs (      1329 Cartesian)
 Smallest overlap matrix eigenvalue = 4.68E-03

 Scale SEOQF with 1.000000e-01/1.000000e-01/1.000000e+00

 Standard Electronic Orientation quadrupole field applied
 Nucleus-field energy     =     0.0000000021 hartrees
 Guess from superposition of atomic densities
 Warning:  Energy on first SCF cycle will be non-variational
 SAD guess density has 16.000000 electrons
 A restricted Hartree-Fock SCF calculation will be
 performed using Pulay DIIS extrapolation
 SCF converges when DIIS error is below 1.0E-08
 using 10 threads for integral computing
 -------------------------------------------------------
 OpenMP Integral computing Module                
 Release: version 1.0, May 2013, Q-Chem Inc. Pittsburgh 
 -------------------------------------------------------
 ---------------------------------------
  Cycle       Energy         DIIS Error
 ---------------------------------------
    1     -78.4480772273      1.02E-01
    2     -78.0177370990      7.24E-03
    3     -78.0384245054      1.86E-03
    4     -78.0399164762      5.85E-04
    5     -78.0400429799      5.80E-05
    6     -78.0400448591      9.30E-06
    7     -78.0400449199      2.23E-06
    8     -78.0400449227      8.13E-07
    9     -78.0400449230      1.36E-07
   10     -78.0400449230      3.42E-08
   11     -78.0400449230      7.86E-09 Convergence criterion met
 ---------------------------------------
 SCF time:  CPU 1.53 s  wall 2.27 s
 SCF   energy in the final basis set = -78.04004492
 Total energy in the final basis set = -78.04004492
Exporting Density Matrix to file 'Densmat_SCF.txt'.
Export successful
================================================================================
|                                                                              |
|                                 A D C  M A N                                 |
|                                                                              |
 ------------------------------------------------------------------------------ 
|                                                                              |
| Components:                                                                  |
|                                                                              |
| - libvmm - 1.3-trunk                                                         |
|   Authors:                                                                   |
|   Evgeny Epifanovsky, Ilya Kaliman                                           |
|                                                                              |
| - libtensor - 2.5-trunk                                                      |
|   Authors:                                                                   |
|   Evgeny Epifanovsky, Michael Wormit, Dmitry Zuev, Sam Manzer,               |
|   Ilya Kaliman                                                               |
|                                                                              |
| - libwfa - 1.1-trunk                                                         |
|   Authors:                                                                   |
|   Felix Plasser, Stefanie Mewes (Baeppler), Benjamin Thomitzni,              |
|   Michael Wormit, Feng Chen, Anna I. Krylov, Pavel Pokhilko                  |
|                                                                              |
| - libadc - 1.1-trunk                                                         |
|   Authors:                                                                   |
|   Michael Wormit, Adrian L. Dempwolff, Philipp H. P. Harbach,                |
|   Caroline Krauter, Dirk Rehn, Matthias Schneider, Jan Wenzel                |
|                                                                              |
| - adcman - 2.6-trunk                                                         |
|   Authors:                                                                   |
|   Michael Wormit, Adrian L. Dempwolff, Philipp H. P. Harbach,                |
|   Caroline Krauter, Daniel Lefrancois, Jan-Michael Mewes, Dirk Rehn,         |
|   Matthias Schneider, Jan Wenzel, Andreas Dreuw                              |
|                                                                              |
| Authors of earlier versions of ADCMAN:                                       |
| Andreas Dreuw, Jan Hendrik Starcke, Dirk Rehn, Michael Wormit                |
|                                                                              |
================================================================================

 Created directory /scratch/fum/qchem8494/plots
  Import QC data ...  CPU 0.00 s  wall 0.00 s

 Alpha MOs, Restricted
 -- Occupied --                  
-11.234 -11.233  -1.034  -0.789  -0.641  -0.584  -0.502  -0.376
  1 A     2 A     3 A     4 A     5 A     6 A     7 A     8 A                  
 -- Virtual --                   
  0.170   0.204   0.232   0.239   0.304   0.464   0.577   0.615
  9 A    10 A    11 A    12 A    13 A    14 A    15 A    16 A                  
  0.688   0.708   0.786   0.809   0.861   0.936   0.976   1.009
 17 A    18 A    19 A    20 A    21 A    22 A    23 A    24 A                  
  1.130   1.237   1.254   1.268   1.294   1.598   1.728   1.752
 25 A    26 A    27 A    28 A    29 A    30 A    31 A    32 A                  
  1.820   1.861   1.869   1.921   1.973   1.980   2.226   2.262
 33 A    34 A    35 A    36 A    37 A    38 A    39 A    40 A                  
  2.376   2.451   2.508   2.640   2.714   2.822   3.137   3.405
 41 A    42 A    43 A    44 A    45 A    46 A    47 A    48 A                  

 Beta MOs, Restricted
 -- Occupied --                  
-11.234 -11.233  -1.034  -0.789  -0.641  -0.584  -0.502  -0.376
  1 A     2 A     3 A     4 A     5 A     6 A     7 A     8 A                  
 -- Virtual --                   
  0.170   0.204   0.232   0.239   0.304   0.464   0.577   0.615
  9 A    10 A    11 A    12 A    13 A    14 A    15 A    16 A                  
  0.688   0.708   0.786   0.809   0.861   0.936   0.976   1.009
 17 A    18 A    19 A    20 A    21 A    22 A    23 A    24 A                  
  1.130   1.237   1.254   1.268   1.294   1.598   1.728   1.752
 25 A    26 A    27 A    28 A    29 A    30 A    31 A    32 A                  
  1.820   1.861   1.869   1.921   1.973   1.980   2.226   2.262
 33 A    34 A    35 A    36 A    37 A    38 A    39 A    40 A                  
  2.376   2.451   2.508   2.640   2.714   2.822   3.137   3.405
 41 A    42 A    43 A    44 A    45 A    46 A    47 A    48 A                  
  Import AO data ...  CPU 0.00 s  wall 0.00 s
  Using point group: C1
  Irreducible representations in point group: A
  Molecular orbitals: 
  Occupied MOs:
  Block   0:   1 (  A) A   2 (  A) A   3 (  A) A   4 (  A) A   5 (  A) A
                  -11.23      -11.23      -1.034     -0.7886     -0.6408
               6 (  A) A   7 (  A) A   8 (  A) A
                 -0.5836     -0.5024     -0.3758
  Block   1:   1 (  A) B   2 (  A) B   3 (  A) B   4 (  A) B   5 (  A) B
                  -11.23      -11.23      -1.034     -0.7886     -0.6408
               6 (  A) B   7 (  A) B   8 (  A) B
                 -0.5836     -0.5024     -0.3758
  Virtual MOs:
  Block   0:   9 (  A) A  10 (  A) A  11 (  A) A  12 (  A) A  13 (  A) A
                  0.1701      0.2037      0.2324      0.2392      0.3037
              14 (  A) A  15 (  A) A  16 (  A) A  17 (  A) A  18 (  A) A
                  0.4637      0.5766      0.6149      0.6876      0.7083
              19 (  A) A  20 (  A) A  21 (  A) A  22 (  A) A
                   0.786      0.8087      0.8607      0.9361
  Block   1:  23 (  A) A  24 (  A) A  25 (  A) A  26 (  A) A  27 (  A) A
                  0.9762       1.009        1.13       1.237       1.254
              28 (  A) A  29 (  A) A  30 (  A) A  31 (  A) A  32 (  A) A
                   1.268       1.294       1.598       1.728       1.752
              33 (  A) A  34 (  A) A  35 (  A) A  36 (  A) A
                    1.82       1.861       1.869       1.921
  Block   2:  37 (  A) A  38 (  A) A  39 (  A) A  40 (  A) A  41 (  A) A
                   1.973        1.98       2.226       2.262       2.376
              42 (  A) A  43 (  A) A  44 (  A) A  45 (  A) A  46 (  A) A
                   2.451       2.508        2.64       2.714       2.822
              47 (  A) A  48 (  A) A
                   3.137       3.405
  Block   3:   9 (  A) B  10 (  A) B  11 (  A) B  12 (  A) B  13 (  A) B
                  0.1701      0.2037      0.2324      0.2392      0.3037
              14 (  A) B  15 (  A) B  16 (  A) B  17 (  A) B  18 (  A) B
                  0.4637      0.5766      0.6149      0.6876      0.7083
              19 (  A) B  20 (  A) B  21 (  A) B  22 (  A) B
                   0.786      0.8087      0.8607      0.9361
  Block   4:  23 (  A) B  24 (  A) B  25 (  A) B  26 (  A) B  27 (  A) B
                  0.9762       1.009        1.13       1.237       1.254
              28 (  A) B  29 (  A) B  30 (  A) B  31 (  A) B  32 (  A) B
                   1.268       1.294       1.598       1.728       1.752
              33 (  A) B  34 (  A) B  35 (  A) B  36 (  A) B
                    1.82       1.861       1.869       1.921
  Block   5:  37 (  A) B  38 (  A) B  39 (  A) B  40 (  A) B  41 (  A) B
                   1.973        1.98       2.226       2.262       2.376
              42 (  A) B  43 (  A) B  44 (  A) B  45 (  A) B  46 (  A) B
                   2.451       2.508        2.64       2.714       2.822
              47 (  A) B  48 (  A) B
                   3.137       3.405
  Import MO data ...  CPU 0.01 s  wall 0.00 s
  Import HF data ...  CPU 0.08 s  wall 0.03 s
  Import 2e integrals ...  CPU 0.68 s  wall 0.13 s

--------------------------------------------------------------------------------
                                   HF Summary                                   
--------------------------------------------------------------------------------
  Energy:                                                  -78.0400449230 a.u.
  Dip. moment [a.u.]:                  [   0.000356,    0.001980,    0.000849]
  Total dipole [Debye]:                                               0.005550
  <r^2> [a.u.]:                        [ 174.480207,   34.901090,   11.611421]
  Total <r^2> [a.u.]:                                               220.992717
--------------------------------------------------------------------------------
  HF properties ...  CPU 0.01 s  wall 0.01 s
  MP(1) calculation ...  CPU 0.01 s  wall 0.00 s
  N^6 prerequesite intermediates ...  CPU 0.51 s  wall 0.09 s
  Difference density matrix of state mp2_gs printed to ASCII file 'State_mp2_gs_Difference.txt'
Exporting MP density matrix to file 'Densmat_MP.txt'.
Export successful
  Total density matrix of state mp2_gs printed to ASCII file 'State_mp2_gs_Total.txt'
Exporting MP density matrix to file 'Densmat_MP.txt'.
Export successful

--------------------------------------------------------------------------------
                                 MP(2) Summary                                  
--------------------------------------------------------------------------------
  MP energy contribution:                                   -0.2793910551 a.u.
  Total energy:                                            -78.3194359780 a.u.
  Dip. moment [a.u.]:                  [   0.000149,    0.001567,    0.000805]
  Total dipole [Debye]:                                               0.004495
  <r^2> [a.u.]:                        [ 174.523869,   34.944452,   11.447644]
  Total <r^2> [a.u.]:                                               220.915965

  Density matrix analysis:
  ------------------------
  NOs
    Occupation of frontier NOs:
       0.0447   1.9388
    Number of electrons: 16.000000
    Number of unpaired electrons: n_u =  0.40206, n_u,nl =  0.04458
    NO participation ratio (PR_NO): 13.923974
  
  
  Mulliken Population Analysis
  Atom      Charge (e)              h+              e-           Del q
  --------------------------------------------------------------------
   1 H        0.050223        0.014060       -0.011185        0.002875
   2 C       -0.097390        0.092507       -0.098124       -0.005617
   3 H        0.050400        0.014044       -0.011189        0.002856
   4 C       -0.104207        0.092626       -0.098520       -0.005895
   5 H        0.049401        0.014139       -0.011195        0.002944
   6 H        0.051573        0.014038       -0.011202        0.002837
  --------------------------------------------------------------------
  Sum:       -0.000000        0.241415       -0.241415       -0.000000
  
  Multipole moment analysis of the density matrix
    Molecular charge:                      0.000000
    Number of electrons:                   16.000000
      Center of electronic charge [Ang]: [ -1.556831,  -0.065654,   0.001952]
    Total nuclear charge:                  16.000000
      Center of nuclear charge [Ang]:    [ -1.556826,  -0.065602,   0.001978]
    Dipole moment [D]:                     0.004495
      Cartesian components [D]:          [  0.000380,   0.003983,   0.002047]
    RMS size of the density [Ang]:         1.199327
      Cartesian components [Ang]:        [  0.794201,   0.779282,   0.447605]
  
  Exciton analysis of the difference density matrix
    <r_h> [Ang]:                  [ -1.558037,  -0.066024,   0.001758]
    <r_e> [Ang]:                  [ -1.557585,  -0.065118,   0.001853]
    |<r_e - r_h>| [Ang]:            0.001016
    Hole size [Ang]:                1.391538
      Cartesian components [Ang]: [  0.846601,   0.833319,   0.724724]
    Electron size [Ang]:            1.359734
      Cartesian components [Ang]: [  0.876805,   0.863040,   0.579009]
--------------------------------------------------------------------------------
  MP(2) calculation ...  CPU 0.13 s  wall 0.12 s
  Start ADC(2)-s ...  CPU 0.01 s  wall 0.00 s
  ADC(2) intermediates ...  CPU 0.02 s  wall 0.01 s
  Starting Davidson for singlet states of irrep A ... 
--------------------------------------------------------------------------------
   It NVec Conv  Avg. Norm  Max. Norm  Conv. states           Remark
--------------------------------------------------------------------------------
        10    0  1.331e-01  4.696e-01  0.4134 n n n n n n n n Guess.
    1   20    0  2.296e-02  1.102e-01  0.3285 n n n n n n n n 
    2   30    0  5.854e-03  2.553e-02  0.3238 n n n n n n n n 
    3   40    0  2.030e-03  1.307e-02  0.3234 n n n n n n n n 
    4   50    0  5.565e-04  3.579e-03  0.3234 n n n n n n n n 
    5   20    0  2.583e-04  1.722e-03  0.3234 n n n n n n n n Subspace collapsed.
    6   30    0  1.605e-04  1.168e-03  0.3234 n n n n n n n n 
    7   40    0  1.157e-04  7.983e-04  0.3234 n n n n n n n n 
    8   50    0  1.106e-04  1.017e-03  0.3234 n n n n n n n n 
    9   20    1  6.337e-05  5.942e-04  0.3234 n n n y n n n n Subspace collapsed.
   10   30    3  3.647e-05  3.237e-04  0.3234 n y y y n n n n 
   11   40    5  2.227e-05  2.084e-04  0.3234 n y y y y y n n 
   12   50    6  2.701e-05  2.632e-04  0.3234 y y y y y y n n 
   13   20    6  1.364e-05  1.330e-04  0.3234 y y y y y y n n Subspace collapsed.
   14   30    6  1.422e-05  1.390e-04  0.3234 y y y y y y n n 
   15   40    6  1.622e-05  1.598e-04  0.3234 y y y y y y n n 
   16   50    6  1.508e-05  1.494e-04  0.3234 y y y y y y n n 
   17   20    6  8.325e-06  8.248e-05  0.3234 y y y y y y n n Subspace collapsed.
   18   30    7  7.697e-06  7.628e-05  0.3234 y y y y y y y n 
   19   40    7  5.549e-06  5.505e-05  0.3234 y y y y y y y n 
   20   50    7  5.080e-06  5.050e-05  0.3234 y y y y y y y n 
   21   20    8  3.466e-06  3.446e-05  0.3234 y y y y y y y y Subspace collapsed.
   22   30    8  3.485e-06  3.468e-05  0.3234 y y y y y y y y 
   23   40    8  3.868e-06  3.852e-05  0.3234 y y y y y y y y 
   24   49    8  3.587e-06  3.577e-05  0.3234 y y y y y y y y 
   25   50    8  3.598e-06  3.588e-05  0.3234 y y y y y y y y 
   26   16    8  2.069e-06  2.064e-05  0.3234 y y y y y y y y Subspace collapsed.
   27   22    8  1.847e-06  1.843e-05  0.3234 y y y y y y y y 
   28   28    9  1.189e-06  1.187e-05  0.3234 y y y y y y y y 
   29   33    9  1.176e-06  1.174e-05  0.3234 y y y y y y y y 
   30   38    9  1.330e-06  1.328e-05  0.3234 y y y y y y y y 
   31   38    9  1.330e-06  1.328e-05  0.3234 y y y y y y y y 
   32   48    9  1.287e-06  1.286e-05  0.3234 y y y y y y y y 
   33   50    9  6.416e-07  6.411e-06  0.3234 y y y y y y y y 
   34   14    9  3.752e-07  3.749e-06  0.3234 y y y y y y y y Subspace collapsed.
   35   18    9  2.952e-07  2.950e-06  0.3234 y y y y y y y y 
   36   22    9  1.798e-07  1.797e-06  0.3234 y y y y y y y y 
   37   26   10  9.469e-08  9.464e-07  0.3234 y y y y y y y y Converged.
--------------------------------------------------------------------------------
  Davidson Summary: 
 ------------------------------------------------------------
  State  0: excitation energy =   0.3234 a.u.   (converged)
  State  1: excitation energy =   0.3326 a.u.   (converged)
  State  2: excitation energy =   0.3381 a.u.   (converged)
  State  3: excitation energy =   0.3615 a.u.   (converged)
  State  4: excitation energy =   0.3770 a.u.   (converged)
  State  5: excitation energy =   0.3893 a.u.   (converged)
  State  6: excitation energy =   0.4231 a.u.   (converged)
  State  7: excitation energy =   0.4485 a.u.   (converged)
  State  8: excitation energy =   0.4577 a.u.   (converged)
  State  9: excitation energy =   0.4624 a.u.   (converged)
 ------------------------------------------------------------

  Singlet states of irrep A ...  CPU 97.47 s  wall 32.14 s
  TDMs ...  CPU 0.67 s  wall 0.28 s
  SDMs ...  CPU 1.48 s  wall 0.52 s
  Starting TPA DIIS iterations ... 
------------------------------------ 
   It     Res. Norm  Remark
------------------------------------
                       Guess.
    1     4.288e+00  
    2     5.661e+00  
    3     1.065e+00  
    4     2.542e-01  
    5     6.356e-02  
    6     2.650e-02  
    7     8.125e-03  
    8     1.478e-03  
    9     5.482e-04  
   10     9.154e-05  
   11     2.922e-05  
   12     4.465e-06  
   13     1.500e-06  
   14     4.486e-07  Converged.
   ... Converged in 14 steps (norm: 4.48605e-07)
------------------------------------
  Starting TPA DIIS iterations ... 
------------------------------------ 
   It     Res. Norm  Remark
------------------------------------
                       Guess.
    1     4.126e+00  
    2     5.433e+00  
    3     1.018e+00  
    4     2.489e-01  
    5     6.309e-02  
    6     2.596e-02  
    7     7.951e-03  
    8     1.442e-03  
    9     5.375e-04  
   10     8.922e-05  
   11     2.832e-05  
   12     4.323e-06  
   13     1.453e-06  
   14     4.302e-07  Converged.
   ... Converged in 14 steps (norm: 4.3021e-07)
------------------------------------
  Starting TPA DIIS iterations ... 
------------------------------------ 
   It     Res. Norm  Remark
------------------------------------
                       Guess.
    1     6.874e-01  
    2     4.818e-01  
    3     1.699e-01  
    4     5.712e-02  
    5     1.834e-02  
    6     6.708e-03  
    7     1.055e-03  
    8     4.519e-04  
    9     1.333e-04  
   10     2.358e-05  
   11     9.505e-06  
   12     3.162e-06  
   13     2.072e-06  
   14     8.655e-07  Converged.
   ... Converged in 14 steps (norm: 8.65543e-07)
------------------------------------
  Starting TPA DIIS iterations ... 
------------------------------------ 
   It     Res. Norm  Remark
------------------------------------
                       Guess.
    1     4.504e+00  
    2     6.045e+00  
    3     1.126e+00  
    4     2.759e-01  
    5     6.977e-02  
    6     2.931e-02  
    7     8.973e-03  
    8     1.631e-03  
    9     6.082e-04  
   10     1.020e-04  
   11     3.281e-05  
   12     5.048e-06  
   13     1.708e-06  
   14     5.107e-07  Converged.
   ... Converged in 14 steps (norm: 5.10746e-07)
------------------------------------
  Starting TPA DIIS iterations ... 
------------------------------------ 
   It     Res. Norm  Remark
------------------------------------
                       Guess.
    1     4.333e+00  
    2     5.802e+00  
    3     1.077e+00  
    4     2.700e-01  
    5     6.926e-02  
    6     2.872e-02  
    7     8.781e-03  
    8     1.591e-03  
    9     5.964e-04  
   10     9.944e-05  
   11     3.179e-05  
   12     4.888e-06  
   13     1.653e-06  
   14     4.897e-07  Converged.
   ... Converged in 14 steps (norm: 4.89716e-07)
------------------------------------
  Starting TPA DIIS iterations ... 
------------------------------------ 
   It     Res. Norm  Remark
------------------------------------
                       Guess.
    1     6.968e-01  
    2     4.953e-01  
    3     1.775e-01  
    4     6.278e-02  
    5     1.947e-02  
    6     7.186e-03  
    7     1.160e-03  
    8     5.127e-04  
    9     1.532e-04  
   10     2.537e-05  
   11     1.074e-05  
   12     3.628e-06  
   13     2.471e-06  
   14     1.048e-06  
   15     4.210e-07  Converged.
   ... Converged in 15 steps (norm: 4.20996e-07)
------------------------------------
  Starting TPA DIIS iterations ... 
------------------------------------ 
   It     Res. Norm  Remark
------------------------------------
                       Guess.
    1     4.643e+00  
    2     6.296e+00  
    3     1.166e+00  
    4     2.903e-01  
    5     7.389e-02  
    6     3.118e-02  
    7     9.536e-03  
    8     1.732e-03  
    9     6.482e-04  
   10     1.090e-04  
   11     3.523e-05  
   12     5.442e-06  
   13     1.849e-06  
   14     5.530e-07  Converged.
   ... Converged in 14 steps (norm: 5.52991e-07)
------------------------------------
  Starting TPA DIIS iterations ... 
------------------------------------ 
   It     Res. Norm  Remark
------------------------------------
                       Guess.
    1     4.466e+00  
    2     6.043e+00  
    3     1.115e+00  
    4     2.840e-01  
    5     7.336e-02  
    6     3.055e-02  
    7     9.331e-03  
    8     1.690e-03  
    9     6.356e-04  
   10     1.063e-04  
   11     3.412e-05  
   12     5.270e-06  
   13     1.789e-06  
   14     5.302e-07  Converged.
   ... Converged in 14 steps (norm: 5.30198e-07)
------------------------------------
  Starting TPA DIIS iterations ... 
------------------------------------ 
   It     Res. Norm  Remark
------------------------------------
                       Guess.
    1     7.026e-01  
    2     5.038e-01  
    3     1.824e-01  
    4     6.659e-02  
    5     2.019e-02  
    6     7.503e-03  
    7     1.231e-03  
    8     5.541e-04  
    9     1.667e-04  
   10     2.635e-05  
   11     1.159e-05  
   12     3.953e-06  
   13     2.753e-06  
   14     1.180e-06  
   15     4.689e-07  Converged.
   ... Converged in 15 steps (norm: 4.68899e-07)
------------------------------------
  Starting TPA DIIS iterations ... 
------------------------------------ 
   It     Res. Norm  Remark
------------------------------------
                       Guess.
    1     5.313e+00  
    2     7.537e+00  
    3     1.357e+00  
    4     3.640e-01  
    5     9.493e-02  
    6     4.084e-02  
    7     1.242e-02  
    8     2.249e-03  
    9     8.544e-04  
   10     1.452e-04  
   11     4.797e-05  
   12     7.519e-06  
   13     2.617e-06  
   14     7.808e-07  Converged.
   ... Converged in 14 steps (norm: 7.808e-07)
------------------------------------
  Starting TPA DIIS iterations ... 
------------------------------------ 
   It     Res. Norm  Remark
------------------------------------
                       Guess.
    1     5.109e+00  
    2     7.233e+00  
    3     1.297e+00  
    4     3.553e-01  
    5     9.427e-02  
    6     4.002e-02  
    7     1.215e-02  
    8     2.194e-03  
    9     8.379e-04  
   10     1.415e-04  
   11     4.641e-05  
   12     7.289e-06  
   13     2.521e-06  
   14     7.491e-07  Converged.
   ... Converged in 14 steps (norm: 7.4906e-07)
------------------------------------
  Starting TPA DIIS iterations ... 
------------------------------------ 
   It     Res. Norm  Remark
------------------------------------
                       Guess.
    1     7.282e-01  
    2     5.427e-01  
    3     2.053e-01  
    4     8.668e-02  
    5     2.359e-02  
    6     9.126e-03  
    7     1.608e-03  
    8     7.698e-04  
    9     2.361e-04  
   10     2.985e-05  
   11     1.618e-05  
   12     5.807e-06  
   13     4.385e-06  
   14     1.983e-06  
   15     7.186e-07  Converged.
   ... Converged in 15 steps (norm: 7.18575e-07)
------------------------------------
  Starting TPA DIIS iterations ... 
------------------------------------ 
   It     Res. Norm  Remark
------------------------------------
                       Guess.
    1     5.851e+00  
    2     8.568e+00  
    3     1.510e+00  
    4     4.277e-01  
    5     1.131e-01  
    6     4.931e-02  
    7     1.492e-02  
    8     2.695e-03  
    9     1.035e-03  
   10     1.770e-04  
   11     5.938e-05  
   12     9.383e-06  
   13     3.329e-06  
   14     9.942e-07  Converged.
   ... Converged in 14 steps (norm: 9.94217e-07)
------------------------------------
  Starting TPA DIIS iterations ... 
------------------------------------ 
   It     Res. Norm  Remark
------------------------------------
                       Guess.
    1     5.625e+00  
    2     8.222e+00  
    3     1.443e+00  
    4     4.169e-01  
    5     1.124e-01  
    6     4.833e-02  
    7     1.459e-02  
    8     2.630e-03  
    9     1.015e-03  
   10     1.725e-04  
   11     5.742e-05  
   12     9.109e-06  
   13     3.197e-06  
   14     9.552e-07  Converged.
   ... Converged in 14 steps (norm: 9.55186e-07)
------------------------------------
  Starting TPA DIIS iterations ... 
------------------------------------ 
   It     Res. Norm  Remark
------------------------------------
                       Guess.
    1     7.463e-01  
    2     5.719e-01  
    3     2.231e-01  
    4     1.047e-01  
    5     2.631e-02  
    6     1.054e-02  
    7     1.951e-03  
    8     9.502e-04  
    9     2.940e-04  
   10     3.307e-05  
   11     2.055e-05  
   12     7.684e-06  
   13     6.037e-06  
   14     2.832e-06  
   15     9.532e-07  Converged.
   ... Converged in 15 steps (norm: 9.53198e-07)
------------------------------------
  Starting TPA DIIS iterations ... 
------------------------------------ 
   It     Res. Norm  Remark
------------------------------------
                       Guess.
    1     6.345e+00  
    2     9.542e+00  
    3     1.649e+00  
    4     4.897e-01  
    5     1.308e-01  
    6     5.762e-02  
    7     1.734e-02  
    8     3.127e-03  
    9     1.212e-03  
   10     2.081e-04  
   11     7.066e-05  
   12     1.123e-05  
   13     4.052e-06  
   14     1.216e-06  
   15     5.046e-07  Converged.
   ... Converged in 15 steps (norm: 5.04605e-07)
------------------------------------
  Starting TPA DIIS iterations ... 
------------------------------------ 
   It     Res. Norm  Remark
------------------------------------
                       Guess.
    1     6.100e+00  
    2     9.156e+00  
    3     1.576e+00  
    4     4.766e-01  
    5     1.299e-01  
    6     5.648e-02  
    7     1.696e-02  
    8     3.051e-03  
    9     1.188e-03  
   10     2.028e-04  
   11     6.831e-05  
   12     1.092e-05  
   13     3.881e-06  
   14     1.171e-06  
   15     3.619e-07  Converged.
   ... Converged in 15 steps (norm: 3.61945e-07)
------------------------------------
  Starting TPA DIIS iterations ... 
------------------------------------ 
   It     Res. Norm  Remark
------------------------------------
                       Guess.
    1     7.614e-01  
    2     5.972e-01  
    3     2.390e-01  
    4     1.227e-01  
    5     2.888e-02  
    6     1.192e-02  
    7     2.299e-03  
    8     1.110e-03  
    9     3.469e-04  
   10     3.775e-05  
   11     2.511e-05  
   12     9.751e-06  
   13     7.836e-06  
   14     3.772e-06  
   15     1.219e-06  
   16     5.631e-07  Converged.
   ... Converged in 16 steps (norm: 5.63082e-07)
------------------------------------
  Starting TPA DIIS iterations ... 
------------------------------------ 
   It     Res. Norm  Remark
------------------------------------
                       Guess.
    1     8.107e+00  
    2     1.319e+01  
    3     2.138e+00  
    4     7.325e-01  
    5     2.000e-01  
    6     9.083e-02  
    7     2.687e-02  
    8     4.813e-03  
    9     1.914e-03  
   10     3.317e-04  
   11     1.153e-04  
   12     1.865e-05  
   13     7.048e-06  
   14     2.241e-06  
   15     1.053e-06  
   16     3.734e-07  Converged.
   ... Converged in 16 steps (norm: 3.73367e-07)
------------------------------------
  Starting TPA DIIS iterations ... 
------------------------------------ 
   It     Res. Norm  Remark
------------------------------------
                       Guess.
    1     7.789e+00  
    2     1.265e+01  
    3     2.042e+00  
    4     7.100e-01  
    5     1.987e-01  
    6     8.906e-02  
    7     2.626e-02  
    8     4.695e-03  
    9     1.877e-03  
   10     3.233e-04  
   11     1.117e-04  
   12     1.831e-05  
   13     6.682e-06  
   14     2.178e-06  
   15     6.375e-07  Converged.
   ... Converged in 15 steps (norm: 6.37498e-07)
------------------------------------
  Starting TPA DIIS iterations ... 
------------------------------------ 
   It     Res. Norm  Remark
------------------------------------
                       Guess.
    1     8.059e-01  
    2     6.790e-01  
    3     2.925e-01  
    4     1.953e-01  
    5     3.863e-02  
    6     1.732e-02  
    7     3.745e-03  
    8     1.556e-03  
    9     5.263e-04  
   10     6.798e-05  
   11     4.566e-05  
   12     2.007e-05  
   13     1.631e-05  
   14     8.277e-06  
   15     2.802e-06  
   16     1.332e-06  
   17     3.032e-07  Converged.
   ... Converged in 17 steps (norm: 3.03161e-07)
------------------------------------
  Starting TPA DIIS iterations ... 
------------------------------------ 
   It     Res. Norm  Remark
------------------------------------
                       Guess.
    1     1.001e+01  
    2     1.742e+01  
    3     2.653e+00  
    4     1.026e+00  
    5     2.843e-01  
    6     1.323e-01  
    7     3.847e-02  
    8     6.856e-03  
    9     2.786e-03  
   10     4.839e-04  
   11     1.681e-04  
   12     2.800e-05  
   13     1.090e-05  
   14     3.834e-06  
   15     2.002e-06  
   16     7.687e-07  Converged.
   ... Converged in 16 steps (norm: 7.68734e-07)
------------------------------------
  Starting TPA DIIS iterations ... 
------------------------------------ 
   It     Res. Norm  Remark
------------------------------------
                       Guess.
    1     9.619e+00  
    2     1.671e+01  
    3     2.534e+00  
    4     9.911e-01  
    5     2.825e-01  
    6     1.297e-01  
    7     3.758e-02  
    8     6.686e-03  
    9     2.733e-03  
   10     4.717e-04  
   11     1.637e-04  
   12     2.784e-05  
   13     1.016e-05  
   14     3.730e-06  
   15     1.064e-06  
   16     6.519e-07  Converged.
   ... Converged in 16 steps (norm: 6.51917e-07)
------------------------------------
  Starting TPA DIIS iterations ... 
------------------------------------ 
   It     Res. Norm  Remark
------------------------------------
                       Guess.
    1     8.434e-01  
    2     7.565e-01  
    3     3.462e-01  
    4     2.818e-01  
    5     5.019e-02  
    6     2.358e-02  
    7     5.580e-03  
    8     1.804e-03  
    9     7.073e-04  
   10     1.123e-04  
   11     7.515e-05  
   12     3.668e-05  
   13     2.771e-05  
   14     1.489e-05  
   15     5.739e-06  
   16     2.626e-06  
   17     5.725e-07  Converged.
   ... Converged in 17 steps (norm: 5.72484e-07)
------------------------------------
  Starting TPA DIIS iterations ... 
------------------------------------ 
   It     Res. Norm  Remark
------------------------------------
                       Guess.
    1     1.089e+01  
    2     1.945e+01  
    3     2.887e+00  
    4     1.170e+00  
    5     3.259e-01  
    6     1.531e-01  
    7     4.420e-02  
    8     7.860e-03  
    9     3.220e-03  
   10     5.593e-04  
   11     1.932e-04  
   12     3.280e-05  
   13     1.295e-05  
   14     4.763e-06  
   15     2.612e-06  
   16     1.038e-06  
   17     7.817e-07  Converged.
   ... Converged in 17 steps (norm: 7.81675e-07)
------------------------------------
  Starting TPA DIIS iterations ... 
------------------------------------ 
   It     Res. Norm  Remark
------------------------------------
                       Guess.
    1     1.046e+01  
    2     1.866e+01  
    3     2.756e+00  
    4     1.128e+00  
    5     3.238e-01  
    6     1.501e-01  
    7     4.317e-02  
    8     7.665e-03  
    9     3.160e-03  
   10     5.452e-04  
   11     1.887e-04  
   12     3.280e-05  
   13     1.192e-05  
   14     4.603e-06  
   15     1.357e-06  
   16     8.739e-07  Converged.
   ... Converged in 16 steps (norm: 8.73876e-07)
------------------------------------
  Starting TPA DIIS iterations ... 
------------------------------------ 
   It     Res. Norm  Remark
------------------------------------
                       Guess.
    1     8.581e-01  
    2     7.894e-01  
    3     3.696e-01  
    4     3.219e-01  
    5     5.577e-02  
    6     2.645e-02  
    7     6.485e-03  
    8     1.869e-03  
    9     7.880e-04  
   10     1.342e-04  
   11     9.109e-05  
   12     4.620e-05  
   13     3.300e-05  
   14     1.841e-05  
   15     7.500e-06  
   16     3.431e-06  
   17     7.740e-07  Converged.
   ... Converged in 17 steps (norm: 7.74024e-07)
------------------------------------
  Starting TPA DIIS iterations ... 
------------------------------------ 
   It     Res. Norm  Remark
------------------------------------
                       Guess.
    1     1.138e+01  
    2     2.060e+01  
    3     3.014e+00  
    4     1.250e+00  
    5     3.495e-01  
    6     1.649e-01  
    7     4.745e-02  
    8     8.429e-03  
    9     3.468e-03  
   10     6.020e-04  
   11     2.073e-04  
   12     3.558e-05  
   13     1.417e-05  
   14     5.332e-06  
   15     3.004e-06  
   16     1.218e-06  
   17     9.148e-07  Converged.
   ... Converged in 17 steps (norm: 9.14811e-07)
------------------------------------
  Starting TPA DIIS iterations ... 
------------------------------------ 
   It     Res. Norm  Remark
------------------------------------
                       Guess.
    1     1.093e+01  
    2     1.976e+01  
    3     2.878e+00  
    4     1.205e+00  
    5     3.472e-01  
    6     1.618e-01  
    7     4.634e-02  
    8     8.219e-03  
    9     3.403e-03  
   10     5.870e-04  
   11     2.027e-04  
   12     3.569e-05  
   13     1.294e-05  
   14     5.125e-06  
   15     1.554e-06  
   16     1.015e-06  
   17     5.965e-07  Converged.
   ... Converged in 17 steps (norm: 5.96461e-07)
------------------------------------
  Starting TPA DIIS iterations ... 
------------------------------------ 
   It     Res. Norm  Remark
------------------------------------
                       Guess.
    1     8.656e-01  
    2     8.069e-01  
    3     3.823e-01  
    4     3.437e-01  
    5     5.890e-02  
    6     2.800e-02  
    7     6.993e-03  
    8     1.898e-03  
    9     8.320e-04  
   10     1.466e-04  
   11     1.005e-04  
   12     5.194e-05  
   13     3.584e-05  
   14     2.044e-05  
   15     8.579e-06  
   16     3.946e-06  
   17     9.227e-07  Converged.
   ... Converged in 17 steps (norm: 9.22683e-07)
------------------------------------
  Two-photon absorbption ...  CPU 73.14 s  wall 18.42 s
  Transition density matrix of state singlet_A_1 printed to ASCII file 'State_singlet_A_1_Transition.txt'
  Transition density matrix of state singlet_A_2 printed to ASCII file 'State_singlet_A_2_Transition.txt'
  Transition density matrix of state singlet_A_3 printed to ASCII file 'State_singlet_A_3_Transition.txt'
  Transition density matrix of state singlet_A_4 printed to ASCII file 'State_singlet_A_4_Transition.txt'
  Transition density matrix of state singlet_A_5 printed to ASCII file 'State_singlet_A_5_Transition.txt'
  Transition density matrix of state singlet_A_6 printed to ASCII file 'State_singlet_A_6_Transition.txt'
  Transition density matrix of state singlet_A_7 printed to ASCII file 'State_singlet_A_7_Transition.txt'
  Transition density matrix of state singlet_A_8 printed to ASCII file 'State_singlet_A_8_Transition.txt'
  Transition density matrix of state singlet_A_9 printed to ASCII file 'State_singlet_A_9_Transition.txt'
  Transition density matrix of state singlet_A_10 printed to ASCII file 'State_singlet_A_10_Transition.txt'
  Transition properties ...  CPU 0.16 s  wall 0.30 s
  Difference density matrix of state singlet_A_1 printed to ASCII file 'State_singlet_A_1_Difference.txt'
  Total density matrix of state singlet_A_1 printed to ASCII file 'State_singlet_A_1_Total.txt'
  Difference density matrix of state singlet_A_2 printed to ASCII file 'State_singlet_A_2_Difference.txt'
  Total density matrix of state singlet_A_2 printed to ASCII file 'State_singlet_A_2_Total.txt'
  Difference density matrix of state singlet_A_3 printed to ASCII file 'State_singlet_A_3_Difference.txt'
  Total density matrix of state singlet_A_3 printed to ASCII file 'State_singlet_A_3_Total.txt'
  Difference density matrix of state singlet_A_4 printed to ASCII file 'State_singlet_A_4_Difference.txt'
  Total density matrix of state singlet_A_4 printed to ASCII file 'State_singlet_A_4_Total.txt'
  Difference density matrix of state singlet_A_5 printed to ASCII file 'State_singlet_A_5_Difference.txt'
  Total density matrix of state singlet_A_5 printed to ASCII file 'State_singlet_A_5_Total.txt'
  Difference density matrix of state singlet_A_6 printed to ASCII file 'State_singlet_A_6_Difference.txt'
  Total density matrix of state singlet_A_6 printed to ASCII file 'State_singlet_A_6_Total.txt'
  Difference density matrix of state singlet_A_7 printed to ASCII file 'State_singlet_A_7_Difference.txt'
  Total density matrix of state singlet_A_7 printed to ASCII file 'State_singlet_A_7_Total.txt'
  Difference density matrix of state singlet_A_8 printed to ASCII file 'State_singlet_A_8_Difference.txt'
  Total density matrix of state singlet_A_8 printed to ASCII file 'State_singlet_A_8_Total.txt'
  Difference density matrix of state singlet_A_9 printed to ASCII file 'State_singlet_A_9_Difference.txt'
  Total density matrix of state singlet_A_9 printed to ASCII file 'State_singlet_A_9_Total.txt'
  Difference density matrix of state singlet_A_10 printed to ASCII file 'State_singlet_A_10_Difference.txt'
  Total density matrix of state singlet_A_10 printed to ASCII file 'State_singlet_A_10_Total.txt'
  Properties ...  CPU 0.31 s  wall 0.51 s
  ISR TDMS ...  CPU 8.92 s  wall 3.17 s
  ISR transition properties ...  CPU 0.17 s  wall 0.08 s
  Sum-over-states TPA ...  CPU 0.00 s  wall 0.00 s

--------------------------------------------------------------------------------
                   State-averaged natural transition orbitals
--------------------------------------------------------------------------------
--------------------------------------------------------------------------------
  SA-NTO decomposition ...  CPU 0.01 s  wall 0.02 s

--------------------------------------------------------------------------------
                             Excited State Summary
--------------------------------------------------------------------------------
--------------------------------------------------------------------------------

  Excited state 1 (singlet, A)                                     [converged]
  ----------------------------------------------------------------------------
  Term symbol:  2 (1) A                                     R^2 =  1.43743e-13

  Total energy:                                            -77.9960266529 a.u.
  Excitation energy:                                               8.800415 eV

  Osc. strength:                                                      0.448792
  Trans. dip. moment [a.u.]:           [  -1.043820,    0.995939,    0.008903]
  <i|r^2|0> [a.u.]:                    [  -6.146896,    0.253247,   -0.000043]
  Two-photon absorption cross-section (SoS) [a.u.]:                   0.003880
  Two-photon absorption matrix (SoS) [a.u.]:
                                       |   -0.022394   -0.008071   -0.000475 |
                                       |   -0.008071   -0.002984   -0.000690 |
                                       |   -0.000475   -0.000690   -0.000232 |
  Two-photon absorption cross-section [a.u.]:                         0.002352
  Two-photon absorption matrix [a.u.]:
                                       |   -0.006225   -0.001271   -0.000998 |
                                       |   -0.001271    0.019805   -0.001865 |
                                       |   -0.000998   -0.001865    0.002932 |

  Dip. moment [a.u.]:                  [   0.000145,    0.001026,    0.000935]
  Total dipole [Debye]:                                               0.003547
  <r^2> [a.u.]:                        [ 175.272628,   35.645142,   11.868194]
  Total <r^2> [a.u.]:                                               222.785964

  V1^2 = 0.9714, V2^2 = 0.0286

  Important amplitudes:
      occ i     occ j     vir a      vir b          v   
    -----------------------------------------------------
     8 (A) A              9 (A) A                -0.6811
     4 (A) A             10 (A) A                -0.0613
     6 (A) A             14 (A) A                 0.0608
     7 (A) A             16 (A) A                 0.0575
     5 (A) A             13 (A) A                -0.0518
     6 (A) A             23 (A) A                 0.0484
     8 (A) A             20 (A) A                -0.0347
     6 (A) A             19 (A) A                -0.0295
     3 (A) A             12 (A) A                 0.0280
     5 (A) A             22 (A) A                -0.0217
     7 (A) A             11 (A) A                 0.0202
     4 (A) A             24 (A) A                -0.0189
     3 (A) A             26 (A) A                 0.0186
     8 (A) A   8 (A) B   17 (A) A   20 (A) B      0.0183
     8 (A) A   8 (A) B    9 (A) A   28 (A) B      0.0168
     6 (A) A             26 (A) A                 0.0165
     7 (A) A             21 (A) A                 0.0149
     6 (A) A             12 (A) A                -0.0145
     3 (A) A             14 (A) A                 0.0138
     3 (A) A   4 (A) B    9 (A) A    9 (A) B      0.0128
     3 (A) A             19 (A) A                -0.0117
     8 (A) A   8 (A) B   18 (A) A   19 (A) B      0.0112
     7 (A) A             32 (A) A                 0.0095
     7 (A) A             36 (A) A                 0.0086
     3 (A) A             23 (A) A                 0.0080
     8 (A) A   8 (A) B   25 (A) A   29 (A) B      0.0076
     6 (A) A             35 (A) A                 0.0069
     6 (A) A             40 (A) A                 0.0068
     3 (A) A   6 (A) B    9 (A) A   28 (A) B      0.0065
     5 (A) A   8 (A) B   11 (A) A    9 (A) B     -0.0060
     6 (A) A   8 (A) A   19 (A) A   28 (A) A     -0.0060
     5 (A) A   7 (A) B    9 (A) A    9 (A) B     -0.0060
     5 (A) A   8 (A) B   16 (A) A    9 (A) B      0.0060
     7 (A) A   8 (A) B   13 (A) A   20 (A) B     -0.0060
     5 (A) A   8 (A) B   11 (A) A   20 (A) B      0.0060
     3 (A) A   5 (A) B    9 (A) A   25 (A) B      0.0058
     3 (A) A             40 (A) A                 0.0057
     7 (A) A   8 (A) B   22 (A) A   20 (A) B     -0.0057
     6 (A) A   8 (A) A    9 (A) A   18 (A) A      0.0056
     8 (A) A   8 (A) B   19 (A) A   30 (A) B      0.0055
    -----------------------------------------------------

  Density matrix analysis:
  ------------------------
  NOs
    Occupation of frontier NOs:
       0.9496   1.0217
    Number of electrons: 16.000000
    Number of unpaired electrons: n_u =  2.31315, n_u,nl =  2.03244
    NO participation ratio (PR_NO):  2.863258
  
  
  Mulliken Population Analysis
  Atom      Charge (e)              h+              e-           Del q
  --------------------------------------------------------------------
   1 H        0.058110        0.020505       -0.012618        0.007887
   2 C       -0.112911        0.491450       -0.506970       -0.015520
   3 H        0.058341        0.020531       -0.012590        0.007941
   4 C       -0.120667        0.491125       -0.507585       -0.016460
   5 H        0.057433        0.020539       -0.012507        0.008032
   6 H        0.059694        0.020647       -0.012526        0.008121
  --------------------------------------------------------------------
  Sum:       -0.000000        1.064797       -1.064797        0.000000
  
  Multipole moment analysis of the density matrix
    Molecular charge:                      0.000000
    Number of electrons:                   16.000000
      Center of electronic charge [Ang]: [ -1.556831,  -0.065636,   0.001947]
    Total nuclear charge:                  16.000000
      Center of nuclear charge [Ang]:    [ -1.556826,  -0.065602,   0.001978]
    Dipole moment [D]:                     0.003547
      Cartesian components [D]:          [  0.000369,   0.002607,   0.002376]
    RMS size of the density [Ang]:         1.212896
      Cartesian components [Ang]:        [  0.802409,   0.787112,   0.455753]
  
  Exciton analysis of the difference density matrix
    <r_h> [Ang]:                  [ -1.555659,  -0.065863,   0.001646]
    <r_e> [Ang]:                  [ -1.555657,  -0.065594,   0.001582]
    |<r_e - r_h>| [Ang]:            0.000277
    Hole size [Ang]:                1.284524
      Cartesian components [Ang]: [  0.726849,   0.713445,   0.782745]
    Electron size [Ang]:            1.463500
      Cartesian components [Ang]: [  0.851604,   0.832653,   0.850465]

  Transition density matrix analysis:
  -----------------------------------
  
  CT numbers (Mulliken)
    omega =     0.9535
    <Phe> =    -0.1588
  
  Exciton analysis of the transition density matrix
    Trans. dipole moment [D]:             1.833555
      Cartesian components [D]:         [ -1.326563,   1.265712,   0.011314]
    <r_h> [Ang]:                        [ -1.555066,  -0.066135,   0.001722]
    <r_e> [Ang]:                        [ -1.555762,  -0.065589,   0.001518]
    |<r_e - r_h>| [Ang]:                  0.000907
    Hole size [Ang]:                      1.211395
      Cartesian components [Ang]:       [  0.646425,   0.635644,   0.803473]
    Electron size [Ang]:                  1.487285
      Cartesian components [Ang]:       [  0.862406,   0.842109,   0.871278]
    RMS electron-hole separation [Ang]:   1.934695
      Cartesian components [Ang]:       [  1.101542,   1.076488,   1.170822]
    Covariance(r_h, r_e) [Ang^2]:        -0.031775
    Correlation coefficient:             -0.017636
    Center-of-mass size [Ang]:            0.950782
      Cartesian components [Ang]:       [  0.526741,   0.516613,   0.599700]

  Decomposition into state-averaged NTOs
    H- 0 -> L+ 0:  0.6700 ( 89.8%)
    H- 2 -> L+ 5:  0.0822 (  1.4%)
                   omega =  95.3%
  ----------------------------------------------------------------------------


  Excited state 2 (singlet, A)                                     [converged]
  ----------------------------------------------------------------------------
  Term symbol:  3 (1) A                                     R^2 =  3.91227e-13

  Total energy:                                            -77.9868479352 a.u.
  Excitation energy:                                               9.050181 eV

  Osc. strength:                                                      0.000072
  Trans. dip. moment [a.u.]:           [   0.002974,   -0.005322,    0.016965]
  <i|r^2|0> [a.u.]:                    [  -0.050984,   -0.082839,    0.149881]
  Two-photon absorption cross-section (SoS) [a.u.]:                   4.767135
  Two-photon absorption matrix (SoS) [a.u.]:
                                       |   -0.055413   -0.058089    0.544816 |
                                       |   -0.058089   -0.061313    0.534416 |
                                       |    0.544816    0.534416    0.115561 |
  Two-photon absorption cross-section [a.u.]:                         0.090590
  Two-photon absorption matrix [a.u.]:
                                       |    0.000569    0.007606   -0.091005 |
                                       |    0.007606    0.013879   -0.052661 |
                                       |   -0.091005   -0.052661   -0.015109 |

  Dip. moment [a.u.]:                  [  -0.006893,    0.038283,    0.003545]
  Total dipole [Debye]:                                               0.099280
  <r^2> [a.u.]:                        [ 173.543190,   34.087632,   13.163459]
  Total <r^2> [a.u.]:                                               220.794281

  V1^2 = 0.9545, V2^2 = 0.0455

  Important amplitudes:
      occ i     occ j     vir a      vir b          v   
    -----------------------------------------------------
     7 (A) A              9 (A) A                -0.6686
     8 (A) A             11 (A) A                 0.1480
     7 (A) A             20 (A) A                -0.0759
     8 (A) A             10 (A) A                -0.0324
     5 (A) A   8 (A) B    9 (A) A    9 (A) B     -0.0313
     8 (A) A             16 (A) A                -0.0275
     8 (A) A             21 (A) A                 0.0175
     5 (A) A             28 (A) A                -0.0151
     4 (A) A   7 (A) B    9 (A) A   19 (A) B      0.0135
     5 (A) A   7 (A) B    9 (A) A   16 (A) B     -0.0134
     7 (A) A   8 (A) B   20 (A) A   17 (A) B      0.0105
     7 (A) A   8 (A) A    9 (A) A   28 (A) A     -0.0098
     5 (A) A   8 (A) B    9 (A) A   20 (A) B     -0.0095
     4 (A) A   6 (A) B    9 (A) A   16 (A) B     -0.0091
     5 (A) A   6 (A) A    9 (A) A   23 (A) A     -0.0090
     5 (A) A   6 (A) A    9 (A) A   14 (A) A     -0.0087
     8 (A) A   7 (A) B    9 (A) A   28 (A) B      0.0085
     5 (A) A   6 (A) B    9 (A) A   19 (A) B      0.0084
     4 (A) A   5 (A) A    9 (A) A   10 (A) A     -0.0084
     6 (A) A   7 (A) B    9 (A) A   18 (A) B      0.0084
     5 (A) A   6 (A) B    9 (A) A   23 (A) B     -0.0080
     3 (A) A   7 (A) B    9 (A) A   18 (A) B     -0.0079
     5 (A) A   7 (A) A    9 (A) A   16 (A) A     -0.0079
     4 (A) A   8 (A) B    9 (A) A   25 (A) B     -0.0076
     4 (A) A   7 (A) B   19 (A) A    9 (A) B      0.0074
     7 (A) A   8 (A) B   17 (A) A   20 (A) B      0.0074
     5 (A) A   5 (A) B    9 (A) A   13 (A) B      0.0072
     7 (A) A   8 (A) B   19 (A) A   18 (A) B      0.0071
     5 (A) A   8 (A) A    9 (A) A   20 (A) A     -0.0069
     4 (A) A   5 (A) B    9 (A) A   18 (A) B      0.0068
     7 (A) A   7 (A) B   20 (A) A   22 (A) B     -0.0065
     7 (A) A   8 (A) B   17 (A) A    9 (A) B      0.0063
     4 (A) A   7 (A) A    9 (A) A   19 (A) A      0.0061
     5 (A) A   6 (A) B    9 (A) A   14 (A) B     -0.0061
     4 (A) A   5 (A) B   10 (A) A    9 (A) B      0.0061
     5 (A) A   7 (A) B   11 (A) A   20 (A) B      0.0061
     4 (A) A   7 (A) B    9 (A) A   14 (A) B      0.0060
     5 (A) A             38 (A) A                -0.0058
     4 (A) A   8 (A) A    9 (A) A   25 (A) A     -0.0057
     6 (A) A   7 (A) A   19 (A) A   28 (A) A     -0.0056
    -----------------------------------------------------

  Density matrix analysis:
  ------------------------
  NOs
    Occupation of frontier NOs:
       0.9557   1.0554
    Number of electrons: 16.000000
    Number of unpaired electrons: n_u =  2.35448, n_u,nl =  2.06387
    NO participation ratio (PR_NO):  3.036822
  
  
  Mulliken Population Analysis
  Atom      Charge (e)              h+              e-           Del q
  --------------------------------------------------------------------
   1 H        0.153620        0.123383       -0.019986        0.103397
   2 C       -0.298610        0.267281       -0.468500       -0.201219
   3 H        0.142189        0.121519       -0.029730        0.091789
   4 C       -0.304034        0.275845       -0.475673       -0.199828
   5 H        0.153311        0.122698       -0.018787        0.103910
   6 H        0.153523        0.132765       -0.030814        0.101950
  --------------------------------------------------------------------
  Sum:       -0.000000        1.043490       -1.043490       -0.000000
  
  Multipole moment analysis of the density matrix
    Molecular charge:                      -0.000000
    Number of electrons:                   16.000000
      Center of electronic charge [Ang]: [ -1.556598,  -0.066868,   0.001861]
    Total nuclear charge:                  16.000000
      Center of nuclear charge [Ang]:    [ -1.556826,  -0.065602,   0.001978]
    Dipole moment [D]:                     0.099280
      Cartesian components [D]:          [ -0.017519,   0.097306,   0.009011]
    RMS size of the density [Ang]:         1.198674
      Cartesian components [Ang]:        [  0.783784,   0.769495,   0.479980]
  
  Exciton analysis of the difference density matrix
    <r_h> [Ang]:                  [ -1.577050,  -0.059281,   0.001466]
    <r_e> [Ang]:                  [ -1.573479,  -0.077901,   0.000077]
    |<r_e - r_h>| [Ang]:            0.019010
    Hole size [Ang]:                1.486799
      Cartesian components [Ang]: [  1.015770,   0.985441,   0.455729]
    Electron size [Ang]:            1.478721
      Cartesian components [Ang]: [  0.883101,   0.859422,   0.817400]

  Transition density matrix analysis:
  -----------------------------------
  
  CT numbers (Mulliken)
    omega =     0.9223
    <Phe> =    -0.0119
  
  Exciton analysis of the transition density matrix
    Trans. dipole moment [D]:             0.022911
      Cartesian components [D]:         [  0.003779,  -0.006764,   0.021561]
    <r_h> [Ang]:                        [ -1.579480,  -0.057401,   0.001565]
    <r_e> [Ang]:                        [ -1.572281,  -0.080155,  -0.000104]
    |<r_e - r_h>| [Ang]:                  0.023924
    Hole size [Ang]:                      1.515177
      Cartesian components [Ang]:       [  1.040078,   1.007711,   0.445552]
    Electron size [Ang]:                  1.475843
      Cartesian components [Ang]:       [  0.873387,   0.849310,   0.833056]
    RMS electron-hole separation [Ang]:   2.095603
      Cartesian components [Ang]:       [  1.342562,   1.303073,   0.943970]
    Covariance(r_h, r_e) [Ang^2]:         0.041448
    Correlation coefficient:              0.018535
    Center-of-mass size [Ang]:            1.067330
      Cartesian components [Ang]:       [  0.686788,   0.666359,   0.472737]

  Decomposition into state-averaged NTOs
    H- 1 -> L+ 0: -0.6611 ( 87.4%)
    H- 0 -> L+ 2: -0.1486 (  4.4%)
                   omega =  92.2%
  ----------------------------------------------------------------------------


  Excited state 3 (singlet, A)                                     [converged]
  ----------------------------------------------------------------------------
  Term symbol:  4 (1) A                                     R^2 =  1.38961e-13

  Total energy:                                            -77.9812994754 a.u.
  Excitation energy:                                               9.201162 eV

  Osc. strength:                                                      0.024866
  Trans. dip. moment [a.u.]:           [  -0.014552,   -0.020752,    0.331157]
  <i|r^2|0> [a.u.]:                    [  -0.084249,    0.000744,   -0.008962]
  Two-photon absorption cross-section (SoS) [a.u.]:                   0.033448
  Two-photon absorption matrix (SoS) [a.u.]:
                                       |   -0.017783   -0.005253    0.052460 |
                                       |   -0.005253    0.006851    0.034628 |
                                       |    0.052460    0.034628    0.002569 |
  Two-photon absorption cross-section [a.u.]:                         0.037909
  Two-photon absorption matrix [a.u.]:
                                       |   -0.017424   -0.004380    0.059472 |
                                       |   -0.004380    0.001684    0.031432 |
                                       |    0.059472    0.031432    0.005409 |

  Dip. moment [a.u.]:                  [   0.076625,    0.052119,    0.005776]
  Total dipole [Debye]:                                               0.236002
  <r^2> [a.u.]:                        [ 180.482815,   40.559627,   11.026468]
  Total <r^2> [a.u.]:                                               232.068911

  V1^2 = 0.9586, V2^2 = 0.0414

  Important amplitudes:
      occ i     occ j     vir a      vir b          v   
    -----------------------------------------------------
     8 (A) A             10 (A) A                -0.6882
     8 (A) A             24 (A) A                -0.0507
     7 (A) A              9 (A) A                 0.0341
     8 (A) A             18 (A) A                 0.0314
     4 (A) A              9 (A) A                -0.0239
     8 (A) A   8 (A) B    9 (A) A   12 (A) B      0.0218
     8 (A) A   8 (A) B   10 (A) A   17 (A) B     -0.0174
     5 (A) A   8 (A) B   11 (A) A   10 (A) B     -0.0166
     8 (A) A             15 (A) A                -0.0163
     7 (A) A   8 (A) B   13 (A) A   10 (A) B      0.0142
     4 (A) A   8 (A) B   12 (A) A   10 (A) B      0.0111
     6 (A) A   8 (A) A   10 (A) A   15 (A) A      0.0111
     7 (A) A   8 (A) B   22 (A) A   10 (A) B      0.0108
     6 (A) A   8 (A) B   15 (A) A   10 (A) B     -0.0108
     4 (A) A   8 (A) A   10 (A) A   12 (A) A     -0.0107
     7 (A) A   8 (A) A   10 (A) A   22 (A) A     -0.0099
     7 (A) A   8 (A) A   10 (A) A   13 (A) A     -0.0098
     5 (A) A   8 (A) A   10 (A) A   11 (A) A      0.0095
     5 (A) A   8 (A) B   21 (A) A   10 (A) B     -0.0094
     6 (A) A   8 (A) B   10 (A) A   10 (A) B      0.0088
     6 (A) A   8 (A) A   10 (A) A   18 (A) A      0.0086
     7 (A) A   8 (A) A   12 (A) A   16 (A) A     -0.0082
     5 (A) A   8 (A) A   10 (A) A   21 (A) A      0.0080
     3 (A) A   4 (A) B   10 (A) A    9 (A) B      0.0079
     4 (A) A   8 (A) B   19 (A) A   10 (A) B     -0.0075
     8 (A) A   8 (A) B    9 (A) A   23 (A) B     -0.0074
     8 (A) A   8 (A) B   10 (A) A   28 (A) B      0.0073
     3 (A) A   8 (A) B   10 (A) A   10 (A) B     -0.0071
     5 (A) A   8 (A) B   10 (A) A   11 (A) B     -0.0071
     3 (A) A   8 (A) A   10 (A) A   24 (A) A      0.0071
     7 (A) A   8 (A) B   16 (A) A   12 (A) B      0.0071
     3 (A) A   8 (A) B   10 (A) A   18 (A) B      0.0069
     8 (A) A   8 (A) B    9 (A) A   19 (A) B     -0.0069
     6 (A) A   8 (A) B   18 (A) A   10 (A) B     -0.0066
     3 (A) A   6 (A) B   10 (A) A   28 (A) B      0.0062
     7 (A) A   8 (A) B   12 (A) A   11 (A) B     -0.0058
     6 (A) A             28 (A) A                -0.0057
     5 (A) A   8 (A) A   10 (A) A   16 (A) A     -0.0056
     3 (A) A   5 (A) B   10 (A) A   25 (A) B      0.0056
     3 (A) A   8 (A) A   10 (A) A   18 (A) A      0.0055
    -----------------------------------------------------

  Density matrix analysis:
  ------------------------
  NOs
    Occupation of frontier NOs:
       0.9827   0.9839
    Number of electrons: 16.000000
    Number of unpaired electrons: n_u =  2.29012, n_u,nl =  2.02546
    NO participation ratio (PR_NO):  2.702585
  
  
  Mulliken Population Analysis
  Atom      Charge (e)              h+              e-           Del q
  --------------------------------------------------------------------
   1 H       -0.151250        0.054816       -0.256288       -0.201473
   2 C        0.326909        0.535178       -0.110879        0.424299
   3 H       -0.170529        0.053678       -0.274607       -0.220929
   4 C        0.322393        0.536523       -0.109924        0.426599
   5 H       -0.154496        0.054689       -0.258586       -0.203897
   6 H       -0.173026        0.054122       -0.278721       -0.224599
  --------------------------------------------------------------------
  Sum:       -0.000000        1.289006       -1.289006        0.000000
  
  Multipole moment analysis of the density matrix
    Molecular charge:                      -0.000000
    Number of electrons:                   16.000000
      Center of electronic charge [Ang]: [ -1.559360,  -0.067326,   0.001787]
    Total nuclear charge:                  16.000000
      Center of nuclear charge [Ang]:    [ -1.556826,  -0.065602,   0.001978]
    Dipole moment [D]:                     0.236002
      Cartesian components [D]:          [  0.194761,   0.132474,   0.014682]
    RMS size of the density [Ang]:         1.274943
      Cartesian components [Ang]:        [  0.852740,   0.839841,   0.439294]
  
  Exciton analysis of the difference density matrix
    <r_h> [Ang]:                  [ -1.557522,  -0.065399,   0.001739]
    <r_e> [Ang]:                  [ -1.588917,  -0.086153,  -0.000302]
    |<r_e - r_h>| [Ang]:            0.037690
    Hole size [Ang]:                1.409226
      Cartesian components [Ang]: [  0.833067,   0.820239,   0.786844]
    Electron size [Ang]:            2.075307
      Cartesian components [Ang]: [  1.374685,   1.374594,   0.726381]

  Transition density matrix analysis:
  -----------------------------------
  
  CT numbers (Mulliken)
    omega =     0.9260
    <Phe> =    -0.0109
  
  Exciton analysis of the transition density matrix
    Trans. dipole moment [D]:             0.422089
      Cartesian components [D]:         [ -0.018494,  -0.026373,   0.420859]
    <r_h> [Ang]:                        [ -1.553342,  -0.064292,   0.001810]
    <r_e> [Ang]:                        [ -1.599366,  -0.093221,  -0.001038]
    |<r_e - r_h>| [Ang]:                  0.054435
    Hole size [Ang]:                      1.210745
      Cartesian components [Ang]:       [  0.634191,   0.624000,   0.821177]
    Electron size [Ang]:                  2.293891
      Cartesian components [Ang]:       [  1.518691,   1.520080,   0.803039]
    RMS electron-hole separation [Ang]:   2.584531
      Cartesian components [Ang]:       [  1.639034,   1.636440,   1.146924]
    Covariance(r_h, r_e) [Ang^2]:         0.025502
    Correlation coefficient:              0.009182
    Center-of-mass size [Ang]:            1.301811
      Cartesian components [Ang]:       [  0.826578,   0.825067,   0.575104]

  Decomposition into state-averaged NTOs
    H- 0 -> L+ 1: -0.6787 ( 92.1%)
                   omega =  92.6%
  ----------------------------------------------------------------------------


  Excited state 4 (singlet, A)                                     [converged]
  ----------------------------------------------------------------------------
  Term symbol:  5 (1) A                                     R^2 =  2.35177e-13

  Total energy:                                            -77.9579554692 a.u.
  Excitation energy:                                               9.836385 eV

  Osc. strength:                                                      0.000055
  Trans. dip. moment [a.u.]:           [  -0.000510,    0.002146,   -0.014939]
  <i|r^2|0> [a.u.]:                    [  -0.019435,   -0.018769,    0.035776]
  Two-photon absorption cross-section (SoS) [a.u.]:                 144.674304
  Two-photon absorption matrix (SoS) [a.u.]:
                                       |   -0.291974   -0.319392    2.968656 |
                                       |   -0.319392   -0.347955    2.976896 |
                                       |    2.968656    2.976896    0.639195 |
  Two-photon absorption cross-section [a.u.]:                        87.627640
  Two-photon absorption matrix [a.u.]:
                                       |   -0.234728   -0.249304    2.327748 |
                                       |   -0.249304   -0.262854    2.299409 |
                                       |    2.327748    2.299409    0.497020 |

  Dip. moment [a.u.]:                  [  -0.090236,   -0.096468,   -0.011021]
  Total dipole [Debye]:                                               0.336914
  <r^2> [a.u.]:                        [ 180.032164,   40.338392,   10.752162]
  Total <r^2> [a.u.]:                                               231.122718

  V1^2 = 0.9635, V2^2 = 0.0365

  Important amplitudes:
      occ i     occ j     vir a      vir b          v   
    -----------------------------------------------------
     8 (A) A             11 (A) A                 0.6697
     7 (A) A              9 (A) A                 0.1497
     8 (A) A             21 (A) A                 0.0780
     8 (A) A             16 (A) A                -0.0653
     8 (A) A   8 (A) B    9 (A) A   13 (A) B      0.0165
     5 (A) A   8 (A) B   11 (A) A   11 (A) B      0.0156
     8 (A) A   8 (A) B   11 (A) A   17 (A) B      0.0140
     7 (A) A             20 (A) A                 0.0137
     7 (A) A   8 (A) B   13 (A) A   11 (A) B     -0.0128
     8 (A) A             10 (A) A                 0.0117
     5 (A) A   8 (A) A   11 (A) A   21 (A) A     -0.0110
     4 (A) A   8 (A) B   12 (A) A   11 (A) B     -0.0110
     8 (A) A   8 (A) B    9 (A) A   22 (A) B      0.0107
     8 (A) A             12 (A) A                -0.0106
     7 (A) A   8 (A) A   11 (A) A   22 (A) A      0.0096
     6 (A) A   8 (A) B   15 (A) A   11 (A) B      0.0091
     6 (A) A   8 (A) B   10 (A) A   11 (A) B     -0.0090
     7 (A) A   8 (A) B   22 (A) A   11 (A) B     -0.0089
     3 (A) A   4 (A) B   11 (A) A    9 (A) B     -0.0083
     3 (A) A   8 (A) B   11 (A) A   18 (A) B     -0.0081
     6 (A) A   8 (A) A   11 (A) A   15 (A) A     -0.0081
     7 (A) A   8 (A) A   13 (A) A   16 (A) A     -0.0078
     7 (A) A   8 (A) A   11 (A) A   13 (A) A      0.0076
     5 (A) A   8 (A) B   21 (A) A   11 (A) B      0.0071
     4 (A) A   8 (A) B   19 (A) A   11 (A) B      0.0070
     5 (A) A   8 (A) B    9 (A) A    9 (A) B      0.0067
     4 (A) A   8 (A) A   11 (A) A   12 (A) A      0.0062
     6 (A) A   8 (A) A   11 (A) A   18 (A) A     -0.0061
     3 (A) A   6 (A) B   11 (A) A   28 (A) B     -0.0060
     6 (A) A   8 (A) B   18 (A) A   11 (A) B      0.0059
     7 (A) A   8 (A) B   16 (A) A   13 (A) B      0.0057
     3 (A) A   8 (A) A   11 (A) A   18 (A) A     -0.0056
     3 (A) A   8 (A) B   11 (A) A   30 (A) B     -0.0056
     5 (A) A   8 (A) B   10 (A) A   10 (A) B      0.0055
     3 (A) A   5 (A) B   11 (A) A   25 (A) B     -0.0055
     6 (A) A   8 (A) B   11 (A) A   10 (A) B     -0.0054
     7 (A) A   8 (A) B   12 (A) A   10 (A) B      0.0054
     8 (A) A   8 (A) B   20 (A) A   22 (A) B      0.0053
     3 (A) A   8 (A) A   11 (A) A   24 (A) A     -0.0052
     5 (A) A   8 (A) A   11 (A) A   16 (A) A      0.0049
    -----------------------------------------------------

  Density matrix analysis:
  ------------------------
  NOs
    Occupation of frontier NOs:
       0.9412   1.0275
    Number of electrons: 16.000000
    Number of unpaired electrons: n_u =  2.31863, n_u,nl =  2.04868
    NO participation ratio (PR_NO):  2.910877
  
  
  Mulliken Population Analysis
  Atom      Charge (e)              h+              e-           Del q
  --------------------------------------------------------------------
   1 H       -0.167244        0.046286       -0.263753       -0.217467
   2 C        0.277366        0.497105       -0.122349        0.374756
   3 H       -0.107579        0.046179       -0.204158       -0.157979
   4 C        0.267886        0.497663       -0.125571        0.372092
   5 H       -0.142197        0.046688       -0.238286       -0.191598
   6 H       -0.128231        0.046280       -0.226084       -0.179804
  --------------------------------------------------------------------
  Sum:       -0.000000        1.180200       -1.180200       -0.000000
  
  Multipole moment analysis of the density matrix
    Molecular charge:                      0.000000
    Number of electrons:                   16.000000
      Center of electronic charge [Ang]: [ -1.553842,  -0.062412,   0.002343]
    Total nuclear charge:                  16.000000
      Center of nuclear charge [Ang]:    [ -1.556826,  -0.065602,   0.001978]
    Dipole moment [D]:                     0.336914
      Cartesian components [D]:          [ -0.229356,  -0.245198,  -0.028012]
    RMS size of the density [Ang]:         1.275435
      Cartesian components [Ang]:        [  0.858172,   0.837913,   0.433793]
  
  Exciton analysis of the difference density matrix
    <r_h> [Ang]:                  [ -1.554083,  -0.062531,   0.002038]
    <r_e> [Ang]:                  [ -1.513556,  -0.018574,   0.007340]
    |<r_e - r_h>| [Ang]:            0.060023
    Hole size [Ang]:                1.392378
      Cartesian components [Ang]: [  0.817883,   0.803874,   0.789665]
    Electron size [Ang]:            2.118568
      Cartesian components [Ang]: [  1.449213,   1.389104,   0.677128]

  Transition density matrix analysis:
  -----------------------------------
  
  CT numbers (Mulliken)
    omega =     0.9300
    <Phe> =    -0.0138
  
  Exciton analysis of the transition density matrix
    Trans. dipole moment [D]:             0.019192
      Cartesian components [D]:         [ -0.000648,   0.002727,  -0.018986]
    <r_h> [Ang]:                        [ -1.556322,  -0.065444,   0.001627]
    <r_e> [Ang]:                        [ -1.505972,  -0.009136,   0.008369]
    |<r_e - r_h>| [Ang]:                  0.075836
    Hole size [Ang]:                      1.224998
      Cartesian components [Ang]:       [  0.656934,   0.646809,   0.806657]
    Electron size [Ang]:                  2.256410
      Cartesian components [Ang]:       [  1.544947,   1.478919,   0.719251]
    RMS electron-hole separation [Ang]:   2.557941
      Cartesian components [Ang]:       [  1.670930,   1.607490,   1.080293]
    Covariance(r_h, r_e) [Ang^2]:         0.027346
    Correlation coefficient:              0.009893
    Center-of-mass size [Ang]:            1.289060
      Cartesian components [Ang]:       [  0.843708,   0.810906,   0.540612]

  Decomposition into state-averaged NTOs
    H- 0 -> L+ 2: -0.6644 ( 88.3%)
    H- 1 -> L+ 0:  0.1477 (  4.4%)
                   omega =  93.0%
  ----------------------------------------------------------------------------


  Excited state 5 (singlet, A)                                     [converged]
  ----------------------------------------------------------------------------
  Term symbol:  6 (1) A                                     R^2 =  1.07267e-13

  Total energy:                                            -77.9424375539 a.u.
  Excitation energy:                                              10.258649 eV

  Osc. strength:                                                      0.000004
  Trans. dip. moment [a.u.]:           [  -0.000127,    0.000119,    0.003776]
  <i|r^2|0> [a.u.]:                    [   0.082682,   -0.102632,    0.019801]
  Two-photon absorption cross-section (SoS) [a.u.]:                 205.935492
  Two-photon absorption matrix (SoS) [a.u.]:
                                       |    0.345363    0.035438   -3.557081 |
                                       |    0.035438   -0.420092    3.596652 |
                                       |   -3.557081    3.596652    0.089681 |
  Two-photon absorption cross-section [a.u.]:                       101.114527
  Two-photon absorption matrix [a.u.]:
                                       |    0.246936    0.028273   -2.492106 |
                                       |    0.028273   -0.288567    2.520674 |
                                       |   -2.492106    2.520674    0.061678 |

  Dip. moment [a.u.]:                  [   0.007297,   -0.001485,    0.000433]
[...]
    16   -1.448240043017e-03
    17   -1.745364777253e-03
    18   -1.137283966194e-04
    19   -3.239059824901e-03
    20    1.184056553287e-02
    21    9.453719801451e-01
    22   -2.735278369664e-04
    23    1.413432382615e-02
    24    8.298490181308e-04
    25    7.072377650975e-02
    26   -5.263191249744e-02
    27   -1.400154670551e+00
    28    1.021575857702e-01
    29   -9.006432037879e-02
    30   -9.077153991618e-04
    31    3.983658439722e-01
    32   -3.622973890692e-01
    33   -4.220016263786e-03
    34    1.554487407066e-02
    35   -1.401920263201e-03
    36   -1.833320813160e-03
    37    5.770039586498e-04
    38   -2.999687369187e-03
    39    8.895509121905e-03
    40    9.292935979035e-01
    41    3.418853552153e-04
    42   -1.395893914868e-02
    43   -8.385989837074e-04
    44    1.095041889625e-02
    45    9.526312986309e-01
    46    1.397623863827e-02
    47    6.235160411845e-04
    48    6.815560962801e-04
Sym=X
Ene= 0.232364
Spin=Alpha
Occup=0
     1    2.760481606407e-02
     2    1.258564471302e+00
     3   -1.474553828045e-02
     4   -3.784528327529e-03
     5   -9.139130314855e-04
     6    4.774826115533e-03
     7   -4.120965187006e-03
     8   -9.443009781815e-02
     9   -1.574358906253e-01
    10   -1.557085764608e-01
    11   -1.661407893904e-02
    12   -5.602927187870e-01
    13   -5.522593992128e-01
    14   -5.895218550010e-02
    15    1.298334034713e-03
    16   -9.228636887273e-05
    17   -1.920401692703e-04
    18    6.890177452564e-04
    19   -6.464578880524e-04
    20   -2.607667119608e-02
    21   -1.134107580230e+00
    22   -2.440507280602e-03
    23   -1.286549180977e-02
    24   -8.790981224193e-04
    25   -2.502209395630e-03
    26    2.555601010771e-03
    27    2.967861393087e-02
    28   -1.551758691459e-01
    29   -1.597699146352e-01
    30   -1.694208978102e-02
    31   -5.328707020932e-01
    32   -5.587366252959e-01
    33   -5.886136980529e-02
    34   -4.205345334273e-04
    35    1.806866803588e-05
    36    1.328962903616e-05
    37   -2.151943071489e-06
    38    2.191805207659e-04
    39    2.494108264562e-02
    40    1.158208951003e+00
    41   -2.520002548478e-03
    42   -1.358010077360e-02
    43   -9.386690133362e-04
    44   -2.843462865788e-02
    45   -1.201682808691e+00
    46   -1.387092720475e-02
    47   -3.498634399387e-03
    48   -8.631856261051e-04
Sym=X
Ene= 0.239218
Spin=Alpha
Occup=0
     1    1.605223414898e-02
     2    1.046707988031e+00
     3   -1.651782786803e-02
     4   -9.029076491504e-03
     5   -1.327718009726e-03
     6    8.669537995736e-02
     7   -8.038384000388e-02
     8   -1.591714819347e+00
     9   -5.231044488351e-02
    10    6.302157188136e-02
    11    1.083744389199e-03
    12   -2.145022673388e-01
    13    2.463722293822e-01
    14    3.584939711785e-03
    15    2.266805933741e-02
    16   -2.640007778275e-03
    17   -2.966251694642e-03
    18    5.851225249785e-04
    19   -1.291243776347e-02
    20    1.668302637483e-02
    21    1.141171507691e+00
    22    8.554086839856e-03
    23    1.795770436008e-02
    24    1.460438537382e-03
    25   -8.576449951698e-02
    26    7.878734690425e-02
    27    1.574399604151e+00
    28   -5.358519363464e-02
    29    6.236014637905e-02
    30    1.592966064343e-03
    31   -2.113239183945e-01
    32    2.522400066644e-01
    33    6.626858883106e-03
    34   -2.233605669199e-02
    35    2.521083524814e-03
    36    3.013273117826e-03
    37   -1.105466566403e-03
    38    1.259026624922e-02
    39   -1.746520079933e-02
    40   -1.143128987376e+00
    41    8.602038154257e-03
    42    1.806219912258e-02
    43    1.514310098210e-03
    44   -1.552950330272e-02
    45   -1.022058185738e+00
    46   -1.578601618141e-02
    47   -9.371695128976e-03
    48   -1.278027196931e-03
Sym=X
Ene= 0.303674
Spin=Alpha
Occup=0
     1    2.155908327147e-02
     2   -1.690045680207e+00
     3    2.295411501838e-02
     4   -5.076757524396e-04
     5    1.072176903441e-03
     6    3.440461519102e-04
     7   -5.474557465485e-05
     8   -1.350246371003e-02
     9    1.332943586794e-01
    10    1.397766243771e-01
    11    1.456045694757e-02
    12    1.153648023693e+00
    13    1.197483498007e+00
    14    1.256312816865e-01
    15    2.228339726813e-04
    16    1.655827902684e-03
    17   -1.895889432042e-03
    18    3.313118496928e-02
    19    1.293836974206e-03
    20   -2.179033539524e-02
    21    1.696786274377e+00
    22   -1.395566639840e-03
    23    2.309331208785e-02
    24    1.282261532040e-03
    25   -2.170578973947e-04
    26   -7.145656104591e-06
    27   -9.775987168705e-03
    28   -1.348244468814e-01
    29   -1.407074991880e-01
    30   -1.481170295550e-02
    31   -1.137042916593e+00
    32   -1.202475456308e+00
    33   -1.255549292078e-01
    34    1.839004809643e-04
    35    1.524831792819e-03
    36   -1.963125433728e-03
    37    3.238214109903e-02
    38    1.190614229409e-03
    39   -2.093603392221e-02
    40    1.698200971549e+00
    41    1.627192794013e-03
    42   -2.293323390256e-02
    43   -1.300272855023e-03
    44    1.835859108639e-02
    45   -1.680310290287e+00
    46   -2.306266008806e-02
    47    7.124910196020e-04
    48   -1.044192568980e-03
Sym=X
Ene= 0.463693
Spin=Alpha
Occup=0
     1   -1.227152998676e-01
     2   -7.112807312907e-01
     3   -1.660883461967e-02
     4   -9.921045242674e-03
     5   -1.367973498029e-03
     6    6.055455130874e-02
     7    1.945500718230e-02
     8   -3.685118917812e+00
     9    9.919289397953e-02
    10   -9.554297513217e-02
    11   -1.042948120690e-03
    12    2.453045324256e+00
    13   -2.346866483856e+00
    14   -2.097645025421e-02
    15    5.527060420613e-02
    16   -3.508918787927e-03
    17   -4.785512534602e-03
    18   -1.170437019906e-03
    19    1.802455359446e-02
    20   -1.209990710828e-01
    21   -7.091063669597e-01
    22    9.273077517644e-03
    23    1.677521069005e-02
    24    1.430824885447e-03
    25   -6.108301886127e-02
    26   -1.654145911808e-02
    27    3.694009042277e+00
    28    1.051851679456e-01
    29   -9.940457723794e-02
    30   -1.336478669504e-03
    31    2.433186427939e+00
    32   -2.342107743220e+00
    33   -2.323043124605e-02
    34   -5.328223545583e-02
    35    3.262586433854e-03
    36    4.455976691877e-03
    37    1.279236804643e-03
    38   -2.066009810671e-02
    39    1.068029734970e-01
    40    7.356477643270e-01
    41    9.008796275469e-03
    42    1.639418648677e-02
    43    1.396649050290e-03
    44    1.136772381313e-01
    45    6.987025933908e-01
    46   -1.608236199645e-02
    47   -9.037064563277e-03
    48   -1.317577118920e-03
Sym=X
Ene= 0.576554
Spin=Alpha
Occup=0
     1    2.450931988548e-01
     2    2.510669767347e-02
     3   -1.845277037838e-02
     4    2.531638206590e-02
     5    6.195123848916e-04
     6   -4.312535498226e-03
     7   -1.630855343740e-01
     8   -5.040894697187e-01
     9    3.026901624601e-01
    10   -2.894440224832e-01
    11   -2.718361869593e-03
    12   -6.981195153380e-01
    13    6.692101842059e-01
    14    6.722816513726e-03
    15   -4.821931122870e-03
    16    3.800265476094e-03
    17    3.393628550378e-03
    18   -1.861713175687e-03
    19    5.841389091541e-02
    20    2.456419234242e-01
    21    2.748288792785e-02
    22   -2.564984339437e-02
    23    1.743134307780e-02
    24   -1.885684109997e-04
    25   -7.323041129284e-03
    26   -1.653436572223e-01
    27   -3.548327753225e-01
    28   -2.987138446752e-01
    29    2.835201561191e-01
    30    2.470225108521e-03
    31    7.950330864888e-01
    32   -7.665581120030e-01
    33   -8.192013979957e-03
    34   -5.122427688493e-03
    35    3.833892073582e-03
    36    3.401894824325e-03
    37   -1.439974278594e-03
    38    5.832057918993e-02
    39    2.398157485256e-01
    40    7.847974893264e-02
    41    2.716776770351e-02
    42   -1.811917379814e-02
    43    1.884797492554e-04
    44    2.448497085347e-01
    45    5.416513122777e-02
    46    1.974382529824e-02
    47   -2.686202299067e-02
    48   -6.852326664865e-04
Sym=X
Ene= 0.614875
Spin=Alpha
Occup=0
     1   -5.121091226299e-01
     2    2.079141498018e-01
     3   -6.058459338692e-02
     4    3.839169919708e-02
     5   -6.299127057999e-04
     6   -3.637918657387e-06
     7   -4.141734476974e-04
     8    2.280157170890e-02
     9   -3.767187953715e-02
    10   -3.877435629226e-02
    11   -4.118797729210e-03
    12    2.696420656321e-01
    13    3.030741631602e-01
    14    3.050547083974e-02
    15   -5.966932825351e-04
    16   -7.371601131134e-03
    17    8.422168828465e-03
    18   -1.471227103265e-01
    19   -6.469193811427e-03
    20    5.144187745546e-01
    21   -2.009275201084e-01
    22    4.111631282827e-02
    23   -5.939888098610e-02
    24   -1.555532254294e-03
    25   -1.720183020726e-04
    26   -4.230249405842e-03
    27    4.169136560677e-03
    28   -3.458195637316e-02
    29   -4.034773328425e-02
    30   -4.007969785052e-03
    31    2.555742101170e-01
    32    3.125191629996e-01
    33    3.096622444107e-02
    34   -8.982785403931e-04
    35    7.514553004164e-03
    36   -8.700279568538e-03
    37    1.508522215031e-01
    38    8.126578437648e-03
    39   -5.209736188411e-01
    40    2.096167158284e-01
    41    3.995325833346e-02
    42   -5.945260604429e-02
    43   -1.689613530298e-03
    44    5.242690575694e-01
    45   -2.438306083522e-01
    46   -6.169833746566e-02
    47    3.797976241632e-02
    48   -6.016682644758e-04
Sym=X
Ene= 0.687567
Spin=Alpha
Occup=0
     1    7.261234313120e-04
     2    3.446306563487e-04
     3    1.080097519484e-03
     4    1.294527411686e-03
     5   -2.070688577811e-02
     6    4.841251113009e-05
     7    4.230080287759e-04
     8    2.773487204294e-04
     9    3.145165462318e-02
    10    3.972703175630e-02
    11   -6.684612407833e-01
    12   -2.995964254237e-02
    13   -3.533235608432e-02
    14    6.136170790270e-01
    15   -1.477490954697e-03
    16    8.237881128408e-02
    17   -7.888993916043e-02
    18   -8.642344471658e-03
    19   -9.458005561220e-04
    20    7.703907583052e-04
    21    1.266706238740e-04
    22    8.821030270527e-04
    23    1.102494910040e-03
    24   -2.066465269694e-02
    25    1.539666880582e-05
    26    7.858473126441e-04
    27   -1.039282120914e-03
    28    3.193371331467e-02
    29    3.970124708628e-02
    30   -6.684010737096e-01
    31   -3.045076082113e-02
    32   -3.534495061047e-02
    33    6.125910337552e-01
    34    1.091366668840e-03
    35   -8.231305676127e-02
    36    7.910271230434e-02
    37    8.562323472801e-03
    38    1.081834435078e-03
    39    1.567963437286e-04
    40   -1.059253840207e-03
    41    1.018546439769e-03
    42    1.475574074268e-03
    43   -2.127950562735e-02
    44    1.133801265993e-04
    45   -8.359761609249e-04
    46    7.242237641924e-04
    47    1.154685896800e-03
    48   -1.913554191984e-02
Sym=X
Ene= 0.708295
Spin=Alpha
Occup=0
     1   -4.798518505962e-01
     2    1.514453047746e-01
     3   -7.888790827201e-02
     4   -4.403845143949e-02
     5   -6.416499884725e-03
     6   -4.743446714817e-02
     7   -3.201484841303e-01
     8    5.410234527027e-01
     9    1.969767173459e-01
    10   -1.906375979005e-01
    11   -2.681224504221e-03
    12   -9.173174355259e-02
    13    9.340565978413e-02
    14    1.218580428373e-03
    15    1.916151795232e-01
    16   -2.040808484618e-02
    17   -2.371852927629e-02
    18    3.106015219387e-03
    19   -7.923926425145e-02
    20   -4.738224172136e-01
    21    1.533500781472e-01
    22    4.156070336182e-02
    23    8.049907733080e-02
    24    6.662900913792e-03
    25   -4.667496289316e-02
    26   -3.155043458633e-01
    27    4.420083884182e-01
    28   -2.015295099935e-01
    29    1.836286557458e-01
    30    5.897259528984e-04
    31    4.931591873843e-02
    32   -2.209196033045e-02
    33    2.698710509841e-03
    34    1.947677583084e-01
    35   -2.052567724409e-02
    36   -2.395916542030e-02
    37    3.016248465234e-03
    38   -7.557983348137e-02
    39   -4.794086334544e-01
    40    1.244904770686e-01
    41   -4.012308634864e-02
    42   -8.159435785713e-02
    43   -6.750221025153e-03
    44   -4.848100324910e-01
    45    1.605571801238e-01
    46    7.973299525180e-02
    47    4.476599457803e-02
    48    6.474821053707e-03
Sym=X
Ene= 0.786032
Spin=Alpha
Occup=0
     1   -5.325094032348e-01
     2    4.865630103486e-01
     3   -1.134545206460e-01
     4   -2.730245568659e-02
     5   -7.019825742295e-03
     6   -9.134651866697e-02
     7    2.097010002395e-01
     8    6.839142568074e-01
     9   -9.780640123550e-02
    10    9.824086895889e-02
    11   -2.277949060305e-04
    12   -3.487731490942e-01
    13    3.281724590771e-01
    14    5.228684610050e-03
    15    2.081096570461e-01
    16   -1.808791320430e-02
    17   -2.185699530790e-02
    18   -1.670109130586e-03
    19   -1.297401759973e-02
    20   -5.363158631746e-01
    21    4.776960833232e-01
    22    2.118725529488e-02
    23    1.128857893965e-01
    24    7.640367126851e-03
    25    9.075004341794e-02
    26   -2.213393679068e-01
    27   -6.845818213235e-01
    28   -9.450980581785e-02
    29    1.102484452999e-01
    30    3.098448499303e-03
    31   -3.579728094003e-01
    32    2.932252534806e-01
    33   -2.073161610085e-03
    34   -2.052784834494e-01
    35    1.750801123769e-02
    36    2.192890279826e-02
    37    1.997872571789e-03
    38    1.041223162836e-02
    39    5.328488369027e-01
    40   -4.521521980777e-01
    41    2.093325382359e-02
    42    1.100259555176e-01
    43    7.577102582056e-03
    44    5.416531711274e-01
    45   -5.096721326676e-01
    46   -1.126965905130e-01
    47   -2.803216242177e-02
    48   -7.008542825814e-03
Sym=X
Ene= 0.808727
Spin=Alpha
Occup=0
     1    7.948342944133e-04
     2   -1.211105015434e-03
     3    1.867588195068e-03
     4    2.056337953235e-03
     5   -3.438516478546e-02
     6    1.632637822948e-04
     7   -6.112645937446e-04
     8   -2.535488501281e-04
     9    3.652259021443e-02
    10    4.458504136398e-02
    11   -7.630045198954e-01
    12   -5.317195411892e-02
    13   -6.690128330804e-02
    14    1.130783066315e+00
    15    6.207043912053e-04
    16   -6.685644491429e-02
    17    6.419193079505e-02
    18    7.075770609435e-03
    19    7.857374152884e-04
    20    7.965383073423e-04
    21   -5.540319968485e-04
    22    1.670999189738e-03
    23    1.870461427127e-03
    24   -3.435835706888e-02
    25   -1.325827305622e-04
    26    9.668832242108e-06
    27    5.836363997066e-04
    28   -3.609415600570e-02
    29   -4.592142126106e-02
    30    7.635582963732e-01
    31    5.454284460129e-02
    32    6.706546163561e-02
    33   -1.130462475901e+00
    34    1.492584977596e-03
    35   -6.691942291822e-02
    36    6.404646564147e-02
    37    6.888823132557e-03
    38    9.505059841741e-04
    39   -7.729645441634e-04
    40    6.697944191569e-04
    41   -1.525111757810e-03
    42   -2.331137851501e-03
    43    3.410605030392e-02
    44   -7.938201271816e-04
    45    1.428642172729e-03
    46   -1.155788812595e-03
    47   -1.955694738019e-03
    48    3.246788611600e-02
Sym=X
Ene= 0.860678
Spin=Alpha
Occup=0
     1    4.543045437360e-03
     2   -1.086939201835e+00
     3    1.447472127217e-01
     4    5.669585620260e-02
     5    1.018430001592e-02
     6   -1.119926777900e-03
     7    1.101010923738e-02
     8   -1.128207390233e-02
     9   -4.083498389552e-01
    10   -4.175351543496e-01
    11   -4.381942842183e-02
    12    9.481373874683e-01
    13    9.796415239737e-01
    14    1.024070591484e-01
    15    2.057165874656e-03
    16    1.148645014754e-02
    17   -1.350013054583e-02
    18    2.321190536745e-01
    19    1.183952130561e-02
    20   -1.384088222084e-02
    21    1.094907917353e+00
    22    5.029788854500e-02
    23    1.500910309860e-01
    24    1.130613153576e-02
    25    2.061772581019e-03
    26    7.910514650186e-03
    27   -3.096527794495e-03
    28   -4.192610936341e-01
    29   -4.274680970890e-01
    30   -4.561488847515e-02
    31    9.648056492074e-01
    32    1.001434836780e+00
    33    1.059764846633e-01
    34   -6.451951614448e-03
    35   -1.130999629020e-02
    36    1.416179567410e-02
    37   -2.356626658993e-01
    38   -1.298903698546e-02
    39    1.790201358671e-02
    40   -1.103684781547e+00
    41    4.666535653381e-02
    42    1.536268589419e-01
    43    1.148402345157e-02
    44   -3.971966462978e-03
    45    1.098399760314e+00
    46    1.480325000764e-01
    47    5.525767547757e-02
    48    1.019808858565e-02
Sym=X
Ene= 0.936127
Spin=Alpha
Occup=0
     1   -1.191023607284e-01
     2    1.279692564167e+00
     3   -1.846329943703e-01
     4    6.167989704814e-03
     5   -8.497172793314e-03
     6   -1.260621191820e-03
     7    1.468165120364e-02
     8   -4.726066739226e-02
     9    4.674491528746e-01
    10    5.125468691364e-01
    11    5.250127943102e-02
    12   -1.445518825740e+00
    13   -1.574923717626e+00
    14   -1.617634292027e-01
    15    2.647552079972e-03
    16   -6.097996661125e-03
    17    6.878841267292e-03
    18   -1.230699518066e-01
    19    1.914693895889e-03
    20    1.158399701571e-01
    21   -1.300874125701e+00
    22    1.051783734333e-02
    23   -1.832204535068e-01
    24   -1.021079967502e-02
    25    2.211731952427e-03
    26    2.696473858839e-02
    27   -1.523198698655e-02
    28   -4.902862081146e-01
    29   -4.773881307205e-01
    30   -5.169205076459e-02
    31    1.496663601968e+00
    32    1.475907291866e+00
    33    1.588865223578e-01
    34   -5.929896972150e-03
    35   -5.902019703820e-03
    36    6.884723188386e-03
    37   -1.159182012521e-01
    38   -1.626711084362e-02
    39    1.192639761153e-01
    40   -1.232749059354e+00
    41   -1.894216613051e-02
    42    1.764845217105e-01
    43    9.625788073492e-03
    44   -1.163698404792e-01
    45    1.294539871089e+00
    46    1.833964717837e-01
    47   -2.588038757117e-03
    48    8.545995479246e-03
Sym=X
Ene= 0.976179
Spin=Alpha
Occup=0
     1   -5.065099602399e-02
     2    9.465022689080e-01
     3   -9.284017359581e-02
     4   -9.912921253570e-02
     5   -1.027932480437e-02
     6    2.773430515649e-02
     7    2.633211573666e-01
     8    4.716731258685e-01
     9    4.890100412355e-01
    10   -4.435979554906e-01
    11   -2.739942324657e-03
    12   -1.511023744116e+00
    13    1.345480464046e+00
    14    6.931390572588e-03
    15   -5.796867978756e-02
    16   -1.247890322424e-02
    17   -9.275463816869e-03
    18    1.171632889877e-02
    19   -3.013064790338e-01
    20   -5.515457380512e-02
    21    8.735392597417e-01
    22    9.552761143274e-02
    23    8.831740807169e-02
    24    9.787710220363e-03
    25   -2.768225378015e-02
    26   -2.520701246281e-01
    27   -4.903966835110e-01
    28    4.620623763138e-01
    29   -4.732715606276e-01
    30   -6.641680645816e-03
    31   -1.403598142539e+00
    32    1.469640194579e+00
    33    2.182223143108e-02
    34    5.691580998835e-02
    35    1.181845290693e-02
    36    9.730721266793e-03
    37   -2.052274338160e-02
    38    2.971882847991e-01
    39    5.499927023160e-02
    40   -9.651614750334e-01
    41    9.366278105849e-02
    42    1.001557461096e-01
    43    1.058290270106e-02
    44    5.516215289019e-02
    45   -8.466761642826e-01
    46   -8.067387844106e-02
    47   -9.812437229457e-02
    48   -9.465286209199e-03
[5D]

======= END OF MOLDEN-FORMATTED INPUT FILE =======


        *************************************************************
        *                                                           *
        *  Thank you very much for using Q-Chem.  Have a nice day.  *
        *                                                           *
        *************************************************************


