                  Welcome to Q-Chem
     A Quantum Leap Into The Future Of Chemistry


 Q-Chem 5.4 (devel), Q-Chem, Inc., Pleasanton, CA (2021)

 E. Epifanovsky,  A. T. B. Gilbert,  Xintian Feng,  Joonho Lee,  Yuezhi Mao,  
 N. Mardirossian,  P. Pokhilko,  A. White,  M. Wormit,  M. P. Coons,  
 A. L. Dempwolff,  Zhengting Gan,  D. Hait,  P. R. Horn,  L. D. Jacobson,  
 I. Kaliman,  J. Kussmann,  A. W. Lange,  Ka Un Lao,  D. S. Levine,  Jie Liu,  
 S. C. McKenzie,  A. F. Morrison,  K. Nanda,  F. Plasser,  D. R. Rehn,  
 M. L. Vidal,  Zhi-Qiang You,  Ying Zhu,  B. Alam,  B. Albrecht,  
 A. Aldossary,  E. Alguire,  J. H. Andersen,  D. Barton,  K. Begam,  A. Behn,  
 Y. A. Bernard,  E. J. Berquist,  H. Burton,  A. Carreras,  K. Carter-Fenk,  
 R. Chakraborty,  A. D. Chien,  K. D. Closser,  V. Cofer-Shabica,  
 S. Dasgupta,  Jia Deng,  M. de Wergifosse,  M. Diedenhofen,  Hainam Do,  
 S. Ehlert,  Po-Tung Fang,  S. Fatehi,  Qingguo Feng,  T. Friedhoff,  
 J. Gayvert,  Qinghui Ge,  G. Gidofalvi,  M. Goldey,  J. Gomes,  
 C. Gonzalez-Espinoza,  S. Gulania,  A. Gunina,  M. W. D. Hanson-Heine,  
 P. H. P. Harbach,  A. W. Hauser,  M. F. Herbst,  M. Hernandez Vera,  
 M. Hodecker,  Z. C. Holden,  S. Houck,  Xunkun Huang,  Kerwin Hui,  
 B. C. Huynh,  M. Ivanov,  Hyunjun Ji,  Hanjie Jiang,  B. Kaduk,  S. Kaehler,  
 K. Khistyaev,  Jaehoon Kim,  P. Klunzinger,  Z. Koczor-Benda,  
 Joong Hoon Koh,  D. Kosenkov,  L. Koulias,  T. Kowalczyk,  C. M. Krauter,  
 K. Kue,  A. Kunitsa,  T. Kus,  A. Landau,  K. V. Lawler,  D. Lefrancois,  
 S. Lehtola,  Rain Li,  Yi-Pei Li,  Jiashu Liang,  M. Liebenthal,  
 Hung-Hsuan Lin,  You-Sheng Lin,  Fenglai Liu,  Kuan-Yu Liu,  
 M. Loipersberger,  A. Luenser,  A. Manjanath,  P. Manohar,  E. Mansoor,  
 S. F. Manzer,  Shan-Ping Mao,  A. V. Marenich,  T. Markovich,  S. Mason,  
 S. A. Maurer,  P. F. McLaughlin,  M. F. S. J. Menger,  J.-M. Mewes,  
 S. A. Mewes,  P. Morgante,  J. W. Mullinax,  K. J. Oosterbaan,  G. Paran,  
 Alexander C. Paul,  Suranjan K. Paul,  F. Pavosevic,  Zheng Pei,  S. Prager,  
 E. I. Proynov,  E. Ramos,  B. Rana,  A. E. Rask,  A. Rettig,  R. M. Richard,  
 F. Rob,  E. Rossomme,  T. Scheele,  M. Scheurer,  M. Schneider,  
 N. Sergueev,  S. M. Sharada,  W. Skomorowski,  D. W. Small,  C. J. Stein,  
 Yu-Chuan Su,  E. J. Sundstrom,  Zhen Tao,  J. Thirman,  T. Tsuchimochi,  
 N. M. Tubman,  S. P. Veccham,  O. Vydrov,  J. Wenzel,  J. Witte,  A. Yamada,  
 Kun Yao,  S. Yeganeh,  S. R. Yost,  A. Zech,  Igor Ying Zhang,  Xing Zhang,  
 Yu Zhang,  D. Zuev,  A. Aspuru-Guzik,  A. T. Bell,  N. A. Besley,  
 K. B. Bravaya,  B. R. Brooks,  D. Casanova,  Jeng-Da Chai,  S. Coriani,  
 C. J. Cramer,  A. E. DePrince, III,  R. A. DiStasio Jr.,  A. Dreuw,  
 B. D. Dunietz,  T. R. Furlani,  W. A. Goddard III,  S. Grimme,  
 S. Hammes-Schiffer,  T. Head-Gordon,  W. J. Hehre,  Chao-Ping Hsu,  
 T.-C. Jagau,  Yousung Jung,  A. Klamt,  Jing Kong,  D. S. Lambrecht,  
 WanZhen Liang,  N. J. Mayhall,  C. W. McCurdy,  J. B. Neaton,  
 C. Ochsenfeld,  J. A. Parkhill,  R. Peverati,  V. A. Rassolov,  Yihan Shao,  
 L. V. Slipchenko,  T. Stauch,  R. P. Steele,  J. E. Subotnik,  
 A. J. W. Thom,  A. Tkatchenko,  D. G. Truhlar,  T. Van Voorhis,  
 T. A. Wesolowski,  K. B. Whaley,  H. L. Woodcock III,  P. M. Zimmerman,  
 S. Faraji,  P. M. W. Gill,  M. Head-Gordon,  J. M. Herbert,  A. I. Krylov

 Additional authors for Version 5.4.1: 
 S. Kotaru,  Shaozhi Li,  Xiangyuan Li,  F. Matz,  A. Molle,  Haisheng Ren,  
 Yingli Su,  Hung-Yi Tsai,  C. Utku,  Fang Wang

 Contributors to earlier versions of Q-Chem not listed above: 
 R. D. Adamson,  B. Austin,  R. Baer,  J. Baker,  G. J. O. Beran,  
 K. Brandhorst,  S. T. Brown,  E. F. C. Byrd,  A. K. Chakraborty,  
 G. K. L. Chan,  Chun-Min Chang,  Yunqing Chen,  C.-L. Cheng,  
 Siu Hung Chien,  D. M. Chipman,  D. L. Crittenden,  H. Dachsel,  
 R. J. Doerksen,  A. D. Dutoi,  R. G. Edgar,  J. Fosso-Tande,  
 L. Fusti-Molnar,  D. Ghosh,  A. Ghysels,  A. Golubeva-Zadorozhnaya,  
 J. Gonthier,  M. S. Gordon,  S. R. Gwaltney,  G. Hawkins,  J. E. Herr,  
 A. Heyden,  S. Hirata,  E. G. Hohenstein,  G. Kedziora,  F. J. Keil,  
 C. Kelley,  Jihan Kim,  R. A. King,  R. Z. Khaliullin,  P. P. Korambath,  
 W. Kurlancheek,  A. Laurent,  A. M. Lee,  M. S. Lee,  S. V. Levchenko,  
 Ching Yeh Lin,  D. Liotard,  E. Livshits,  R. C. Lochan,  I. Lotan,  
 L. A. Martinez-Martinez,  P. E. Maslen,  N. Nair,  D. P. O'Neill,  
 D. Neuhauser,  E. Neuscamman,  C. M. Oana,  R. Olivares-Amaya,  R. Olson,  
 T. M. Perrine,  B. Peters,  P. A. Pieniazek,  A. Prociuk,  Y. M. Rhee,  
 J. Ritchie,  M. A. Rohrdanz,  E. Rosta,  N. J. Russ,  H. F. Schaefer III,  
 M. W. Schmidt,  N. E. Schultz,  S. Sharma,  N. Shenvi,  C. D. Sherrill,  
 A. C. Simmonett,  A. Sodt,  T. Stein,  D. Stuck,  K. S. Thanthiriwatte,  
 V. Vanovschi,  L. Vogt,  Tao Wang,  A. Warshel,  M. A. Watson,  
 C. F. Williams,  Q. Wu,  X. Xu,  Jun Yang,  W. Zhang,  Yan Zhao

 Please cite Q-Chem as follows:
 Y. Shao et al., Mol. Phys. 113, 184-215 (2015)
 DOI: 10.1080/00268976.2014.952696

 Q-Chem 5.4.1 for Intel X86 EM64T Linux

 Parts of Q-Chem use Armadillo 9.800.1 (Horizon Scraper).
 http://arma.sourceforge.net/

 Q-Chem begins on Thu Nov 17 00:23:29 2022  

 Host: cpu286.baobab
0

     Scratch files written to /scratch/fum/qchem19096//
 Processing $rem in /home/share/wesolowski/qc5.aug2021.FDE/config/preferences:
 Processing $rem in /home/fum/.qchemrc:

 Checking the input file for inconsistencies... 	...done.

--------------------------------------------------------------
User input:
--------------------------------------------------------------
$comment
generated from CCJob.Templates
$end

$rem
sym_ignore = true
method = adc(2)
ee_states = 10
basis = cc-pVDZ
mem_static = 1024
mem_total = 30000
adc_davidson_maxiter = 900
adc_davidson_conv = 6
adc_print = 3
adc_prop_es = true
adc_prop_es2es = true
adc_prop_tpa = true
molden_format = True
state_analysis = true
print_orbitals = 15
gen_scfman = false
fde_export_density = true
fde_details = 3
$end

$molecule
0 1
H -0.0348278765 -0.2442097827 0.0636489606
C -1.0765972949 -0.5242748755 -0.0023551776
H -1.313264467 -1.5767591607 -0.0757276926
C -2.043634118 0.3926884087 0.0061254933
H -1.8137616575 1.4459188338 0.0804456828
H -3.090977293 0.114931858 -0.0593381042                     
$end
--------------------------------------------------------------
 ----------------------------------------------------------------
             Standard Nuclear Orientation (Angstroms)
    I     Atom           X                Y                Z
 ----------------------------------------------------------------
    1      H      -0.0348278765    -0.2442097827     0.0636489606
    2      C      -1.0765972949    -0.5242748755    -0.0023551776
    3      H      -1.3132644670    -1.5767591607    -0.0757276926
    4      C      -2.0436341180     0.3926884087     0.0061254933
    5      H      -1.8137616575     1.4459188338     0.0804456828
    6      H      -3.0909772930     0.1149318580    -0.0593381042
 ----------------------------------------------------------------
 Nuclear Repulsion Energy =          33.40607520 hartrees
 There are        8 alpha and        8 beta electrons
 Requested basis set is cc-pVDZ
 There are 24 shells and 48 basis functions
 Total memory of 30000 MB is distributed as follows: 
   MEM_STATIC is set to 1024 MB
   QALLOC/CCMAN JOB total memory use is  28976 MB
 Warning: actual memory use might exceed 30000 MB

 Total QAlloc Memory Limit  30000 MB
 Mega-Array Size      1001 MB
 MEM_STATIC part      1024 MB

                       Distance Matrix (Angstroms)
             H (  1)   C (  2)   H (  3)   C (  4)   H (  5)
   C (  2)  1.080776
   H (  3)  1.851895  1.081258
   C (  4)  2.108139  1.332687  2.102109
   H (  5)  2.453859  2.105215  3.067812  1.080583
   H (  6)  3.079636  2.114133  2.454048  1.085524  1.849958

 A cutoff of  1.0D-11 yielded    300 shell pairs
 There are      1220 function pairs (      1329 Cartesian)
 Smallest overlap matrix eigenvalue = 4.80E-03

 Scale SEOQF with 1.000000e-01/1.000000e-01/1.000000e+00

 Standard Electronic Orientation quadrupole field applied
 Nucleus-field energy     =     0.0000000022 hartrees
 Guess from superposition of atomic densities
 Warning:  Energy on first SCF cycle will be non-variational
 SAD guess density has 16.000000 electrons
 A restricted Hartree-Fock SCF calculation will be
 performed using Pulay DIIS extrapolation
 SCF converges when DIIS error is below 1.0E-08
 using 8 threads for integral computing
 -------------------------------------------------------
 OpenMP Integral computing Module                
 Release: version 1.0, May 2013, Q-Chem Inc. Pittsburgh 
 -------------------------------------------------------
 ---------------------------------------
  Cycle       Energy         DIIS Error
 ---------------------------------------
    1     -78.4353498883      1.01E-01
    2     -78.0177067563      7.21E-03
    3     -78.0383251774      1.84E-03
    4     -78.0398076210      5.73E-04
    5     -78.0399290240      5.79E-05
    6     -78.0399308983      9.28E-06
    7     -78.0399309590      2.16E-06
    8     -78.0399309619      7.67E-07
    9     -78.0399309621      1.17E-07
   10     -78.0399309621      2.30E-08
   11     -78.0399309621      6.76E-09 Convergence criterion met
 ---------------------------------------
 SCF time:  CPU 2.54 s  wall 2.20 s
 SCF   energy in the final basis set = -78.03993096
 Total energy in the final basis set = -78.03993096
Exporting Density Matrix to file 'Densmat_SCF.txt'.
Export successful
================================================================================
|                                                                              |
|                                 A D C  M A N                                 |
|                                                                              |
 ------------------------------------------------------------------------------ 
|                                                                              |
| Components:                                                                  |
|                                                                              |
| - libvmm - 1.3-trunk                                                         |
|   Authors:                                                                   |
|   Evgeny Epifanovsky, Ilya Kaliman                                           |
|                                                                              |
| - libtensor - 2.5-trunk                                                      |
|   Authors:                                                                   |
|   Evgeny Epifanovsky, Michael Wormit, Dmitry Zuev, Sam Manzer,               |
|   Ilya Kaliman                                                               |
|                                                                              |
| - libwfa - 1.1-trunk                                                         |
|   Authors:                                                                   |
|   Felix Plasser, Stefanie Mewes (Baeppler), Benjamin Thomitzni,              |
|   Michael Wormit, Feng Chen, Anna I. Krylov, Pavel Pokhilko                  |
|                                                                              |
| - libadc - 1.1-trunk                                                         |
|   Authors:                                                                   |
|   Michael Wormit, Adrian L. Dempwolff, Philipp H. P. Harbach,                |
|   Caroline Krauter, Dirk Rehn, Matthias Schneider, Jan Wenzel                |
|                                                                              |
| - adcman - 2.6-trunk                                                         |
|   Authors:                                                                   |
|   Michael Wormit, Adrian L. Dempwolff, Philipp H. P. Harbach,                |
|   Caroline Krauter, Daniel Lefrancois, Jan-Michael Mewes, Dirk Rehn,         |
|   Matthias Schneider, Jan Wenzel, Andreas Dreuw                              |
|                                                                              |
| Authors of earlier versions of ADCMAN:                                       |
| Andreas Dreuw, Jan Hendrik Starcke, Dirk Rehn, Michael Wormit                |
|                                                                              |
================================================================================

 Created directory /scratch/fum/qchem19096/plots
  Import QC data ...  CPU 0.00 s  wall 0.00 s

 Alpha MOs, Restricted
 -- Occupied --                  
-11.235 -11.234  -1.032  -0.789  -0.641  -0.582  -0.504  -0.374
  1 A     2 A     3 A     4 A     5 A     6 A     7 A     8 A                  
 -- Virtual --                   
  0.168   0.204   0.233   0.239   0.303   0.462   0.578   0.615
  9 A    10 A    11 A    12 A    13 A    14 A    15 A    16 A                  
  0.689   0.708   0.784   0.808   0.862   0.935   0.972   1.009
 17 A    18 A    19 A    20 A    21 A    22 A    23 A    24 A                  
  1.130   1.235   1.254   1.266   1.293   1.600   1.726   1.749
 25 A    26 A    27 A    28 A    29 A    30 A    31 A    32 A                  
  1.819   1.859   1.866   1.920   1.975   1.978   2.221   2.257
 33 A    34 A    35 A    36 A    37 A    38 A    39 A    40 A                  
  2.374   2.451   2.504   2.632   2.717   2.819   3.137   3.396
 41 A    42 A    43 A    44 A    45 A    46 A    47 A    48 A                  

 Beta MOs, Restricted
 -- Occupied --                  
-11.235 -11.234  -1.032  -0.789  -0.641  -0.582  -0.504  -0.374
  1 A     2 A     3 A     4 A     5 A     6 A     7 A     8 A                  
 -- Virtual --                   
  0.168   0.204   0.233   0.239   0.303   0.462   0.578   0.615
  9 A    10 A    11 A    12 A    13 A    14 A    15 A    16 A                  
  0.689   0.708   0.784   0.808   0.862   0.935   0.972   1.009
 17 A    18 A    19 A    20 A    21 A    22 A    23 A    24 A                  
  1.130   1.235   1.254   1.266   1.293   1.600   1.726   1.749
 25 A    26 A    27 A    28 A    29 A    30 A    31 A    32 A                  
  1.819   1.859   1.866   1.920   1.975   1.978   2.221   2.257
 33 A    34 A    35 A    36 A    37 A    38 A    39 A    40 A                  
  2.374   2.451   2.504   2.632   2.717   2.819   3.137   3.396
 41 A    42 A    43 A    44 A    45 A    46 A    47 A    48 A                  
  Import AO data ...  CPU 0.00 s  wall 0.00 s
  Using point group: C1
  Irreducible representations in point group: A
  Molecular orbitals: 
  Occupied MOs:
  Block   0:   1 (  A) A   2 (  A) A   3 (  A) A   4 (  A) A   5 (  A) A
                  -11.24      -11.23      -1.032     -0.7893     -0.6407
               6 (  A) A   7 (  A) A   8 (  A) A
                 -0.5818     -0.5042      -0.374
  Block   1:   1 (  A) B   2 (  A) B   3 (  A) B   4 (  A) B   5 (  A) B
                  -11.24      -11.23      -1.032     -0.7893     -0.6407
               6 (  A) B   7 (  A) B   8 (  A) B
                 -0.5818     -0.5042      -0.374
  Virtual MOs:
  Block   0:   9 (  A) A  10 (  A) A  11 (  A) A  12 (  A) A  13 (  A) A
                  0.1684      0.2036      0.2328      0.2392      0.3032
              14 (  A) A  15 (  A) A  16 (  A) A  17 (  A) A  18 (  A) A
                   0.462      0.5776      0.6148      0.6891      0.7084
              19 (  A) A  20 (  A) A  21 (  A) A  22 (  A) A
                  0.7838      0.8079      0.8619      0.9353
  Block   1:  23 (  A) A  24 (  A) A  25 (  A) A  26 (  A) A  27 (  A) A
                  0.9723       1.009        1.13       1.235       1.254
              28 (  A) A  29 (  A) A  30 (  A) A  31 (  A) A  32 (  A) A
                   1.266       1.293         1.6       1.726       1.749
              33 (  A) A  34 (  A) A  35 (  A) A  36 (  A) A
                   1.819       1.859       1.866        1.92
  Block   2:  37 (  A) A  38 (  A) A  39 (  A) A  40 (  A) A  41 (  A) A
                   1.975       1.978       2.221       2.257       2.374
              42 (  A) A  43 (  A) A  44 (  A) A  45 (  A) A  46 (  A) A
                   2.451       2.504       2.632       2.717       2.819
              47 (  A) A  48 (  A) A
                   3.137       3.396
  Block   3:   9 (  A) B  10 (  A) B  11 (  A) B  12 (  A) B  13 (  A) B
                  0.1684      0.2036      0.2328      0.2392      0.3032
              14 (  A) B  15 (  A) B  16 (  A) B  17 (  A) B  18 (  A) B
                   0.462      0.5776      0.6148      0.6891      0.7084
              19 (  A) B  20 (  A) B  21 (  A) B  22 (  A) B
                  0.7838      0.8079      0.8619      0.9353
  Block   4:  23 (  A) B  24 (  A) B  25 (  A) B  26 (  A) B  27 (  A) B
                  0.9723       1.009        1.13       1.235       1.254
              28 (  A) B  29 (  A) B  30 (  A) B  31 (  A) B  32 (  A) B
                   1.266       1.293         1.6       1.726       1.749
              33 (  A) B  34 (  A) B  35 (  A) B  36 (  A) B
                   1.819       1.859       1.866        1.92
  Block   5:  37 (  A) B  38 (  A) B  39 (  A) B  40 (  A) B  41 (  A) B
                   1.975       1.978       2.221       2.257       2.374
              42 (  A) B  43 (  A) B  44 (  A) B  45 (  A) B  46 (  A) B
                   2.451       2.504       2.632       2.717       2.819
              47 (  A) B  48 (  A) B
                   3.137       3.396
  Import MO data ...  CPU 0.13 s  wall 0.04 s
  Import HF data ...  CPU 1.91 s  wall 0.49 s
  Import 2e integrals ...  CPU 2.81 s  wall 0.58 s

--------------------------------------------------------------------------------
                                   HF Summary                                   
--------------------------------------------------------------------------------
  Energy:                                                  -78.0399309621 a.u.
  Dip. moment [a.u.]:                  [   0.000137,    0.000849,    0.000577]
  Total dipole [Debye]:                                               0.002633
  <r^2> [a.u.]:                        [ 175.435433,   34.920901,   11.630471]
  Total <r^2> [a.u.]:                                               221.986805
--------------------------------------------------------------------------------
  HF properties ...  CPU 0.17 s  wall 0.14 s
  MP(1) calculation ...  CPU 0.01 s  wall 0.00 s
  N^6 prerequesite intermediates ...  CPU 0.53 s  wall 0.10 s
  Difference density matrix of state mp2_gs printed to ASCII file 'State_mp2_gs_Difference.txt'
Exporting MP density matrix to file 'Densmat_MP.txt'.
Export successful
  Total density matrix of state mp2_gs printed to ASCII file 'State_mp2_gs_Total.txt'
Exporting MP density matrix to file 'Densmat_MP.txt'.
Export successful

--------------------------------------------------------------------------------
                                 MP(2) Summary                                  
--------------------------------------------------------------------------------
  MP energy contribution:                                   -0.2797716525 a.u.
  Total energy:                                            -78.3197026146 a.u.
  Dip. moment [a.u.]:                  [   0.000075,    0.000679,    0.000558]
  Total dipole [Debye]:                                               0.002242
  <r^2> [a.u.]:                        [ 175.480977,   34.961282,   11.461972]
  Total <r^2> [a.u.]:                                               221.904231

  Density matrix analysis:
  ------------------------
  NOs
    Occupation of frontier NOs:
       0.0453   1.9382
    Number of electrons: 16.000000
    Number of unpaired electrons: n_u =  0.40375, n_u,nl =  0.04514
    NO participation ratio (PR_NO): 13.861704
  
  
  Mulliken Population Analysis
  Atom      Charge (e)              h+              e-           Del q
  --------------------------------------------------------------------
   1 H        0.051045        0.014033       -0.011203        0.002830
   2 C       -0.099988        0.093177       -0.098838       -0.005661
   3 H        0.050619        0.014076       -0.011194        0.002882
   4 C       -0.103773        0.093288       -0.099052       -0.005765
   5 H        0.050267        0.014115       -0.011198        0.002917
   6 H        0.051830        0.014013       -0.011215        0.002797
  --------------------------------------------------------------------
  Sum:       -0.000000        0.242702       -0.242702        0.000000
  
  Multipole moment analysis of the density matrix
    Molecular charge:                      -0.000000
    Number of electrons:                   16.000000
      Center of electronic charge [Ang]: [ -1.560891,  -0.065625,   0.001960]
    Total nuclear charge:                  16.000000
      Center of nuclear charge [Ang]:    [ -1.560889,  -0.065602,   0.001978]
    Dipole moment [D]:                     0.002242
      Cartesian components [D]:          [  0.000190,   0.001727,   0.001417]
    RMS size of the density [Ang]:         1.201261
      Cartesian components [Ang]:        [  0.796774,   0.779473,   0.447885]
  
  Exciton analysis of the difference density matrix
    <r_h> [Ang]:                  [ -1.561475,  -0.065688,   0.001845]
    <r_e> [Ang]:                  [ -1.561338,  -0.065318,   0.001888]
    |<r_e - r_h>| [Ang]:            0.000397
    Hole size [Ang]:                1.394328
      Cartesian components [Ang]: [  0.847668,   0.834126,   0.727904]
    Electron size [Ang]:            1.359909
      Cartesian components [Ang]: [  0.878360,   0.861630,   0.579163]
--------------------------------------------------------------------------------
  MP(2) calculation ...  CPU 1.18 s  wall 0.55 s
  Start ADC(2)-s ...  CPU 0.01 s  wall 0.00 s
  ADC(2) intermediates ...  CPU 0.09 s  wall 0.03 s
  Starting Davidson for singlet states of irrep A ... 
--------------------------------------------------------------------------------
   It NVec Conv  Avg. Norm  Max. Norm  Conv. states           Remark
--------------------------------------------------------------------------------
        10    0  1.330e-01  4.687e-01  0.4118 n n n n n n n n Guess.
    1   20    0  2.305e-02  1.110e-01  0.3263 n n n n n n n n 
    2   30    0  5.833e-03  2.510e-02  0.3215 n n n n n n n n 
    3   40    0  1.933e-03  1.259e-02  0.3211 n n n n n n n n 
    4   50    0  6.160e-04  4.519e-03  0.3211 n n n n n n n n 
    5   20    0  2.836e-04  2.122e-03  0.3211 n n n n n n n n Subspace collapsed.
    6   30    0  1.725e-04  1.509e-03  0.3211 n n n n n n n n 
    7   40    0  1.105e-04  7.959e-04  0.3211 n n n n n n n n 
    8   50    0  1.007e-04  9.481e-04  0.3211 n n n n n n n n 
    9   20    2  6.473e-05  6.222e-04  0.3211 n y n y n n n n Subspace collapsed.
   10   30    4  8.005e-05  7.805e-04  0.3211 n y y y y n n n 
   11   40    5  7.707e-05  7.667e-04  0.3211 n y y y y y n n 
   12   50    6  7.244e-05  7.236e-04  0.3211 y y y y y y n n 
   13   20    6  3.579e-05  3.574e-04  0.3211 y y y y y y n n Subspace collapsed.
   14   30    6  2.741e-05  2.736e-04  0.3211 y y y y y y n n 
   15   40    6  1.398e-05  1.395e-04  0.3211 y y y y y y n n 
   16   50    6  1.605e-05  1.605e-04  0.3211 y y y y y y n n 
   17   20    7  9.742e-06  9.739e-05  0.3211 y y y y y y n y Subspace collapsed.
   18   30    7  1.469e-05  1.468e-04  0.3211 y y y y y y n y 
   19   40    8  1.337e-05  1.337e-04  0.3211 y y y y y y y y 
   20   50    8  1.399e-05  1.399e-04  0.3211 y y y y y y y y 
   21   20    9  5.823e-06  5.823e-05  0.3211 y y y y y y y y Subspace collapsed.
   22   30    9  4.807e-06  4.807e-05  0.3211 y y y y y y y y 
   23   31    9  4.814e-06  4.813e-05  0.3211 y y y y y y y y 
   24   40    9  2.678e-06  2.678e-05  0.3211 y y y y y y y y 
   25   48    9  2.560e-06  2.560e-05  0.3211 y y y y y y y y 
   26   50    9  2.669e-06  2.669e-05  0.3211 y y y y y y y y 
   27   15    9  1.545e-06  1.545e-05  0.3211 y y y y y y y y Subspace collapsed.
   28   20    9  2.648e-06  2.648e-05  0.3211 y y y y y y y y 
   29   25    9  2.665e-06  2.665e-05  0.3211 y y y y y y y y 
   30   29    9  2.087e-06  2.087e-05  0.3211 y y y y y y y y 
   31   33    9  1.605e-06  1.605e-05  0.3211 y y y y y y y y 
   32   37    9  8.582e-07  8.582e-06  0.3211 y y y y y y y y 
   33   41    9  3.974e-07  3.974e-06  0.3211 y y y y y y y y 
   34   45    9  2.399e-07  2.399e-06  0.3211 y y y y y y y y 
   35   49    9  1.421e-07  1.421e-06  0.3211 y y y y y y y y 
   36   50    9  1.128e-07  1.128e-06  0.3211 y y y y y y y y 
   37   14   10  5.900e-08  5.900e-07  0.3211 y y y y y y y y Converged.
--------------------------------------------------------------------------------
  Davidson Summary: 
 ------------------------------------------------------------
  State  0: excitation energy =   0.3211 a.u.   (converged)
  State  1: excitation energy =   0.3325 a.u.   (converged)
  State  2: excitation energy =   0.3369 a.u.   (converged)
  State  3: excitation energy =   0.3611 a.u.   (converged)
  State  4: excitation energy =   0.3751 a.u.   (converged)
  State  5: excitation energy =   0.3871 a.u.   (converged)
  State  6: excitation energy =   0.4243 a.u.   (converged)
  State  7: excitation energy =   0.4468 a.u.   (converged)
  State  8: excitation energy =   0.4561 a.u.   (converged)
  State  9: excitation energy =   0.4642 a.u.   (converged)
 ------------------------------------------------------------

  Singlet states of irrep A ...  CPU 148.43 s  wall 47.41 s
  TDMs ...  CPU 1.62 s  wall 0.50 s
  SDMs ...  CPU 4.23 s  wall 1.25 s
  Starting TPA DIIS iterations ... 
------------------------------------ 
   It     Res. Norm  Remark
------------------------------------
                       Guess.
    1     4.403e+00  
    2     5.838e+00  
    3     1.078e+00  
    4     2.580e-01  
    5     6.584e-02  
    6     2.695e-02  
    7     8.267e-03  
    8     1.461e-03  
    9     5.431e-04  
   10     9.097e-05  
   11     2.876e-05  
   12     4.443e-06  
   13     1.442e-06  
   14     4.370e-07  Converged.
   ... Converged in 14 steps (norm: 4.37039e-07)
------------------------------------
  Starting TPA DIIS iterations ... 
------------------------------------ 
   It     Res. Norm  Remark
------------------------------------
                       Guess.
    1     4.184e+00  
    2     5.540e+00  
    3     1.029e+00  
    4     2.552e-01  
    5     6.525e-02  
    6     2.667e-02  
    7     8.120e-03  
    8     1.452e-03  
    9     5.371e-04  
   10     9.003e-05  
   11     2.839e-05  
   12     4.342e-06  
   13     1.431e-06  
   14     4.233e-07  Converged.
   ... Converged in 14 steps (norm: 4.23279e-07)
------------------------------------
  Starting TPA DIIS iterations ... 
------------------------------------ 
   It     Res. Norm  Remark
------------------------------------
                       Guess.
    1     6.879e-01  
    2     4.827e-01  
    3     1.703e-01  
    4     5.981e-02  
    5     1.839e-02  
    6     6.656e-03  
    7     1.042e-03  
    8     4.487e-04  
    9     1.251e-04  
   10     2.892e-05  
   11     6.038e-06  
   12     1.758e-06  
   13     1.163e-06  
   14     4.657e-07  Converged.
   ... Converged in 14 steps (norm: 4.65716e-07)
------------------------------------
  Starting TPA DIIS iterations ... 
------------------------------------ 
   It     Res. Norm  Remark
------------------------------------
                       Guess.
    1     4.683e+00  
    2     6.341e+00  
    3     1.158e+00  
    4     2.859e-01  
    5     7.397e-02  
    6     3.053e-02  
    7     9.348e-03  
    8     1.650e-03  
    9     6.178e-04  
   10     1.040e-04  
   11     3.321e-05  
   12     5.172e-06  
   13     1.692e-06  
   14     5.121e-07  Converged.
   ... Converged in 14 steps (norm: 5.12126e-07)
------------------------------------
  Starting TPA DIIS iterations ... 
------------------------------------ 
   It     Res. Norm  Remark
------------------------------------
                       Guess.
    1     4.449e+00  
    2     6.016e+00  
    3     1.104e+00  
    4     2.826e-01  
    5     7.331e-02  
    6     3.023e-02  
    7     9.185e-03  
    8     1.640e-03  
    9     6.108e-04  
   10     1.030e-04  
   11     3.276e-05  
   12     5.052e-06  
   13     1.677e-06  
   14     4.959e-07  Converged.
   ... Converged in 14 steps (norm: 4.95894e-07)
------------------------------------
  Starting TPA DIIS iterations ... 
------------------------------------ 
   It     Res. Norm  Remark
------------------------------------
                       Guess.
    1     6.997e-01  
    2     4.997e-01  
    3     1.799e-01  
    4     6.745e-02  
    5     1.978e-02  
    6     7.257e-03  
    7     1.173e-03  
    8     5.266e-04  
    9     1.504e-04  
   10     3.287e-05  
   11     6.892e-06  
   12     2.071e-06  
   13     1.455e-06  
   14     5.825e-07  Converged.
   ... Converged in 14 steps (norm: 5.82547e-07)
------------------------------------
  Starting TPA DIIS iterations ... 
------------------------------------ 
   It     Res. Norm  Remark
------------------------------------
                       Guess.
    1     4.800e+00  
    2     6.553e+00  
    3     1.190e+00  
    4     2.979e-01  
    5     7.745e-02  
    6     3.208e-02  
    7     9.812e-03  
    8     1.731e-03  
    9     6.500e-04  
   10     1.097e-04  
   11     3.515e-05  
   12     5.490e-06  
   13     1.802e-06  
   14     5.450e-07  Converged.
   ... Converged in 14 steps (norm: 5.4503e-07)
------------------------------------
  Starting TPA DIIS iterations ... 
------------------------------------ 
   It     Res. Norm  Remark
------------------------------------
                       Guess.
    1     4.560e+00  
    2     6.217e+00  
    3     1.135e+00  
    4     2.944e-01  
    5     7.677e-02  
    6     3.177e-02  
    7     9.642e-03  
    8     1.721e-03  
    9     6.426e-04  
   10     1.085e-04  
   11     3.466e-05  
   12     5.362e-06  
   13     1.785e-06  
   14     5.278e-07  Converged.
   ... Converged in 14 steps (norm: 5.27758e-07)
------------------------------------
  Starting TPA DIIS iterations ... 
------------------------------------ 
   It     Res. Norm  Remark
------------------------------------
                       Guess.
    1     7.043e-01  
    2     5.065e-01  
    3     1.838e-01  
    4     7.078e-02  
    5     2.035e-02  
    6     7.515e-03  
    7     1.230e-03  
    8     5.610e-04  
    9     1.615e-04  
   10     3.425e-05  
   11     7.259e-06  
   12     2.211e-06  
   13     1.589e-06  
   14     6.371e-07  Converged.
   ... Converged in 14 steps (norm: 6.37062e-07)
------------------------------------
  Starting TPA DIIS iterations ... 
------------------------------------ 
   It     Res. Norm  Remark
------------------------------------
                       Guess.
    1     5.532e+00  
    2     7.918e+00  
    3     1.396e+00  
    4     3.777e-01  
    5     1.006e-01  
    6     4.244e-02  
    7     1.290e-02  
    8     2.268e-03  
    9     8.660e-04  
   10     1.475e-04  
   11     4.844e-05  
   12     7.673e-06  
   13     2.575e-06  
   14     7.738e-07  Converged.
   ... Converged in 14 steps (norm: 7.73789e-07)
------------------------------------
  Starting TPA DIIS iterations ... 
------------------------------------ 
   It     Res. Norm  Remark
------------------------------------
                       Guess.
    1     5.253e+00  
    2     7.512e+00  
    3     1.331e+00  
    4     3.724e-01  
    5     9.977e-02  
    6     4.208e-02  
    7     1.268e-02  
    8     2.256e-03  
    9     8.556e-04  
   10     1.460e-04  
   11     4.768e-05  
   12     7.486e-06  
   13     2.542e-06  
   14     7.502e-07  Converged.
   ... Converged in 14 steps (norm: 7.50201e-07)
------------------------------------
  Starting TPA DIIS iterations ... 
------------------------------------ 
   It     Res. Norm  Remark
------------------------------------
                       Guess.
    1     7.310e-01  
    2     5.475e-01  
    3     2.080e-01  
    4     9.361e-02  
    5     2.387e-02  
    6     9.233e-03  
    7     1.625e-03  
    8     7.967e-04  
    9     2.366e-04  
   10     3.936e-05  
   11     9.748e-06  
   12     3.197e-06  
   13     2.611e-06  
   14     1.062e-06  
   15     4.097e-07  Converged.
   ... Converged in 15 steps (norm: 4.0967e-07)
------------------------------------
  Starting TPA DIIS iterations ... 
------------------------------------ 
   It     Res. Norm  Remark
------------------------------------
                       Guess.
    1     6.047e+00  
    2     8.912e+00  
    3     1.540e+00  
    4     4.379e-01  
    5     1.181e-01  
    6     5.037e-02  
    7     1.524e-02  
    8     2.673e-03  
    9     1.031e-03  
   10     1.765e-04  
   11     5.882e-05  
   12     9.377e-06  
   13     3.196e-06  
   14     9.580e-07  Converged.
   ... Converged in 14 steps (norm: 9.58047e-07)
------------------------------------
  Starting TPA DIIS iterations ... 
------------------------------------ 
   It     Res. Norm  Remark
------------------------------------
                       Guess.
    1     5.741e+00  
    2     8.454e+00  
    3     1.467e+00  
    4     4.312e-01  
    5     1.171e-01  
    6     4.999e-02  
    7     1.498e-02  
    8     2.659e-03  
    9     1.018e-03  
   10     1.747e-04  
   11     5.781e-05  
   12     9.146e-06  
   13     3.147e-06  
   14     9.307e-07  Converged.
   ... Converged in 14 steps (norm: 9.30727e-07)
------------------------------------
  Starting TPA DIIS iterations ... 
------------------------------------ 
   It     Res. Norm  Remark
------------------------------------
                       Guess.
    1     7.475e-01  
    2     5.743e-01  
    3     2.244e-01  
    4     1.115e-01  
    5     2.638e-02  
    6     1.054e-02  
    7     1.940e-03  
    8     9.705e-04  
    9     2.910e-04  
   10     4.051e-05  
   11     1.172e-05  
   12     4.005e-06  
   13     3.517e-06  
   14     1.450e-06  
   15     5.475e-07  Converged.
   ... Converged in 15 steps (norm: 5.47519e-07)
------------------------------------
  Starting TPA DIIS iterations ... 
------------------------------------ 
   It     Res. Norm  Remark
------------------------------------
                       Guess.
    1     6.548e+00  
    2     9.903e+00  
    3     1.678e+00  
    4     4.996e-01  
    5     1.360e-01  
    6     5.855e-02  
    7     1.762e-02  
    8     3.085e-03  
    9     1.201e-03  
   10     2.064e-04  
   11     6.962e-05  
   12     1.115e-05  
   13     3.854e-06  
   14     1.157e-06  
   15     4.300e-07  Converged.
   ... Converged in 15 steps (norm: 4.30024e-07)
------------------------------------
  Starting TPA DIIS iterations ... 
------------------------------------ 
   It     Res. Norm  Remark
------------------------------------
                       Guess.
    1     6.216e+00  
    2     9.393e+00  
    3     1.599e+00  
    4     4.914e-01  
    5     1.349e-01  
    6     5.814e-02  
    7     1.733e-02  
    8     3.070e-03  
    9     1.186e-03  
   10     2.042e-04  
   11     6.836e-05  
   12     1.088e-05  
   13     3.786e-06  
   14     1.127e-06  
   15     3.549e-07  Converged.
   ... Converged in 15 steps (norm: 3.54878e-07)
------------------------------------
  Starting TPA DIIS iterations ... 
------------------------------------ 
   It     Res. Norm  Remark
------------------------------------
                       Guess.
    1     7.621e-01  
    2     5.991e-01  
    3     2.399e-01  
    4     1.302e-01  
    5     2.888e-02  
    6     1.189e-02  
    7     2.276e-03  
    8     1.135e-03  
    9     3.431e-04  
   10     4.117e-05  
   11     1.385e-05  
   12     4.878e-06  
   13     4.543e-06  
   14     1.899e-06  
   15     7.195e-07  Converged.
   ... Converged in 15 steps (norm: 7.19493e-07)
------------------------------------
  Starting TPA DIIS iterations ... 
------------------------------------ 
   It     Res. Norm  Remark
------------------------------------
                       Guess.
    1     8.628e+00  
    2     1.425e+01  
    3     2.245e+00  
    4     7.829e-01  
    5     2.182e-01  
    6     9.695e-02  
    7     2.861e-02  
    8     4.975e-03  
    9     1.998e-03  
   10     3.456e-04  
   11     1.199e-04  
   12     1.947e-05  
   13     7.010e-06  
   14     2.216e-06  
   15     9.005e-07  Converged.
   ... Converged in 15 steps (norm: 9.00534e-07)
------------------------------------
  Starting TPA DIIS iterations ... 
------------------------------------ 
   It     Res. Norm  Remark
------------------------------------
                       Guess.
    1     8.187e+00  
    2     1.352e+01  
    3     2.138e+00  
    4     7.668e-01  
    5     2.167e-01  
    6     9.649e-02  
    7     2.816e-02  
    8     4.948e-03  
    9     1.968e-03  
   10     3.419e-04  
   11     1.174e-04  
   12     1.906e-05  
   13     6.814e-06  
   14     2.193e-06  
   15     6.547e-07  Converged.
   ... Converged in 15 steps (norm: 6.54705e-07)
------------------------------------
  Starting TPA DIIS iterations ... 
------------------------------------ 
   It     Res. Norm  Remark
------------------------------------
                       Guess.
    1     8.118e-01  
    2     6.916e-01  
    3     3.006e-01  
    4     2.175e-01  
    5     4.007e-02  
    6     1.803e-02  
    7     3.928e-03  
    8     1.655e-03  
    9     5.420e-04  
   10     5.314e-05  
   11     2.488e-05  
   12     9.361e-06  
   13     1.016e-05  
   14     4.527e-06  
   15     2.045e-06  
   16     9.778e-07  Converged.
   ... Converged in 16 steps (norm: 9.77846e-07)
------------------------------------
  Starting TPA DIIS iterations ... 
------------------------------------ 
   It     Res. Norm  Remark
------------------------------------
                       Guess.
    1     1.046e+01  
    2     1.836e+01  
    3     2.731e+00  
    4     1.060e+00  
    5     2.994e-01  
    6     1.358e-01  
    7     3.946e-02  
    8     6.830e-03  
    9     2.799e-03  
   10     4.843e-04  
   11     1.682e-04  
   12     2.786e-05  
   13     1.016e-05  
   14     3.490e-06  
   15     1.522e-06  
   16     5.511e-07  Converged.
   ... Converged in 16 steps (norm: 5.51066e-07)
------------------------------------
  Starting TPA DIIS iterations ... 
------------------------------------ 
   It     Res. Norm  Remark
------------------------------------
                       Guess.
    1     9.920e+00  
    2     1.741e+01  
    3     2.599e+00  
    4     1.035e+00  
    5     2.975e-01  
    6     1.353e-01  
    7     3.884e-02  
    8     6.789e-03  
    9     2.753e-03  
   10     4.789e-04  
   11     1.645e-04  
   12     2.745e-05  
   13     9.778e-06  
   14     3.493e-06  
   15     1.011e-06  
   16     5.615e-07  Converged.
   ... Converged in 16 steps (norm: 5.61483e-07)
------------------------------------
  Starting TPA DIIS iterations ... 
------------------------------------ 
   It     Res. Norm  Remark
------------------------------------
                       Guess.
    1     8.455e-01  
    2     7.628e-01  
    3     3.500e-01  
    4     2.996e-01  
    5     5.080e-02  
    6     2.377e-02  
    7     5.626e-03  
    8     1.875e-03  
    9     6.982e-04  
   10     7.538e-05  
   11     3.732e-05  
   12     1.445e-05  
   13     1.661e-05  
   14     7.807e-06  
   15     4.049e-06  
   16     1.809e-06  
   17     6.713e-07  Converged.
   ... Converged in 17 steps (norm: 6.7127e-07)
------------------------------------
  Starting TPA DIIS iterations ... 
------------------------------------ 
   It     Res. Norm  Remark
------------------------------------
                       Guess.
    1     1.139e+01  
    2     2.056e+01  
    3     2.975e+00  
    4     1.210e+00  
    5     3.437e-01  
    6     1.572e-01  
    7     4.538e-02  
    8     7.840e-03  
    9     3.241e-03  
   10     5.602e-04  
   11     1.937e-04  
   12     3.255e-05  
   13     1.195e-05  
   14     4.272e-06  
   15     1.952e-06  
   16     7.282e-07  Converged.
   ... Converged in 16 steps (norm: 7.28176e-07)
------------------------------------
  Starting TPA DIIS iterations ... 
------------------------------------ 
   It     Res. Norm  Remark
------------------------------------
                       Guess.
    1     1.081e+01  
    2     1.950e+01  
    3     2.831e+00  
    4     1.180e+00  
    5     3.416e-01  
    6     1.568e-01  
    7     4.467e-02  
    8     7.790e-03  
    9     3.186e-03  
   10     5.539e-04  
   11     1.896e-04  
   12     3.219e-05  
   13     1.141e-05  
   14     4.289e-06  
   15     1.267e-06  
   16     7.525e-07  Converged.
   ... Converged in 16 steps (norm: 7.52475e-07)
------------------------------------
  Starting TPA DIIS iterations ... 
------------------------------------ 
   It     Res. Norm  Remark
------------------------------------
                       Guess.
    1     8.604e-01  
    2     7.966e-01  
    3     3.741e-01  
    4     3.407e-01  
    5     5.653e-02  
    6     2.668e-02  
    7     6.549e-03  
    8     1.935e-03  
    9     7.741e-04  
   10     8.845e-05  
   11     4.461e-05  
   12     1.755e-05  
   13     2.045e-05  
   14     9.822e-06  
   15     5.336e-06  
   16     2.337e-06  
   17     9.369e-07  Converged.
   ... Converged in 17 steps (norm: 9.3689e-07)
------------------------------------
  Starting TPA DIIS iterations ... 
------------------------------------ 
   It     Res. Norm  Remark
------------------------------------
                       Guess.
    1     1.232e+01  
    2     2.278e+01  
    3     3.213e+00  
    4     1.361e+00  
    5     3.891e-01  
    6     1.794e-01  
    7     5.144e-02  
    8     8.872e-03  
    9     3.696e-03  
   10     6.379e-04  
   11     2.193e-04  
   12     3.745e-05  
   13     1.387e-05  
   14     5.133e-06  
   15     2.469e-06  
   16     9.431e-07  Converged.
   ... Converged in 16 steps (norm: 9.43061e-07)
------------------------------------
  Starting TPA DIIS iterations ... 
------------------------------------ 
   It     Res. Norm  Remark
------------------------------------
                       Guess.
    1     1.169e+01  
    2     2.161e+01  
    3     3.057e+00  
    4     1.326e+00  
    5     3.867e-01  
    6     1.789e-01  
    7     5.064e-02  
    8     8.813e-03  
    9     3.631e-03  
   10     6.306e-04  
   11     2.148e-04  
   12     3.719e-05  
   13     1.314e-05  
   14     5.160e-06  
   15     1.590e-06  
   16     9.791e-07  Converged.
   ... Converged in 16 steps (norm: 9.79093e-07)
------------------------------------
  Starting TPA DIIS iterations ... 
------------------------------------ 
   It     Res. Norm  Remark
------------------------------------
                       Guess.
    1     8.739e-01  
    2     8.286e-01  
    3     3.971e-01  
    4     3.796e-01  
    5     6.229e-02  
    6     2.946e-02  
    7     7.483e-03  
    8     1.978e-03  
    9     8.471e-04  
   10     1.018e-04  
   11     5.238e-05  
   12     2.102e-05  
   13     2.471e-05  
   14     1.203e-05  
   15     6.768e-06  
   16     2.916e-06  
   17     1.241e-06  
   18     4.423e-07  Converged.
   ... Converged in 18 steps (norm: 4.42308e-07)
------------------------------------
  Two-photon absorbption ...  CPU 133.09 s  wall 34.30 s
  Transition density matrix of state singlet_A_1 printed to ASCII file 'State_singlet_A_1_Transition.txt'
  Transition density matrix of state singlet_A_2 printed to ASCII file 'State_singlet_A_2_Transition.txt'
  Transition density matrix of state singlet_A_3 printed to ASCII file 'State_singlet_A_3_Transition.txt'
  Transition density matrix of state singlet_A_4 printed to ASCII file 'State_singlet_A_4_Transition.txt'
  Transition density matrix of state singlet_A_5 printed to ASCII file 'State_singlet_A_5_Transition.txt'
  Transition density matrix of state singlet_A_6 printed to ASCII file 'State_singlet_A_6_Transition.txt'
  Transition density matrix of state singlet_A_7 printed to ASCII file 'State_singlet_A_7_Transition.txt'
  Transition density matrix of state singlet_A_8 printed to ASCII file 'State_singlet_A_8_Transition.txt'
  Transition density matrix of state singlet_A_9 printed to ASCII file 'State_singlet_A_9_Transition.txt'
  Transition density matrix of state singlet_A_10 printed to ASCII file 'State_singlet_A_10_Transition.txt'
  Transition properties ...  CPU 0.65 s  wall 0.47 s
  Difference density matrix of state singlet_A_1 printed to ASCII file 'State_singlet_A_1_Difference.txt'
  Total density matrix of state singlet_A_1 printed to ASCII file 'State_singlet_A_1_Total.txt'
  Difference density matrix of state singlet_A_2 printed to ASCII file 'State_singlet_A_2_Difference.txt'
  Total density matrix of state singlet_A_2 printed to ASCII file 'State_singlet_A_2_Total.txt'
  Difference density matrix of state singlet_A_3 printed to ASCII file 'State_singlet_A_3_Difference.txt'
  Total density matrix of state singlet_A_3 printed to ASCII file 'State_singlet_A_3_Total.txt'
  Difference density matrix of state singlet_A_4 printed to ASCII file 'State_singlet_A_4_Difference.txt'
  Total density matrix of state singlet_A_4 printed to ASCII file 'State_singlet_A_4_Total.txt'
  Difference density matrix of state singlet_A_5 printed to ASCII file 'State_singlet_A_5_Difference.txt'
  Total density matrix of state singlet_A_5 printed to ASCII file 'State_singlet_A_5_Total.txt'
  Difference density matrix of state singlet_A_6 printed to ASCII file 'State_singlet_A_6_Difference.txt'
  Total density matrix of state singlet_A_6 printed to ASCII file 'State_singlet_A_6_Total.txt'
  Difference density matrix of state singlet_A_7 printed to ASCII file 'State_singlet_A_7_Difference.txt'
  Total density matrix of state singlet_A_7 printed to ASCII file 'State_singlet_A_7_Total.txt'
  Difference density matrix of state singlet_A_8 printed to ASCII file 'State_singlet_A_8_Difference.txt'
  Total density matrix of state singlet_A_8 printed to ASCII file 'State_singlet_A_8_Total.txt'
  Difference density matrix of state singlet_A_9 printed to ASCII file 'State_singlet_A_9_Difference.txt'
  Total density matrix of state singlet_A_9 printed to ASCII file 'State_singlet_A_9_Total.txt'
  Difference density matrix of state singlet_A_10 printed to ASCII file 'State_singlet_A_10_Difference.txt'
  Total density matrix of state singlet_A_10 printed to ASCII file 'State_singlet_A_10_Total.txt'
  Properties ...  CPU 0.90 s  wall 0.90 s
  ISR TDMS ...  CPU 34.88 s  wall 9.62 s
  ISR transition properties ...  CPU 0.79 s  wall 0.36 s
  Sum-over-states TPA ...  CPU 0.00 s  wall 0.00 s

--------------------------------------------------------------------------------
                   State-averaged natural transition orbitals
--------------------------------------------------------------------------------
--------------------------------------------------------------------------------
  SA-NTO decomposition ...  CPU 0.01 s  wall 0.02 s

--------------------------------------------------------------------------------
                             Excited State Summary
--------------------------------------------------------------------------------
--------------------------------------------------------------------------------

  Excited state 1 (singlet, A)                                     [converged]
  ----------------------------------------------------------------------------
  Term symbol:  2 (1) A                                     R^2 =  5.02464e-13

  Total energy:                                            -77.9986101401 a.u.
  Excitation energy:                                               8.737371 eV

  Osc. strength:                                                      0.445752
  Trans. dip. moment [a.u.]:           [   1.046192,   -0.993856,   -0.009216]
  <i|r^2|0> [a.u.]:                    [   6.174065,   -0.248865,    0.000011]
  Two-photon absorption cross-section (SoS) [a.u.]:                   0.000883
  Two-photon absorption matrix (SoS) [a.u.]:
                                       |    0.009799    0.004741    0.000299 |
                                       |    0.004741    0.002846    0.000689 |
                                       |    0.000299    0.000689   -0.000832 |
  Two-photon absorption cross-section [a.u.]:                         0.000458
  Two-photon absorption matrix [a.u.]:
                                       |    0.001215    0.000958    0.000476 |
                                       |    0.000958   -0.007719    0.001657 |
                                       |    0.000476    0.001657   -0.002418 |

  Dip. moment [a.u.]:                  [   0.000107,    0.000455,    0.000669]
  Total dipole [Debye]:                                               0.002075
  <r^2> [a.u.]:                        [ 176.234276,   35.651337,   11.871995]
  Total <r^2> [a.u.]:                                               223.757609

  V1^2 = 0.9715, V2^2 = 0.0285

  Important amplitudes:
      occ i     occ j     vir a      vir b          v   
    -----------------------------------------------------
     8 (A) A              9 (A) A                 0.6811
     6 (A) A             14 (A) A                -0.0623
     4 (A) A             10 (A) A                 0.0608
     7 (A) A             16 (A) A                 0.0570
     5 (A) A             13 (A) A                 0.0514
     6 (A) A             23 (A) A                -0.0486
     8 (A) A             20 (A) A                 0.0350
     6 (A) A             19 (A) A                 0.0308
     3 (A) A             12 (A) A                -0.0281
     5 (A) A             22 (A) A                 0.0215
     7 (A) A             11 (A) A                 0.0207
     4 (A) A             24 (A) A                 0.0188
     3 (A) A             26 (A) A                -0.0185
     8 (A) A   8 (A) B   17 (A) A   20 (A) B     -0.0184
     8 (A) A   8 (A) B    9 (A) A   28 (A) B     -0.0168
     6 (A) A             26 (A) A                -0.0163
     7 (A) A             21 (A) A                 0.0149
     3 (A) A             14 (A) A                -0.0139
     6 (A) A             12 (A) A                 0.0132
     3 (A) A   4 (A) B    9 (A) A    9 (A) B     -0.0129
     3 (A) A             19 (A) A                 0.0119
     8 (A) A   8 (A) B   18 (A) A   19 (A) B     -0.0112
     7 (A) A             32 (A) A                 0.0096
     7 (A) A             36 (A) A                 0.0086
     3 (A) A             23 (A) A                -0.0081
     8 (A) A   8 (A) B   25 (A) A   29 (A) B      0.0076
     6 (A) A             35 (A) A                -0.0071
     6 (A) A             40 (A) A                -0.0068
     3 (A) A   6 (A) B    9 (A) A   28 (A) B     -0.0065
     6 (A) A   8 (A) A   19 (A) A   28 (A) A      0.0061
     5 (A) A   7 (A) B    9 (A) A    9 (A) B     -0.0060
     5 (A) A   8 (A) B   11 (A) A   20 (A) B     -0.0059
     7 (A) A   8 (A) B   13 (A) A   20 (A) B     -0.0059
     5 (A) A   8 (A) B   16 (A) A    9 (A) B     -0.0059
     5 (A) A   8 (A) B   11 (A) A    9 (A) B      0.0059
     3 (A) A   5 (A) B    9 (A) A   25 (A) B     -0.0058
     3 (A) A             40 (A) A                -0.0057
     7 (A) A   8 (A) B   22 (A) A   20 (A) B     -0.0057
     6 (A) A   8 (A) A    9 (A) A   18 (A) A     -0.0057
     8 (A) A   8 (A) B   19 (A) A   30 (A) B     -0.0056
    -----------------------------------------------------

  Density matrix analysis:
  ------------------------
  NOs
    Occupation of frontier NOs:
       0.9495   1.0217
    Number of electrons: 16.000000
    Number of unpaired electrons: n_u =  2.31368, n_u,nl =  2.03269
    NO participation ratio (PR_NO):  2.864859
  
  
  Mulliken Population Analysis
  Atom      Charge (e)              h+              e-           Del q
  --------------------------------------------------------------------
   1 H        0.058813        0.020312       -0.012544        0.007767
   2 C       -0.115183        0.490882       -0.506077       -0.015195
   3 H        0.058200        0.020172       -0.012592        0.007580
   4 C       -0.119432        0.490730       -0.506388       -0.015658
   5 H        0.057894        0.020180       -0.012553        0.007626
   6 H        0.059709        0.020373       -0.012494        0.007879
  --------------------------------------------------------------------
  Sum:       -0.000000        1.062648       -1.062648        0.000000
  
  Multipole moment analysis of the density matrix
    Molecular charge:                      -0.000000
    Number of electrons:                   16.000000
      Center of electronic charge [Ang]: [ -1.560892,  -0.065617,   0.001956]
    Total nuclear charge:                  16.000000
      Center of nuclear charge [Ang]:    [ -1.560889,  -0.065602,   0.001978]
    Dipole moment [D]:                     0.002075
      Cartesian components [D]:          [  0.000271,   0.001157,   0.001701]
    RMS size of the density [Ang]:         1.214686
      Cartesian components [Ang]:        [  0.805003,   0.787183,   0.455826]
  
  Exciton analysis of the difference density matrix
    <r_h> [Ang]:                  [ -1.560344,  -0.065778,   0.001719]
    <r_e> [Ang]:                  [ -1.560360,  -0.065666,   0.001663]
    |<r_e - r_h>| [Ang]:            0.000126
    Hole size [Ang]:                1.285573
      Cartesian components [Ang]: [  0.728768,   0.712617,   0.783436]
    Electron size [Ang]:            1.463238
      Cartesian components [Ang]: [  0.854144,   0.830470,   0.849601]

  Transition density matrix analysis:
  -----------------------------------
  
  CT numbers (Mulliken)
    omega =     0.9535
    <Phe> =    -0.1606
  
  Exciton analysis of the transition density matrix
    Trans. dipole moment [D]:             1.833915
      Cartesian components [D]:         [  1.329577,  -1.263065,  -0.011712]
    <r_h> [Ang]:                        [ -1.560056,  -0.065935,   0.001773]
    <r_e> [Ang]:                        [ -1.560408,  -0.065655,   0.001621]
    |<r_e - r_h>| [Ang]:                  0.000475
    Hole size [Ang]:                      1.214148
      Cartesian components [Ang]:       [  0.649653,   0.636406,   0.804420]
    Electron size [Ang]:                  1.486095
      Cartesian components [Ang]:       [  0.864584,   0.839372,   0.869728]
    RMS electron-hole separation [Ang]:   1.936692
      Cartesian components [Ang]:       [  1.106764,   1.075119,   1.170456]
    Covariance(r_h, r_e) [Ang^2]:        -0.034071
    Correlation coefficient:             -0.018883
    Center-of-mass size [Ang]:            0.950591
      Cartesian components [Ang]:       [  0.527774,   0.515567,   0.599389]

  Decomposition into state-averaged NTOs
    H- 0 -> L+ 0: -0.6699 ( 89.7%)
    H- 2 -> L+ 5: -0.0836 (  1.4%)
                   omega =  95.3%
  ----------------------------------------------------------------------------


  Excited state 2 (singlet, A)                                     [converged]
  ----------------------------------------------------------------------------
  Term symbol:  3 (1) A                                     R^2 =  4.42165e-13

  Total energy:                                            -77.9872313631 a.u.
  Excitation energy:                                               9.047003 eV

  Osc. strength:                                                      0.000018
  Trans. dip. moment [a.u.]:           [  -0.001756,    0.003052,   -0.008412]
  <i|r^2|0> [a.u.]:                    [   0.054448,    0.086240,   -0.150226]
  Two-photon absorption cross-section (SoS) [a.u.]:                   4.910443
  Two-photon absorption matrix (SoS) [a.u.]:
                                       |    0.054135    0.058884   -0.552222 |
                                       |    0.058884    0.063633   -0.543150 |
                                       |   -0.552222   -0.543150   -0.117363 |
  Two-photon absorption cross-section [a.u.]:                         0.081954
  Two-photon absorption matrix [a.u.]:
                                       |   -0.002702   -0.007395    0.068333 |
                                       |   -0.007395   -0.012383    0.072960 |
                                       |    0.068333    0.072960    0.015282 |

  Dip. moment [a.u.]:                  [  -0.002803,    0.020557,    0.002258]
  Total dipole [Debye]:                                               0.053046
  <r^2> [a.u.]:                        [ 174.628226,   33.988513,   13.174958]
  Total <r^2> [a.u.]:                                               221.791697

  V1^2 = 0.9542, V2^2 = 0.0458

  Important amplitudes:
      occ i     occ j     vir a      vir b          v   
    -----------------------------------------------------
     7 (A) A              9 (A) A                -0.6689
     8 (A) A             11 (A) A                -0.1486
     7 (A) A             20 (A) A                -0.0758
     5 (A) A   8 (A) B    9 (A) A    9 (A) B      0.0316
     8 (A) A             16 (A) A                 0.0274
     8 (A) A             21 (A) A                -0.0176
     8 (A) A             10 (A) A                 0.0161
     5 (A) A             28 (A) A                 0.0150
     4 (A) A   7 (A) B    9 (A) A   19 (A) B      0.0135
     5 (A) A   7 (A) B    9 (A) A   16 (A) B     -0.0134
     7 (A) A   8 (A) B   20 (A) A   17 (A) B      0.0105
     7 (A) A   8 (A) A    9 (A) A   28 (A) A     -0.0098
     5 (A) A   8 (A) B    9 (A) A   20 (A) B      0.0095
     4 (A) A   6 (A) B    9 (A) A   16 (A) B      0.0091
     5 (A) A   6 (A) A    9 (A) A   23 (A) A      0.0091
     5 (A) A   6 (A) A    9 (A) A   14 (A) A      0.0089
     5 (A) A   6 (A) B    9 (A) A   19 (A) B     -0.0086
     8 (A) A   7 (A) B    9 (A) A   28 (A) B      0.0085
     4 (A) A   5 (A) A    9 (A) A   10 (A) A      0.0085
     6 (A) A   7 (A) B    9 (A) A   18 (A) B      0.0083
     5 (A) A   6 (A) B    9 (A) A   23 (A) B      0.0080
     8 (A) A             12 (A) A                 0.0080
     3 (A) A   7 (A) B    9 (A) A   18 (A) B     -0.0080
     5 (A) A   7 (A) A    9 (A) A   16 (A) A     -0.0079
     4 (A) A   8 (A) B    9 (A) A   25 (A) B      0.0077
     7 (A) A   8 (A) B   17 (A) A   20 (A) B      0.0074
     4 (A) A   7 (A) B   19 (A) A    9 (A) B      0.0074
     5 (A) A   5 (A) B    9 (A) A   13 (A) B     -0.0072
     7 (A) A   8 (A) B   19 (A) A   18 (A) B      0.0072
     5 (A) A   8 (A) A    9 (A) A   20 (A) A      0.0069
     4 (A) A   5 (A) B    9 (A) A   18 (A) B     -0.0068
     7 (A) A   7 (A) B   20 (A) A   22 (A) B      0.0065
     7 (A) A   8 (A) B   17 (A) A    9 (A) B      0.0065
     5 (A) A   6 (A) B    9 (A) A   14 (A) B      0.0063
     4 (A) A   7 (A) A    9 (A) A   19 (A) A      0.0061
     4 (A) A   5 (A) B   10 (A) A    9 (A) B     -0.0061
     5 (A) A   7 (A) B   11 (A) A   20 (A) B      0.0060
     4 (A) A   7 (A) B    9 (A) A   14 (A) B      0.0060
     4 (A) A   8 (A) A    9 (A) A   25 (A) A      0.0057
     6 (A) A   7 (A) A   19 (A) A   28 (A) A     -0.0057
    -----------------------------------------------------

  Density matrix analysis:
  ------------------------
  NOs
    Occupation of frontier NOs:
       0.9572   1.0545
    Number of electrons: 16.000000
    Number of unpaired electrons: n_u =  2.35558, n_u,nl =  2.06338
    NO participation ratio (PR_NO):  3.032597
  
  
  Mulliken Population Analysis
  Atom      Charge (e)              h+              e-           Del q
  --------------------------------------------------------------------
   1 H        0.149810        0.120816       -0.022052        0.098764
   2 C       -0.300941        0.269847       -0.470800       -0.200952
   3 H        0.149678        0.126356       -0.027297        0.099059
   4 C       -0.304085        0.274171       -0.474483       -0.200312
   5 H        0.155848        0.127260       -0.021679        0.105581
   6 H        0.149691        0.125327       -0.027466        0.097861
  --------------------------------------------------------------------
  Sum:       -0.000000        1.043776       -1.043776        0.000000
  
  Multipole moment analysis of the density matrix
    Molecular charge:                      -0.000000
    Number of electrons:                   16.000000
      Center of electronic charge [Ang]: [ -1.560796,  -0.066282,   0.001903]
    Total nuclear charge:                  16.000000
      Center of nuclear charge [Ang]:    [ -1.560889,  -0.065602,   0.001978]
    Dipole moment [D]:                     0.053046
      Cartesian components [D]:          [ -0.007125,   0.052251,   0.005740]
    RMS size of the density [Ang]:         1.200529
      Cartesian components [Ang]:        [  0.787541,   0.768418,   0.480189]
  
  Exciton analysis of the difference density matrix
    <r_h> [Ang]:                  [ -1.570664,  -0.061861,   0.001798]
    <r_e> [Ang]:                  [ -1.569205,  -0.071939,   0.000936]
    |<r_e - r_h>| [Ang]:            0.010219
    Hole size [Ang]:                1.487053
      Cartesian components [Ang]: [  1.002075,   1.000120,   0.454897]
    Electron size [Ang]:            1.477961
      Cartesian components [Ang]: [  0.883152,   0.859019,   0.816394]

  Transition density matrix analysis:
  -----------------------------------
  
  CT numbers (Mulliken)
    omega =     0.9217
    <Phe> =    -0.0121
  
  Exciton analysis of the transition density matrix
    Trans. dipole moment [D]:             0.011590
      Cartesian components [D]:         [ -0.002231,   0.003879,  -0.010691]
    <r_h> [Ang]:                        [ -1.571816,  -0.060791,   0.001879]
    <r_e> [Ang]:                        [ -1.568671,  -0.073212,   0.000808]
    |<r_e - r_h>| [Ang]:                  0.012858
    Hole size [Ang]:                      1.515701
      Cartesian components [Ang]:       [  1.024863,   1.024346,   0.444660]
    Electron size [Ang]:                  1.474933
      Cartesian components [Ang]:       [  0.873720,   0.848281,   0.832141]
    RMS electron-hole separation [Ang]:   2.095139
      Cartesian components [Ang]:       [  1.330928,   1.315093,   0.942746]
    Covariance(r_h, r_e) [Ang^2]:         0.041667
    Correlation coefficient:              0.018638
    Center-of-mass size [Ang]:            1.067252
      Cartesian components [Ang]:       [  0.681194,   0.672387,   0.472121]

  Decomposition into state-averaged NTOs
    H- 1 -> L+ 0:  0.6613 ( 87.5%)
    H- 0 -> L+ 2: -0.1488 (  4.4%)
                   omega =  92.2%
  ----------------------------------------------------------------------------


  Excited state 3 (singlet, A)                                     [converged]
  ----------------------------------------------------------------------------
  Term symbol:  4 (1) A                                     R^2 =  5.92960e-13

  Total energy:                                            -77.9828170015 a.u.
  Excitation energy:                                               9.167124 eV

  Osc. strength:                                                      0.024991
  Trans. dip. moment [a.u.]:           [  -0.015181,   -0.020282,    0.332613]
  <i|r^2|0> [a.u.]:                    [  -0.089148,   -0.001455,   -0.005900]
  Two-photon absorption cross-section (SoS) [a.u.]:                   0.003109
  Two-photon absorption matrix (SoS) [a.u.]:
                                       |   -0.010208   -0.001630    0.016232 |
                                       |   -0.001630    0.006715    0.005956 |
                                       |    0.016232    0.005956   -0.002548 |
  Two-photon absorption cross-section [a.u.]:                         0.005202
  Two-photon absorption matrix [a.u.]:
                                       |   -0.010245   -0.001326    0.022268 |
                                       |   -0.001326    0.002490    0.009105 |
                                       |    0.022268    0.009105    0.000248 |

  Dip. moment [a.u.]:                  [   0.029460,    0.012811,    0.001461]
  Total dipole [Debye]:                                               0.081739
  <r^2> [a.u.]:                        [ 181.153789,   40.596781,   11.030733]
  Total <r^2> [a.u.]:                                               232.781303

  V1^2 = 0.9587, V2^2 = 0.0413

  Important amplitudes:
      occ i     occ j     vir a      vir b          v   
    -----------------------------------------------------
     8 (A) A             10 (A) A                -0.6889
     8 (A) A             24 (A) A                -0.0507
     8 (A) A             18 (A) A                 0.0314
     4 (A) A              9 (A) A                -0.0239
     8 (A) A   8 (A) B    9 (A) A   12 (A) B      0.0219
     8 (A) A   8 (A) B   10 (A) A   17 (A) B     -0.0173
     8 (A) A             15 (A) A                -0.0168
     7 (A) A              9 (A) A                -0.0166
     5 (A) A   8 (A) B   11 (A) A   10 (A) B     -0.0165
     7 (A) A   8 (A) B   13 (A) A   10 (A) B     -0.0141
     4 (A) A   8 (A) B   12 (A) A   10 (A) B      0.0111
     6 (A) A   8 (A) A   10 (A) A   15 (A) A      0.0110
     7 (A) A   8 (A) B   22 (A) A   10 (A) B     -0.0108
     6 (A) A   8 (A) B   15 (A) A   10 (A) B     -0.0108
     4 (A) A   8 (A) A   10 (A) A   12 (A) A     -0.0106
     7 (A) A   8 (A) A   10 (A) A   22 (A) A      0.0099
     7 (A) A   8 (A) A   10 (A) A   13 (A) A      0.0097
     5 (A) A   8 (A) B   21 (A) A   10 (A) B     -0.0094
     5 (A) A   8 (A) A   10 (A) A   11 (A) A      0.0094
     6 (A) A   8 (A) A   10 (A) A   18 (A) A      0.0088
     6 (A) A   8 (A) B   10 (A) A   10 (A) B      0.0087
     7 (A) A   8 (A) A   12 (A) A   16 (A) A      0.0082
     5 (A) A   8 (A) A   10 (A) A   21 (A) A      0.0079
     3 (A) A   4 (A) B   10 (A) A    9 (A) B      0.0079
     4 (A) A   8 (A) B   19 (A) A   10 (A) B     -0.0075
     8 (A) A   8 (A) B    9 (A) A   23 (A) B     -0.0075
     8 (A) A   8 (A) B   10 (A) A   28 (A) B      0.0073
     3 (A) A   8 (A) B   10 (A) A   10 (A) B     -0.0072
     5 (A) A   8 (A) B   10 (A) A   11 (A) B     -0.0071
     3 (A) A   8 (A) A   10 (A) A   24 (A) A      0.0071
     7 (A) A   8 (A) B   16 (A) A   12 (A) B     -0.0070
     3 (A) A   8 (A) B   10 (A) A   18 (A) B      0.0069
     8 (A) A   8 (A) B    9 (A) A   19 (A) B     -0.0068
     6 (A) A   8 (A) B   18 (A) A   10 (A) B     -0.0067
     3 (A) A   6 (A) B   10 (A) A   28 (A) B      0.0062
     7 (A) A   8 (A) B   12 (A) A   11 (A) B      0.0057
     6 (A) A             28 (A) A                -0.0057
     3 (A) A   5 (A) B   10 (A) A   25 (A) B      0.0056
     5 (A) A   8 (A) A   10 (A) A   16 (A) A     -0.0056
     3 (A) A   8 (A) A   10 (A) A   18 (A) A      0.0055
    -----------------------------------------------------

  Density matrix analysis:
  ------------------------
  NOs
    Occupation of frontier NOs:
       0.9820   0.9844
    Number of electrons: 16.000000
    Number of unpaired electrons: n_u =  2.28666, n_u,nl =  2.02470
    NO participation ratio (PR_NO):  2.695261
  
  
  Mulliken Population Analysis
  Atom      Charge (e)              h+              e-           Del q
  --------------------------------------------------------------------
   1 H       -0.157821        0.054190       -0.263056       -0.208866
   2 C        0.326253        0.537114       -0.110872        0.426242
   3 H       -0.165382        0.053626       -0.269628       -0.216002
   4 C        0.323998        0.538152       -0.110380        0.427771
   5 H       -0.161558        0.054118       -0.265944       -0.211825
   6 H       -0.165490        0.053841       -0.271160       -0.217320
  --------------------------------------------------------------------
  Sum:       -0.000000        1.291040       -1.291040       -0.000000
  
  Multipole moment analysis of the density matrix
    Molecular charge:                      0.000000
    Number of electrons:                   16.000000
      Center of electronic charge [Ang]: [ -1.561863,  -0.066026,   0.001930]
    Total nuclear charge:                  16.000000
      Center of nuclear charge [Ang]:    [ -1.560889,  -0.065602,   0.001978]
    Dipole moment [D]:                     0.081739
      Cartesian components [D]:          [  0.074881,   0.032562,   0.003714]
    RMS size of the density [Ang]:         1.276835
      Cartesian components [Ang]:        [  0.855043,   0.840331,   0.439379]
  
  Exciton analysis of the difference density matrix
    <r_h> [Ang]:                  [ -1.561184,  -0.065168,   0.001831]
    <r_e> [Ang]:                  [ -1.573229,  -0.070141,   0.001461]
    |<r_e - r_h>| [Ang]:            0.013036
    Hole size [Ang]:                1.410526
      Cartesian components [Ang]: [  0.834604,   0.819801,   0.788000]
    Electron size [Ang]:            2.076153
      Cartesian components [Ang]: [  1.374500,   1.376136,   0.726230]

  Transition density matrix analysis:
  -----------------------------------
  
  CT numbers (Mulliken)
    omega =     0.9258
    <Phe> =    -0.0109
  
  Exciton analysis of the transition density matrix
    Trans. dipole moment [D]:             0.423934
      Cartesian components [D]:         [ -0.019294,  -0.025776,   0.422709]
    <r_h> [Ang]:                        [ -1.559278,  -0.065001,   0.001791]
    <r_e> [Ang]:                        [ -1.577159,  -0.071673,   0.001315]
    |<r_e - r_h>| [Ang]:                  0.019091
    Hole size [Ang]:                      1.213091
      Cartesian components [Ang]:       [  0.636696,   0.623830,   0.822827]
    Electron size [Ang]:                  2.296075
      Cartesian components [Ang]:       [  1.519013,   1.523156,   0.802841]
    RMS electron-hole separation [Ang]:   2.586972
      Cartesian components [Ang]:       [  1.639632,   1.638967,   1.147964]
    Covariance(r_h, r_e) [Ang^2]:         0.025744
    Correlation coefficient:              0.009243
    Center-of-mass size [Ang]:            1.303365
      Cartesian components [Ang]:       [  0.827269,   0.826464,   0.575624]

  Decomposition into state-averaged NTOs
    H- 0 -> L+ 1: -0.6795 ( 92.3%)
                   omega =  92.6%
  ----------------------------------------------------------------------------


  Excited state 4 (singlet, A)                                     [converged]
  ----------------------------------------------------------------------------
  Term symbol:  5 (1) A                                     R^2 =  4.21601e-13

  Total energy:                                            -77.9586394825 a.u.
  Excitation energy:                                               9.825027 eV

  Osc. strength:                                                      0.000009
  Trans. dip. moment [a.u.]:           [   0.000531,   -0.001202,    0.006045]
  <i|r^2|0> [a.u.]:                    [   0.021287,    0.017194,   -0.035659]
  Two-photon absorption cross-section (SoS) [a.u.]:                 148.094193
  Two-photon absorption matrix (SoS) [a.u.]:
                                       |    0.294110    0.323320   -3.043303 |
                                       |    0.323320    0.351213   -2.971979 |
                                       |   -3.043303   -2.971979   -0.644918 |
  Two-photon absorption cross-section [a.u.]:                        90.809577
  Two-photon absorption matrix [a.u.]:
                                       |    0.233217    0.253435   -2.385100 |
                                       |    0.253435    0.272159   -2.325197 |
                                       |   -2.385100   -2.325197   -0.504959 |

  Dip. moment [a.u.]:                  [  -0.033032,   -0.038152,   -0.004565]
  Total dipole [Debye]:                                               0.128792
  <r^2> [a.u.]:                        [ 181.420327,   40.304111,   10.767604]
  Total <r^2> [a.u.]:                                               232.492041

  V1^2 = 0.9635, V2^2 = 0.0365

  Important amplitudes:
      occ i     occ j     vir a      vir b          v   
    -----------------------------------------------------
     8 (A) A             11 (A) A                -0.6693
     7 (A) A              9 (A) A                 0.1506
     8 (A) A             21 (A) A                -0.0780
     8 (A) A             16 (A) A                 0.0648
     8 (A) A             12 (A) A                 0.0202
     8 (A) A   8 (A) B    9 (A) A   13 (A) B     -0.0167
     5 (A) A   8 (A) B   11 (A) A   11 (A) B     -0.0156
     8 (A) A   8 (A) B   11 (A) A   17 (A) B     -0.0140
     7 (A) A             20 (A) A                 0.0138
     7 (A) A   8 (A) B   13 (A) A   11 (A) B     -0.0127
     5 (A) A   8 (A) A   11 (A) A   21 (A) A      0.0110
     4 (A) A   8 (A) B   12 (A) A   11 (A) B      0.0110
     6 (A) A              9 (A) A                -0.0108
     8 (A) A   8 (A) B    9 (A) A   22 (A) B     -0.0108
     7 (A) A   8 (A) A   11 (A) A   22 (A) A      0.0096
     6 (A) A   8 (A) B   15 (A) A   11 (A) B     -0.0090
     6 (A) A   8 (A) B   10 (A) A   11 (A) B      0.0090
     7 (A) A   8 (A) B   22 (A) A   11 (A) B     -0.0089
     3 (A) A   4 (A) B   11 (A) A    9 (A) B      0.0083
     3 (A) A   8 (A) B   11 (A) A   18 (A) B      0.0081
     6 (A) A   8 (A) A   11 (A) A   15 (A) A      0.0080
     7 (A) A   8 (A) A   13 (A) A   16 (A) A     -0.0078
     7 (A) A   8 (A) A   11 (A) A   13 (A) A      0.0077
     5 (A) A   8 (A) B   21 (A) A   11 (A) B     -0.0071
     4 (A) A   8 (A) B   19 (A) A   11 (A) B     -0.0070
     5 (A) A   8 (A) B    9 (A) A    9 (A) B     -0.0068
     4 (A) A   8 (A) A   11 (A) A   12 (A) A     -0.0062
     6 (A) A   8 (A) A   11 (A) A   18 (A) A      0.0062
     3 (A) A   6 (A) B   11 (A) A   28 (A) B      0.0060
     6 (A) A   8 (A) B   18 (A) A   11 (A) B     -0.0060
     7 (A) A   8 (A) B   16 (A) A   13 (A) B      0.0057
     3 (A) A   8 (A) A   11 (A) A   18 (A) A      0.0056
     5 (A) A   8 (A) B   10 (A) A   10 (A) B     -0.0056
     3 (A) A   8 (A) B   11 (A) A   30 (A) B      0.0055
     3 (A) A   5 (A) B   11 (A) A   25 (A) B      0.0054
     6 (A) A   8 (A) B   11 (A) A   10 (A) B      0.0054
     7 (A) A   8 (A) B   12 (A) A   10 (A) B      0.0054
     8 (A) A   8 (A) B   20 (A) A   22 (A) B     -0.0053
     3 (A) A   8 (A) A   11 (A) A   24 (A) A      0.0053
     5 (A) A   8 (A) A   11 (A) A   16 (A) A     -0.0049
    -----------------------------------------------------

  Density matrix analysis:
  ------------------------
  NOs
    Occupation of frontier NOs:
       0.9403   1.0281
    Number of electrons: 16.000000
    Number of unpaired electrons: n_u =  2.31944, n_u,nl =  2.04942
    NO participation ratio (PR_NO):  2.917215
  
  
  Mulliken Population Analysis
  Atom      Charge (e)              h+              e-           Del q
  --------------------------------------------------------------------
   1 H       -0.158290        0.045591       -0.254926       -0.209335
   2 C        0.274588        0.496549       -0.121972        0.374577
   3 H       -0.114673        0.047109       -0.212401       -0.165292
   4 C        0.269491        0.497000       -0.123736        0.373265
   5 H       -0.128043        0.047320       -0.225630       -0.178310
   6 H       -0.143075        0.045604       -0.240509       -0.194905
  --------------------------------------------------------------------
  Sum:       -0.000000        1.179174       -1.179174       -0.000000
  
  Multipole moment analysis of the density matrix
    Molecular charge:                      -0.000000
    Number of electrons:                   16.000000
      Center of electronic charge [Ang]: [ -1.559796,  -0.064341,   0.002129]
    Total nuclear charge:                  16.000000
      Center of nuclear charge [Ang]:    [ -1.560889,  -0.065602,   0.001978]
    Dipole moment [D]:                     0.128792
      Cartesian components [D]:          [ -0.083959,  -0.096972,  -0.011604]
    RMS size of the density [Ang]:         1.277465
      Cartesian components [Ang]:        [  0.861519,   0.837409,   0.434106]
  
  Exciton analysis of the difference density matrix
    <r_h> [Ang]:                  [ -1.559899,  -0.064363,   0.001916]
    <r_e> [Ang]:                  [ -1.545042,  -0.046936,   0.004215]
    |<r_e - r_h>| [Ang]:            0.023015
    Hole size [Ang]:                1.394939
      Cartesian components [Ang]: [  0.818783,   0.806617,   0.790454]
    Electron size [Ang]:            2.123273
      Cartesian components [Ang]: [  1.458425,   1.386138,   0.678164]

  Transition density matrix analysis:
  -----------------------------------
  
  CT numbers (Mulliken)
    omega =     0.9297
    <Phe> =    -0.0136
  
  Exciton analysis of the transition density matrix
    Trans. dipole moment [D]:             0.007862
      Cartesian components [D]:         [  0.000675,  -0.001527,   0.007683]
    <r_h> [Ang]:                        [ -1.560634,  -0.065562,   0.001715]
    <r_e> [Ang]:                        [ -1.542394,  -0.043133,   0.004644]
    |<r_e - r_h>| [Ang]:                  0.029058
    Hole size [Ang]:                      1.228059
      Cartesian components [Ang]:       [  0.657301,   0.651225,   0.807460]
    Electron size [Ang]:                  2.260919
      Cartesian components [Ang]:       [  1.554503,   1.475277,   0.720299]
    RMS electron-hole separation [Ang]:   2.562354
      Cartesian components [Ang]:       [  1.679165,   1.605073,   1.081575]
    Covariance(r_h, r_e) [Ang^2]:         0.027534
    Correlation coefficient:              0.009917
    Center-of-mass size [Ang]:            1.291796
      Cartesian components [Ang]:       [  0.848202,   0.810141,   0.541260]

  Decomposition into state-averaged NTOs
    H- 0 -> L+ 2: -0.6646 ( 88.3%)
    H- 1 -> L+ 0: -0.1486 (  4.4%)
                   omega =  93.0%
  ----------------------------------------------------------------------------


  Excited state 5 (singlet, A)                                     [converged]
  ----------------------------------------------------------------------------
  Term symbol:  6 (1) A                                     R^2 =  5.33404e-13

  Total energy:                                            -77.9445588789 a.u.
  Excitation energy:                                              10.208180 eV

  Osc. strength:                                                      0.000001
  Trans. dip. moment [a.u.]:           [   0.000003,   -0.000041,   -0.002034]
  <i|r^2|0> [a.u.]:                    [  -0.086637,    0.103818,   -0.017433]
  Two-photon absorption cross-section (SoS) [a.u.]:                 180.962075
  Two-photon absorption matrix (SoS) [a.u.]:
                                       |   -0.317029   -0.034167    3.313356 |
                                       |   -0.034167    0.399780   -3.392127 |
                                       |    3.313356   -3.392127   -0.090062 |
  Two-photon absorption cross-section [a.u.]:                        81.733330
  Two-photon absorption matrix [a.u.]:
                                       |   -0.213671   -0.022531    2.208738 |
                                       |   -0.022531    0.268168   -2.297128 |
                                       |    2.208738   -2.297128   -0.063734 |

  Dip. moment [a.u.]:                  [   0.002000,    0.001475,    0.000415]
  Total dipole [Debye]:                                               0.006404
  <r^2> [a.u.]:                        [ 178.438250,   38.559003,   11.907244]
[...]
    16   -1.473262299670e-03
    17   -1.743652646525e-03
    18   -2.301999660180e-04
    19   -3.251965001789e-03
    20    1.116472959047e-02
    21    9.351517704654e-01
    22   -2.762732415078e-04
    23    1.396891913667e-02
    24    8.159720597084e-04
    25    7.064487449227e-02
    26   -5.276390008448e-02
    27   -1.400197095397e+00
    28    9.933103298357e-02
    29   -9.208776639776e-02
    30   -9.939577730278e-04
    31    3.883533380781e-01
    32   -3.617631020413e-01
    33   -4.001485187569e-03
    34    1.557558542485e-02
    35   -1.451646817931e-03
    36   -1.793153379849e-03
    37    4.557576278357e-05
    38   -3.159419830941e-03
    39    1.006749940812e-02
    40    9.313783646175e-01
    41    2.701211382175e-04
    42   -1.391438544724e-02
    43   -8.289525290270e-04
    44    1.067310937620e-02
    45    9.445353094702e-01
    46    1.410693053125e-02
    47    3.732260652433e-04
    48    6.792311871785e-04
Sym=X
Ene= 0.232760
Spin=Alpha
Occup=0
     1    2.707581512546e-02
     2    1.266221397318e+00
     3   -1.477184247676e-02
     4   -4.089493033172e-03
     5   -9.360438527151e-04
     6    5.920177250564e-03
     7   -6.208773423934e-03
     8   -9.951939493553e-02
     9   -1.563625590884e-01
    10   -1.562100654809e-01
    11   -1.661565139477e-02
    12   -5.632888501765e-01
    13   -5.477703000692e-01
    14   -5.893466343740e-02
    15    1.247400845845e-03
    16   -1.376313135052e-04
    17   -1.620089951881e-04
    18    2.808351732245e-05
    19   -7.417367986801e-04
    20   -2.488032294850e-02
    21   -1.121408887507e+00
    22   -2.254340471165e-03
    23   -1.294371538671e-02
    24   -8.744547000921e-04
    25   -5.038816058460e-03
    26    5.596424683833e-03
    27    7.396873476493e-02
    28   -1.558938431111e-01
    29   -1.578550647037e-01
    30   -1.681005195392e-02
    31   -5.524307186567e-01
    32   -5.490082623135e-01
    33   -5.899693924134e-02
    34   -8.673021409348e-04
    35    1.030807906791e-04
    36    7.470252155164e-05
    37    3.232740126510e-04
    38    5.566440858327e-04
    39    2.432466597874e-02
    40    1.129201570396e+00
    41   -2.280332212281e-03
    42   -1.322466267236e-02
    43   -9.008023670268e-04
    44   -2.743362185619e-02
    45   -1.242141390663e+00
    46   -1.440013214558e-02
    47   -3.967360262088e-03
    48   -9.158129760798e-04
Sym=X
Ene= 0.239216
Spin=Alpha
Occup=0
     1    1.561803044923e-02
     2    1.015562472827e+00
     3   -1.606520160402e-02
     4   -9.000920739384e-03
     5   -1.302971504441e-03
     6    8.666266469771e-02
     7   -8.000348979479e-02
     8   -1.594519196944e+00
     9   -4.855567370703e-02
    10    6.570240882776e-02
    11    1.452998204864e-03
    12   -1.949824753221e-01
    13    2.552482548912e-01
    14    5.236047260863e-03
    15    2.255852751594e-02
    16   -2.612373574908e-03
    17   -2.967656670309e-03
    18    6.835164176806e-04
    19   -1.287661207234e-02
    20    1.743538669137e-02
    21    1.163360151206e+00
    22    8.594784007581e-03
    23    1.823814689770e-02
    24    1.479667174342e-03
    25   -8.614762464117e-02
    26    7.918078408018e-02
    27    1.583958968530e+00
    28   -4.922172722738e-02
    29    6.524091155914e-02
    30    1.828870057356e-03
    31   -1.947892691673e-01
    32    2.558096203333e-01
    33    7.097756789350e-03
    34   -2.235456427267e-02
    35    2.545553624459e-03
    36    2.993515499301e-03
    37   -8.200666203857e-04
    38    1.271406400285e-02
    39   -1.780142295209e-02
    40   -1.159995189129e+00
    41    8.635138827569e-03
    42    1.818865139728e-02
    43    1.510678474584e-03
    44   -1.548884705879e-02
    45   -1.005247874484e+00
    46   -1.574537030619e-02
    47   -9.138325517466e-03
    48   -1.269941714861e-03
Sym=X
Ene= 0.303228
Spin=Alpha
Occup=0
     1    2.108078629970e-02
     2   -1.693650625412e+00
     3    2.301322089916e-02
     4   -2.638138980081e-04
     5    1.081854141158e-03
     6    1.516346569808e-04
     7   -3.420407924936e-04
     8    1.573270932925e-03
     9    1.342679705858e-01
    10    1.397135027799e-01
    11    1.460970575374e-02
    12    1.143857674599e+00
    13    1.194998993600e+00
    14    1.249686725537e-01
    15    1.030140186083e-04
    16    1.663892621635e-03
    17   -1.859220557482e-03
    18    3.286091041894e-02
    19    1.607871487924e-03
    20   -2.032810737614e-02
    21    1.689711788983e+00
    22   -1.454301804582e-03
    23    2.292247112987e-02
    24    1.277918469162e-03
    25    5.848980247876e-05
    26   -2.626732578302e-04
    27   -3.120906405498e-03
    28   -1.349046750139e-01
    29   -1.401900812977e-01
    30   -1.475370626591e-02
    31   -1.137987438231e+00
    32   -1.194509285307e+00
    33   -1.249533487252e-01
    34    1.927267829909e-04
    35    1.563708111277e-03
    36   -1.930747072882e-03
    37    3.247077102834e-02
    38    1.496531323289e-03
    39   -1.978532257438e-02
    40    1.690567636183e+00
    41    1.533533310483e-03
    42   -2.290577876269e-02
    43   -1.300910189229e-03
    44    1.953215428414e-02
    45   -1.686227037296e+00
    46   -2.300070838536e-02
    47    3.800794075015e-04
    48   -1.059150873397e-03
Sym=X
Ene= 0.462020
Spin=Alpha
Occup=0
     1   -1.157529591148e-01
     2   -7.150637077855e-01
     3   -1.563990559939e-02
     4   -1.035719956189e-02
     5   -1.347441176039e-03
     6    6.081890046192e-02
     7    1.758735821558e-02
     8   -3.592686743987e+00
     9    1.026622372126e-01
    10   -9.872560352296e-02
    11   -1.002249764738e-03
    12    2.428154040944e+00
    13   -2.302700448335e+00
    14   -2.085341071262e-02
    15    5.368493560178e-02
    16   -3.355455010063e-03
    17   -4.658395673865e-03
    18   -6.997016393937e-04
    19    1.798452499556e-02
    20   -1.213315455843e-01
    21   -7.005360992072e-01
    22    8.754193266303e-03
    23    1.640571883421e-02
    24    1.386780167936e-03
    25   -6.109495487168e-02
    26   -1.623385807522e-02
    27    3.597727768510e+00
    28    1.053126301724e-01
    29   -1.007690211577e-01
    30   -1.252733661110e-03
    31    2.418343826063e+00
    32   -2.300741554634e+00
    33   -2.235397263789e-02
    34   -5.274679763468e-02
    35    3.260165869417e-03
    36    4.496660225410e-03
    37    8.542902146755e-04
    38   -1.926926058590e-02
    39    1.149731688048e-01
    40    7.118503768635e-01
    41    8.572592734833e-03
    42    1.616908606677e-02
    43    1.363930150277e-03
    44    1.111601463430e-01
    45    7.096624790527e-01
    46   -1.539518224352e-02
    47   -1.001720066261e-02
    48   -1.335388456956e-03
Sym=X
Ene= 0.577599
Spin=Alpha
Occup=0
     1    2.486298868514e-01
     2    3.873839048319e-02
     3   -1.829458185805e-02
     4    2.547227485078e-02
     5    6.405542758593e-04
     6   -4.378384985103e-03
     7   -1.575830555261e-01
     8   -4.712244662509e-01
     9    2.993197767337e-01
    10   -2.882795466713e-01
    11   -2.923282549358e-03
    12   -7.163575610224e-01
    13    6.933313980254e-01
    14    7.323614301533e-03
    15   -5.676878795836e-03
    16    3.885740634959e-03
    17    3.680971277362e-03
    18   -3.823031932728e-03
    19    6.024442754187e-02
    20    2.529400356837e-01
    21    2.978308300753e-02
    22   -2.656836639841e-02
    23    1.678612685725e-02
    24   -2.656119893678e-04
    25   -5.846725849229e-03
    26   -1.586937916679e-01
    27   -4.005945756902e-01
    28   -2.969022992602e-01
    29    2.858308010292e-01
    30    2.850586673234e-03
    31    7.609842169016e-01
    32   -7.405962282124e-01
    33   -8.271667008205e-03
    34   -5.802087736155e-03
    35    3.874353669566e-03
    36    3.716287771751e-03
    37   -4.156537415466e-03
    38    6.017023624906e-02
    39    2.526250788577e-01
    40    5.177646052873e-02
    41    2.709961154263e-02
    42   -1.693586483624e-02
    43    2.596334221048e-04
    44    2.457789175795e-01
    45    5.453792079690e-02
    46    1.923401731333e-02
    47   -2.648512785460e-02
    48   -6.823886196826e-04
Sym=X
Ene= 0.614806
Spin=Alpha
Occup=0
     1   -5.199002897823e-01
     2    2.003414320171e-01
     3   -6.123140425226e-02
     4    3.776446121050e-02
     5   -6.804273347577e-04
     6   -6.083835927460e-04
     7    5.084846483876e-04
     8   -1.962795923767e-02
     9   -4.002611348149e-02
    10   -3.927362081766e-02
    11   -4.250776497499e-03
    12    3.020634054905e-01
    13    2.842838140875e-01
    14    3.101017623618e-02
    15    1.682396518477e-03
    16   -7.529451609630e-03
    17    8.263680802946e-03
    18   -1.477370332397e-01
    19   -5.894988617818e-03
    20    5.094309376615e-01
    21   -2.024571071811e-01
    22    4.148784351696e-02
    23   -5.829599805860e-02
    24   -1.482714234038e-03
    25    5.918305174598e-04
    26   -2.582957955991e-03
    27    2.733211401838e-02
    28   -3.952661932918e-02
    29   -3.865938475296e-02
    30   -4.154326537324e-03
    31    2.987205931891e-01
    32    2.829614781204e-01
    33    3.113043082970e-02
    34   -2.576696142584e-03
    35    7.564624600818e-03
    36   -8.446787646455e-03
    37    1.496250516446e-01
    38    6.850753394036e-03
    39   -5.108043843685e-01
    40    2.092479053124e-01
    41    4.121860071990e-02
    42   -5.840318010651e-02
    43   -1.557772356738e-03
    44    5.280366301840e-01
    45   -2.183814791392e-01
    46   -6.171224452674e-02
    47    3.732190632126e-02
    48   -6.555656126912e-04
Sym=X
Ene= 0.689100
Spin=Alpha
Occup=0
     1    4.483973060510e-04
     2    9.616474320845e-05
     3    1.073895319445e-03
     4    1.284457387606e-03
     5   -2.098712388442e-02
     6    3.076437871844e-05
     7    3.410005506704e-04
     8    8.778284278664e-06
     9    3.152549524911e-02
    10    3.984994575232e-02
    11   -6.702747254762e-01
    12   -2.935979019162e-02
    13   -3.594782211139e-02
    14    6.136287813393e-01
    15   -1.409128697370e-03
    16    8.268763371686e-02
    17   -7.838669294906e-02
    18   -8.600417740030e-03
    19   -1.088957350967e-03
    20    4.709792296467e-04
    21   -4.688099394215e-05
    22    9.300299400524e-04
    23    1.146064611179e-03
    24   -2.093063849025e-02
    25    1.279478277687e-05
    26    5.195058696663e-04
    27   -5.413479490454e-04
    28    3.185823061024e-02
    29    3.983985770854e-02
    30   -6.702713318978e-01
    31   -2.970129965754e-02
    32   -3.597383803619e-02
    33    6.130743978862e-01
    34    1.132044185078e-03
    35   -8.262963966471e-02
    36    7.848005912447e-02
    37    8.545804208815e-03
    38    1.186914531372e-03
    39    1.725287793630e-04
    40   -5.997369288782e-04
    41    1.015065975281e-03
    42    1.394029844651e-03
    43   -2.111159691035e-02
    44    1.380190474105e-04
    45   -4.593669511398e-04
    46    8.338004125073e-04
    47    1.203939082951e-03
    48   -2.021336189486e-02
Sym=X
Ene= 0.708430
Spin=Alpha
Occup=0
     1   -4.755971111529e-01
     2    1.564406524578e-01
     3   -8.044028981532e-02
     4   -4.381693884240e-02
     5   -6.440807682227e-03
     6   -4.723856069022e-02
     7   -3.204183795102e-01
     8    5.055287709390e-01
     9    2.039528601735e-01
    10   -1.923795501352e-01
    11   -2.286177511141e-03
    12   -9.405979812064e-02
    13    7.815199502086e-02
    14    4.044393986241e-04
    15    1.926041160987e-01
    16   -2.037061290496e-02
    17   -2.371649717896e-02
    18    2.332963383785e-03
    19   -7.738115940151e-02
    20   -4.723740914759e-01
    21    1.445912790417e-01
    22    4.117568898373e-02
    23    8.055997267490e-02
    24    6.682185124971e-03
    25   -4.706827497688e-02
    26   -3.174454521898e-01
    27    4.605146066262e-01
    28   -2.055424374694e-01
    29    1.892312819684e-01
    30    9.997526248660e-04
    31    7.573621796634e-02
    32   -4.624210159867e-02
    33    1.831381974140e-03
    34    1.945520725406e-01
    35   -2.046261030967e-02
    36   -2.392060015113e-02
    37    2.548757365072e-03
    38   -7.565429818833e-02
    39   -4.775388865802e-01
    40    1.342162670439e-01
    41   -4.052951355795e-02
    42   -8.141111573164e-02
    43   -6.766276588165e-03
    44   -4.783667232582e-01
    45    1.619451401431e-01
    46    8.097114515302e-02
    47    4.414809639391e-02
    48    6.465453382069e-03
Sym=X
Ene= 0.783826
Spin=Alpha
Occup=0
     1   -5.268663732508e-01
     2    4.704279652555e-01
     3   -1.104770811047e-01
     4   -2.681385474977e-02
     5   -6.825603891397e-03
     6   -9.121696874598e-02
     7    2.118796374907e-01
     8    6.473980350552e-01
     9   -1.082479850444e-01
    10    1.044888019894e-01
    11    1.749338437021e-04
    12   -3.199787491410e-01
    13    2.937764631260e-01
    14    3.903449809263e-03
    15    2.075957318511e-01
    16   -1.767638176394e-02
    17   -2.189372793568e-02
    18    1.180102272799e-03
    19   -9.963464789317e-03
    20   -5.414525017448e-01
    21    4.692073241878e-01
    22    2.008047972871e-02
    23    1.129123725791e-01
    24    7.615557650419e-03
    25    9.078426707534e-02
    26   -2.190777727539e-01
    27   -6.449328663037e-01
    28   -1.070414155305e-01
    29    1.108293010316e-01
    30    2.238984103662e-03
    31   -3.246279690612e-01
    32    2.767564649923e-01
    33   -5.719143160754e-04
    34   -2.056075949157e-01
    35    1.732305188654e-02
    36    2.193977753080e-02
    37   -6.772480178167e-04
    38    8.564812520320e-03
    39    5.389275961892e-01
    40   -4.571844408397e-01
    41    2.000572081510e-02
    42    1.111170277593e-01
    43    7.586000905385e-03
    44    5.301727319951e-01
    45   -4.819771153740e-01
    46   -1.100283785295e-01
    47   -2.691458444434e-02
    48   -6.805090004079e-03
Sym=X
Ene= 0.807934
Spin=Alpha
Occup=0
     1    5.105674916424e-04
     2   -7.919281637764e-04
     3    1.769398628392e-03
     4    2.009098857550e-03
     5   -3.381290432249e-02
     6    1.051210898054e-04
     7   -3.521126871794e-04
     8   -8.021970319308e-05
     9    3.632370113597e-02
    10    4.485653762396e-02
    11   -7.630895459464e-01
    12   -5.302145914844e-02
    13   -6.676400597638e-02
    14    1.126934119081e+00
    15    7.165786808732e-04
    16   -6.521467726015e-02
    17    6.195710674747e-02
    18    6.822555969430e-03
    19    8.515631286856e-04
    20    5.252133693957e-04
    21   -3.787592487902e-04
    22    1.669524345320e-03
    23    1.918508199494e-03
    24   -3.450279778493e-02
    25   -9.017718924604e-05
    26    5.857380589402e-05
    27    2.332531607211e-04
    28   -3.595809687924e-02
    29   -4.578234150545e-02
    30    7.633700127238e-01
    31    5.375283462364e-02
    32    6.698594849938e-02
    33   -1.126736622119e+00
    34    1.308187678562e-03
    35   -6.525973472146e-02
    36    6.186265619963e-02
    37    6.709450939131e-03
    38    9.825556185161e-04
    39   -5.095196590291e-04
    40    4.566578263360e-04
    41   -1.562021828423e-03
    42   -2.242302163407e-03
    43    3.433672480252e-02
    44   -5.099354651021e-04
    45    8.817022285043e-04
    46   -1.309485689849e-03
    47   -1.969761075505e-03
    48    3.279389760613e-02
Sym=X
Ene= 0.861923
Spin=Alpha
Occup=0
     1    9.857504047145e-03
     2   -1.087568474402e+00
     3    1.466711937736e-01
     4    5.661600549871e-02
     5    1.028289716920e-02
     6   -2.744248756849e-04
     7    3.249833817294e-03
     8   -3.045090943807e-03
     9   -4.058242485489e-01
    10   -4.249581577108e-01
    11   -4.422507398926e-02
    12    9.425902423218e-01
    13    9.924277025860e-01
    14    1.030625241761e-01
    15    3.149118333313e-04
    16    1.162626854002e-02
    17   -1.350896308842e-02
    18    2.342615210061e-01
    19    1.012276835923e-02
    20   -1.386421479285e-02
    21    1.099846157605e+00
    22    5.042360262297e-02
    23    1.508998389718e-01
    24    1.133930848562e-02
    25    6.686279257409e-04
    26    4.903432056892e-03
    27   -3.608090986934e-03
    28   -4.123504992815e-01
    29   -4.307103723002e-01
    30   -4.532178166054e-02
    31    9.538623326546e-01
    32    1.003835065763e+00
    33    1.052670955054e-01
    34   -2.157528734806e-03
    35   -1.154175543758e-02
    36    1.384748303728e-02
    37   -2.362155926378e-01
    38   -1.031387554230e-02
    39    1.636774841041e-02
    40   -1.105770080999e+00
    41    4.887144777511e-02
    42    1.529699853605e-01
    43    1.149221005460e-02
    44   -1.041403157479e-02
    45    1.095026656359e+00
    46    1.486218860613e-01
    47    5.573430509077e-02
    48    1.028385661612e-02
Sym=X
Ene= 0.935285
Spin=Alpha
Occup=0
     1   -1.167021659963e-01
     2    1.280817511589e+00
     3   -1.826651537365e-01
     4    5.878757870451e-03
     5   -8.353022524386e-03
     6   -5.490513208239e-04
     7    4.028684232951e-03
     8   -2.120986316353e-02
     9    4.697943672860e-01
    10    5.060684953825e-01
    11    5.221561024223e-02
    12   -1.453388414048e+00
    13   -1.551031827033e+00
    14   -1.606888949940e-01
    15    2.548972964098e-04
    16   -5.908927111079e-03
    17    7.115416163027e-03
    18   -1.227696927023e-01
    19    2.719239723540e-04
    20    1.185745750748e-01
    21   -1.292519563940e+00
    22    1.079401558869e-02
    23   -1.835816208301e-01
    24   -1.029016405756e-02
    25    1.012447019830e-03
    26    9.214409283156e-03
    27   -4.329062060526e-03
    28   -4.798615614987e-01
    29   -4.887665106199e-01
    30   -5.180457102881e-02
    31    1.475963825764e+00
    32    1.501661040047e+00
    33    1.592308456288e-01
    34   -3.825647759350e-03
    35   -5.685289301464e-03
    36    7.225512063964e-03
    37   -1.186978434717e-01
    38   -7.638140274358e-03
    39    1.202474579913e-01
    40   -1.258515441312e+00
    41   -1.460136644504e-02
    42    1.802180526358e-01
    43    1.007117077086e-02
    44   -1.153383798467e-01
    45    1.284190414361e+00
    46    1.815997945854e-01
    47   -4.557350717549e-03
    48    8.307333390037e-03
Sym=X
Ene= 0.972277
Spin=Alpha
Occup=0
     1   -6.381238662552e-02
     2    9.334044675321e-01
     3   -9.164561907083e-02
     4   -9.798949769185e-02
     5   -1.016915769637e-02
     6    2.542858991989e-02
     7    2.460772730116e-01
     8    5.295867011637e-01
     9    4.849871096481e-01
    10   -4.487046385266e-01
    11   -3.426241941907e-03
    12   -1.507838191194e+00
    13    1.385042283027e+00
    14    1.008296501706e-02
    15   -5.407844737162e-02
    16   -1.282494776917e-02
    17   -9.566634300623e-03
    18    1.278921244600e-02
    19   -3.007812710512e-01
    20   -6.130687514714e-02
    21    8.897181427788e-01
    22    9.502235761313e-02
    23    9.022451923891e-02
    24    9.837558264773e-03
    25   -2.546279452188e-02
    26   -2.454292125493e-01
    27   -5.307028517280e-01
    28    4.733749010221e-01
    29   -4.630398913460e-01
    30   -5.462964699432e-03
    31   -1.462576070665e+00
    32    1.441154421985e+00
    33    1.731139412213e-02
    34    5.374635040206e-02
    35    1.253298520280e-02
    36    9.795984326427e-03
    37   -1.672521381063e-02
    38    2.993478846303e-01
    39    6.240698015021e-02
    40   -9.331826450275e-01
    41    9.445729262667e-02
    42    9.607341618737e-02
    43    1.029328329228e-02
    44    6.540180309268e-02
    45   -8.916006734768e-01
    46   -8.666932819957e-02
    47   -9.763153824188e-02
    48   -9.793476727979e-03
[5D]

======= END OF MOLDEN-FORMATTED INPUT FILE =======


        *************************************************************
        *                                                           *
        *  Thank you very much for using Q-Chem.  Have a nice day.  *
        *                                                           *
        *************************************************************


