                  Welcome to Q-Chem
     A Quantum Leap Into The Future Of Chemistry


 Q-Chem 5.4 (devel), Q-Chem, Inc., Pleasanton, CA (2021)

 E. Epifanovsky,  A. T. B. Gilbert,  Xintian Feng,  Joonho Lee,  Yuezhi Mao,  
 N. Mardirossian,  P. Pokhilko,  A. White,  M. Wormit,  M. P. Coons,  
 A. L. Dempwolff,  Zhengting Gan,  D. Hait,  P. R. Horn,  L. D. Jacobson,  
 I. Kaliman,  J. Kussmann,  A. W. Lange,  Ka Un Lao,  D. S. Levine,  Jie Liu,  
 S. C. McKenzie,  A. F. Morrison,  K. Nanda,  F. Plasser,  D. R. Rehn,  
 M. L. Vidal,  Zhi-Qiang You,  Ying Zhu,  B. Alam,  B. Albrecht,  
 A. Aldossary,  E. Alguire,  J. H. Andersen,  D. Barton,  K. Begam,  A. Behn,  
 Y. A. Bernard,  E. J. Berquist,  H. Burton,  A. Carreras,  K. Carter-Fenk,  
 R. Chakraborty,  A. D. Chien,  K. D. Closser,  V. Cofer-Shabica,  
 S. Dasgupta,  Jia Deng,  M. de Wergifosse,  M. Diedenhofen,  Hainam Do,  
 S. Ehlert,  Po-Tung Fang,  S. Fatehi,  Qingguo Feng,  T. Friedhoff,  
 J. Gayvert,  Qinghui Ge,  G. Gidofalvi,  M. Goldey,  J. Gomes,  
 C. Gonzalez-Espinoza,  S. Gulania,  A. Gunina,  M. W. D. Hanson-Heine,  
 P. H. P. Harbach,  A. W. Hauser,  M. F. Herbst,  M. Hernandez Vera,  
 M. Hodecker,  Z. C. Holden,  S. Houck,  Xunkun Huang,  Kerwin Hui,  
 B. C. Huynh,  M. Ivanov,  Hyunjun Ji,  Hanjie Jiang,  B. Kaduk,  S. Kaehler,  
 K. Khistyaev,  Jaehoon Kim,  P. Klunzinger,  Z. Koczor-Benda,  
 Joong Hoon Koh,  D. Kosenkov,  L. Koulias,  T. Kowalczyk,  C. M. Krauter,  
 K. Kue,  A. Kunitsa,  T. Kus,  A. Landau,  K. V. Lawler,  D. Lefrancois,  
 S. Lehtola,  Rain Li,  Yi-Pei Li,  Jiashu Liang,  M. Liebenthal,  
 Hung-Hsuan Lin,  You-Sheng Lin,  Fenglai Liu,  Kuan-Yu Liu,  
 M. Loipersberger,  A. Luenser,  A. Manjanath,  P. Manohar,  E. Mansoor,  
 S. F. Manzer,  Shan-Ping Mao,  A. V. Marenich,  T. Markovich,  S. Mason,  
 S. A. Maurer,  P. F. McLaughlin,  M. F. S. J. Menger,  J.-M. Mewes,  
 S. A. Mewes,  P. Morgante,  J. W. Mullinax,  K. J. Oosterbaan,  G. Paran,  
 Alexander C. Paul,  Suranjan K. Paul,  F. Pavosevic,  Zheng Pei,  S. Prager,  
 E. I. Proynov,  E. Ramos,  B. Rana,  A. E. Rask,  A. Rettig,  R. M. Richard,  
 F. Rob,  E. Rossomme,  T. Scheele,  M. Scheurer,  M. Schneider,  
 N. Sergueev,  S. M. Sharada,  W. Skomorowski,  D. W. Small,  C. J. Stein,  
 Yu-Chuan Su,  E. J. Sundstrom,  Zhen Tao,  J. Thirman,  T. Tsuchimochi,  
 N. M. Tubman,  S. P. Veccham,  O. Vydrov,  J. Wenzel,  J. Witte,  A. Yamada,  
 Kun Yao,  S. Yeganeh,  S. R. Yost,  A. Zech,  Igor Ying Zhang,  Xing Zhang,  
 Yu Zhang,  D. Zuev,  A. Aspuru-Guzik,  A. T. Bell,  N. A. Besley,  
 K. B. Bravaya,  B. R. Brooks,  D. Casanova,  Jeng-Da Chai,  S. Coriani,  
 C. J. Cramer,  A. E. DePrince, III,  R. A. DiStasio Jr.,  A. Dreuw,  
 B. D. Dunietz,  T. R. Furlani,  W. A. Goddard III,  S. Grimme,  
 S. Hammes-Schiffer,  T. Head-Gordon,  W. J. Hehre,  Chao-Ping Hsu,  
 T.-C. Jagau,  Yousung Jung,  A. Klamt,  Jing Kong,  D. S. Lambrecht,  
 WanZhen Liang,  N. J. Mayhall,  C. W. McCurdy,  J. B. Neaton,  
 C. Ochsenfeld,  J. A. Parkhill,  R. Peverati,  V. A. Rassolov,  Yihan Shao,  
 L. V. Slipchenko,  T. Stauch,  R. P. Steele,  J. E. Subotnik,  
 A. J. W. Thom,  A. Tkatchenko,  D. G. Truhlar,  T. Van Voorhis,  
 T. A. Wesolowski,  K. B. Whaley,  H. L. Woodcock III,  P. M. Zimmerman,  
 S. Faraji,  P. M. W. Gill,  M. Head-Gordon,  J. M. Herbert,  A. I. Krylov

 Additional authors for Version 5.4.1: 
 S. Kotaru,  Shaozhi Li,  Xiangyuan Li,  F. Matz,  A. Molle,  Haisheng Ren,  
 Yingli Su,  Hung-Yi Tsai,  C. Utku,  Fang Wang

 Contributors to earlier versions of Q-Chem not listed above: 
 R. D. Adamson,  B. Austin,  R. Baer,  J. Baker,  G. J. O. Beran,  
 K. Brandhorst,  S. T. Brown,  E. F. C. Byrd,  A. K. Chakraborty,  
 G. K. L. Chan,  Chun-Min Chang,  Yunqing Chen,  C.-L. Cheng,  
 Siu Hung Chien,  D. M. Chipman,  D. L. Crittenden,  H. Dachsel,  
 R. J. Doerksen,  A. D. Dutoi,  R. G. Edgar,  J. Fosso-Tande,  
 L. Fusti-Molnar,  D. Ghosh,  A. Ghysels,  A. Golubeva-Zadorozhnaya,  
 J. Gonthier,  M. S. Gordon,  S. R. Gwaltney,  G. Hawkins,  J. E. Herr,  
 A. Heyden,  S. Hirata,  E. G. Hohenstein,  G. Kedziora,  F. J. Keil,  
 C. Kelley,  Jihan Kim,  R. A. King,  R. Z. Khaliullin,  P. P. Korambath,  
 W. Kurlancheek,  A. Laurent,  A. M. Lee,  M. S. Lee,  S. V. Levchenko,  
 Ching Yeh Lin,  D. Liotard,  E. Livshits,  R. C. Lochan,  I. Lotan,  
 L. A. Martinez-Martinez,  P. E. Maslen,  N. Nair,  D. P. O'Neill,  
 D. Neuhauser,  E. Neuscamman,  C. M. Oana,  R. Olivares-Amaya,  R. Olson,  
 T. M. Perrine,  B. Peters,  P. A. Pieniazek,  A. Prociuk,  Y. M. Rhee,  
 J. Ritchie,  M. A. Rohrdanz,  E. Rosta,  N. J. Russ,  H. F. Schaefer III,  
 M. W. Schmidt,  N. E. Schultz,  S. Sharma,  N. Shenvi,  C. D. Sherrill,  
 A. C. Simmonett,  A. Sodt,  T. Stein,  D. Stuck,  K. S. Thanthiriwatte,  
 V. Vanovschi,  L. Vogt,  Tao Wang,  A. Warshel,  M. A. Watson,  
 C. F. Williams,  Q. Wu,  X. Xu,  Jun Yang,  W. Zhang,  Yan Zhao

 Please cite Q-Chem as follows:
 Y. Shao et al., Mol. Phys. 113, 184-215 (2015)
 DOI: 10.1080/00268976.2014.952696

 Q-Chem 5.4.1 for Intel X86 EM64T Linux

 Parts of Q-Chem use Armadillo 9.800.1 (Horizon Scraper).
 http://arma.sourceforge.net/

 Q-Chem begins on Wed Mar 15 18:00:33 2023  

 Host: cpu121.yggdrasil
0

     Scratch files written to /srv/beegfs/scratch/users/f/fum/qchem96919//
 Processing $rem in /home/share/wesolowski/qc5.aug2021.FDE/config/preferences:
 Processing $rem in /home/fum/.qchemrc:

 Checking the input file for inconsistencies... 	...done.

--------------------------------------------------------------
User input:
--------------------------------------------------------------
$comment
generated from CCJob.Templates
$end

$rem
sym_ignore = true
method = adc(2)
ee_states = 10
basis = cc-pVDZ
mem_static = 1024
mem_total = 40000
adc_davidson_maxiter = 900
adc_davidson_conv = 6
adc_print = 3
adc_prop_es = true
adc_prop_es2es = true
adc_prop_tpa = true
molden_format = True
state_analysis = true
print_orbitals = 15
gen_scfman = false
fde_export_density = true
fde_details = 3
$end

$molecule
0 1
H -0.0348278765 -0.2442097827 0.0636489606
C -1.0765972949 -0.5242748755 -0.0023551776
H -1.313264467 -1.5767591607 -0.0757276926
C -2.043634118 0.3926884087 0.0061254933
H -1.8137616575 1.4459188338 0.0804456828
H -3.085977293 0.154931858 -0.0593381042                     
$end
--------------------------------------------------------------
 ----------------------------------------------------------------
             Standard Nuclear Orientation (Angstroms)
    I     Atom           X                Y                Z
 ----------------------------------------------------------------
    1      H      -0.0348278765    -0.2442097827     0.0636489606
    2      C      -1.0765972949    -0.5242748755    -0.0023551776
    3      H      -1.3132644670    -1.5767591607    -0.0757276926
    4      C      -2.0436341180     0.3926884087     0.0061254933
    5      H      -1.8137616575     1.4459188338     0.0804456828
    6      H      -3.0859772930     0.1549318580    -0.0593381042
 ----------------------------------------------------------------
 Nuclear Repulsion Energy =          33.44290964 hartrees
 There are        8 alpha and        8 beta electrons
 Requested basis set is cc-pVDZ
 There are 24 shells and 48 basis functions
 Total memory of 40000 MB is distributed as follows: 
   MEM_STATIC is set to 1024 MB
   QALLOC/CCMAN JOB total memory use is  38976 MB
 Warning: actual memory use might exceed 40000 MB

 Total QAlloc Memory Limit  40000 MB
 Mega-Array Size      1001 MB
 MEM_STATIC part      1024 MB

                       Distance Matrix (Angstroms)
             H (  1)   C (  2)   H (  3)   C (  4)   H (  5)
   C (  2)  1.080776
   H (  3)  1.851895  1.081258
   C (  4)  2.108139  1.332687  2.102109
   H (  5)  2.453859  2.105215  3.067812  1.080583
   H (  6)  3.079603  2.121833  2.478212  1.071118  1.817889

 A cutoff of  1.0D-11 yielded    300 shell pairs
 There are      1220 function pairs (      1329 Cartesian)
 Smallest overlap matrix eigenvalue = 4.80E-03

 Scale SEOQF with 1.000000e-01/1.000000e-01/1.000000e+00

 Standard Electronic Orientation quadrupole field applied
 Nucleus-field energy     =     0.0000000022 hartrees
 Guess from superposition of atomic densities
 Warning:  Energy on first SCF cycle will be non-variational
 SAD guess density has 16.000000 electrons
 A restricted Hartree-Fock SCF calculation will be
 performed using Pulay DIIS extrapolation
 SCF converges when DIIS error is below 1.0E-08
 using 10 threads for integral computing
 -------------------------------------------------------
 OpenMP Integral computing Module                
 Release: version 1.0, May 2013, Q-Chem Inc. Pittsburgh 
 -------------------------------------------------------
 ---------------------------------------
  Cycle       Energy         DIIS Error
 ---------------------------------------
    1     -78.4444610852      1.01E-01
    2     -78.0174320674      7.21E-03
    3     -78.0380802508      1.85E-03
    4     -78.0395637352      5.74E-04
    5     -78.0396857036      6.08E-05
    6     -78.0396876383      1.46E-05
    7     -78.0396877339      5.66E-06
    8     -78.0396877460      9.58E-07
    9     -78.0396877467      1.72E-07
   10     -78.0396877467      5.64E-08
   11     -78.0396877467      7.66E-09 Convergence criterion met
 ---------------------------------------
 SCF time:  CPU 1.88 s  wall 4.44 s
 SCF   energy in the final basis set = -78.03968775
 Total energy in the final basis set = -78.03968775
Exporting Density Matrix to file 'Densmat_SCF.txt'.
Export successful
================================================================================
|                                                                              |
|                                 A D C  M A N                                 |
|                                                                              |
 ------------------------------------------------------------------------------ 
|                                                                              |
| Components:                                                                  |
|                                                                              |
| - libvmm - 1.3-trunk                                                         |
|   Authors:                                                                   |
|   Evgeny Epifanovsky, Ilya Kaliman                                           |
|                                                                              |
| - libtensor - 2.5-trunk                                                      |
|   Authors:                                                                   |
|   Evgeny Epifanovsky, Michael Wormit, Dmitry Zuev, Sam Manzer,               |
|   Ilya Kaliman                                                               |
|                                                                              |
| - libwfa - 1.1-trunk                                                         |
|   Authors:                                                                   |
|   Felix Plasser, Stefanie Mewes (Baeppler), Benjamin Thomitzni,              |
|   Michael Wormit, Feng Chen, Anna I. Krylov, Pavel Pokhilko                  |
|                                                                              |
| - libadc - 1.1-trunk                                                         |
|   Authors:                                                                   |
|   Michael Wormit, Adrian L. Dempwolff, Philipp H. P. Harbach,                |
|   Caroline Krauter, Dirk Rehn, Matthias Schneider, Jan Wenzel                |
|                                                                              |
| - adcman - 2.6-trunk                                                         |
|   Authors:                                                                   |
|   Michael Wormit, Adrian L. Dempwolff, Philipp H. P. Harbach,                |
|   Caroline Krauter, Daniel Lefrancois, Jan-Michael Mewes, Dirk Rehn,         |
|   Matthias Schneider, Jan Wenzel, Andreas Dreuw                              |
|                                                                              |
| Authors of earlier versions of ADCMAN:                                       |
| Andreas Dreuw, Jan Hendrik Starcke, Dirk Rehn, Michael Wormit                |
|                                                                              |
================================================================================

 Created directory /srv/beegfs/scratch/users/f/fum/qchem96919/plots
  Import QC data ...  CPU 0.00 s  wall 0.00 s

 Alpha MOs, Restricted
 -- Occupied --                  
-11.235 -11.233  -1.032  -0.792  -0.640  -0.585  -0.504  -0.374
  1 A     2 A     3 A     4 A     5 A     6 A     7 A     8 A                  
 -- Virtual --                   
  0.168   0.204   0.234   0.239   0.304   0.464   0.580   0.611
  9 A    10 A    11 A    12 A    13 A    14 A    15 A    16 A                  
  0.689   0.712   0.785   0.808   0.862   0.937   0.974   1.011
 17 A    18 A    19 A    20 A    21 A    22 A    23 A    24 A                  
  1.132   1.234   1.244   1.263   1.295   1.603   1.734   1.769
 25 A    26 A    27 A    28 A    29 A    30 A    31 A    32 A                  
  1.818   1.849   1.869   1.917   1.973   1.985   2.231   2.257
 33 A    34 A    35 A    36 A    37 A    38 A    39 A    40 A                  
  2.373   2.453   2.517   2.653   2.722   2.832   3.133   3.414
 41 A    42 A    43 A    44 A    45 A    46 A    47 A    48 A                  

 Beta MOs, Restricted
 -- Occupied --                  
-11.235 -11.233  -1.032  -0.792  -0.640  -0.585  -0.504  -0.374
  1 A     2 A     3 A     4 A     5 A     6 A     7 A     8 A                  
 -- Virtual --                   
  0.168   0.204   0.234   0.239   0.304   0.464   0.580   0.611
  9 A    10 A    11 A    12 A    13 A    14 A    15 A    16 A                  
  0.689   0.712   0.785   0.808   0.862   0.937   0.974   1.011
 17 A    18 A    19 A    20 A    21 A    22 A    23 A    24 A                  
  1.132   1.234   1.244   1.263   1.295   1.603   1.734   1.769
 25 A    26 A    27 A    28 A    29 A    30 A    31 A    32 A                  
  1.818   1.849   1.869   1.917   1.973   1.985   2.231   2.257
 33 A    34 A    35 A    36 A    37 A    38 A    39 A    40 A                  
  2.373   2.453   2.517   2.653   2.722   2.832   3.133   3.414
 41 A    42 A    43 A    44 A    45 A    46 A    47 A    48 A                  
  Import AO data ...  CPU 0.00 s  wall 0.04 s
  Using point group: C1
  Irreducible representations in point group: A
  Molecular orbitals: 
  Occupied MOs:
  Block   0:   1 (  A) A   2 (  A) A   3 (  A) A   4 (  A) A   5 (  A) A
                  -11.24      -11.23      -1.032     -0.7923     -0.6399
               6 (  A) A   7 (  A) A   8 (  A) A
                 -0.5849     -0.5039      -0.374
  Block   1:   1 (  A) B   2 (  A) B   3 (  A) B   4 (  A) B   5 (  A) B
                  -11.24      -11.23      -1.032     -0.7923     -0.6399
               6 (  A) B   7 (  A) B   8 (  A) B
                 -0.5849     -0.5039      -0.374
  Virtual MOs:
  Block   0:   9 (  A) A  10 (  A) A  11 (  A) A  12 (  A) A  13 (  A) A
                  0.1682      0.2042      0.2337      0.2388      0.3035
              14 (  A) A  15 (  A) A  16 (  A) A  17 (  A) A  18 (  A) A
                   0.464      0.5795      0.6112      0.6891      0.7119
              19 (  A) A  20 (  A) A  21 (  A) A  22 (  A) A
                  0.7853      0.8079      0.8624      0.9365
  Block   1:  23 (  A) A  24 (  A) A  25 (  A) A  26 (  A) A  27 (  A) A
                  0.9739       1.011       1.132       1.234       1.244
              28 (  A) A  29 (  A) A  30 (  A) A  31 (  A) A  32 (  A) A
                   1.263       1.295       1.603       1.734       1.769
              33 (  A) A  34 (  A) A  35 (  A) A  36 (  A) A
                   1.818       1.849       1.869       1.917
  Block   2:  37 (  A) A  38 (  A) A  39 (  A) A  40 (  A) A  41 (  A) A
                   1.973       1.985       2.231       2.257       2.373
              42 (  A) A  43 (  A) A  44 (  A) A  45 (  A) A  46 (  A) A
                   2.453       2.517       2.653       2.722       2.832
              47 (  A) A  48 (  A) A
                   3.133       3.414
  Block   3:   9 (  A) B  10 (  A) B  11 (  A) B  12 (  A) B  13 (  A) B
                  0.1682      0.2042      0.2337      0.2388      0.3035
              14 (  A) B  15 (  A) B  16 (  A) B  17 (  A) B  18 (  A) B
                   0.464      0.5795      0.6112      0.6891      0.7119
              19 (  A) B  20 (  A) B  21 (  A) B  22 (  A) B
                  0.7853      0.8079      0.8624      0.9365
  Block   4:  23 (  A) B  24 (  A) B  25 (  A) B  26 (  A) B  27 (  A) B
                  0.9739       1.011       1.132       1.234       1.244
              28 (  A) B  29 (  A) B  30 (  A) B  31 (  A) B  32 (  A) B
                   1.263       1.295       1.603       1.734       1.769
              33 (  A) B  34 (  A) B  35 (  A) B  36 (  A) B
                   1.818       1.849       1.869       1.917
  Block   5:  37 (  A) B  38 (  A) B  39 (  A) B  40 (  A) B  41 (  A) B
                   1.973       1.985       2.231       2.257       2.373
              42 (  A) B  43 (  A) B  44 (  A) B  45 (  A) B  46 (  A) B
                   2.453       2.517       2.653       2.722       2.832
              47 (  A) B  48 (  A) B
                   3.133       3.414
  Import MO data ...  CPU 0.01 s  wall 0.00 s
  Import HF data ...  CPU 0.07 s  wall 0.03 s
  Import 2e integrals ...  CPU 0.84 s  wall 0.15 s

--------------------------------------------------------------------------------
                                   HF Summary                                   
--------------------------------------------------------------------------------
  Energy:                                                  -78.0396877467 a.u.
  Dip. moment [a.u.]:                  [  -0.004770,    0.003676,   -0.000213]
  Total dipole [Debye]:                                               0.015315
  <r^2> [a.u.]:                        [ 175.255167,   34.976710,   11.615684]
  Total <r^2> [a.u.]:                                               221.847561
--------------------------------------------------------------------------------
  HF properties ...  CPU 0.01 s  wall 0.00 s
  MP(1) calculation ...  CPU 0.01 s  wall 0.01 s
  N^6 prerequesite intermediates ...  CPU 0.42 s  wall 0.07 s
  Difference density matrix of state mp2_gs printed to ASCII file 'State_mp2_gs_Difference.txt'
Exporting MP density matrix to file 'Densmat_MP.txt'.
Export successful
  Total density matrix of state mp2_gs printed to ASCII file 'State_mp2_gs_Total.txt'
Exporting MP density matrix to file 'Densmat_MP.txt'.
Export successful

--------------------------------------------------------------------------------
                                 MP(2) Summary                                  
--------------------------------------------------------------------------------
  MP energy contribution:                                   -0.2795585024 a.u.
  Total energy:                                            -78.3192462491 a.u.
  Dip. moment [a.u.]:                  [  -0.004022,    0.003819,   -0.000166]
  Total dipole [Debye]:                                               0.014105
  <r^2> [a.u.]:                        [ 175.308613,   35.015705,   11.448235]
  Total <r^2> [a.u.]:                                               221.772553

  Density matrix analysis:
  ------------------------
  NOs
    Occupation of frontier NOs:
       0.0453   1.9383
    Number of electrons: 16.000000
    Number of unpaired electrons: n_u =  0.40285, n_u,nl =  0.04498
    NO participation ratio (PR_NO): 13.848576
  
  
  Mulliken Population Analysis
  Atom      Charge (e)              h+              e-           Del q
  --------------------------------------------------------------------
   1 H        0.051714        0.013975       -0.011203        0.002772
   2 C       -0.099730        0.093587       -0.098744       -0.005156
   3 H        0.050982        0.014056       -0.011192        0.002864
   4 C       -0.099406        0.091958       -0.098823       -0.006865
   5 H        0.048379        0.014357       -0.011117        0.003240
   6 H        0.048061        0.014300       -0.011155        0.003145
  --------------------------------------------------------------------
  Sum:       -0.000000        0.242233       -0.242233       -0.000000
  
  Multipole moment analysis of the density matrix
    Molecular charge:                      -0.000000
    Number of electrons:                   16.000000
      Center of electronic charge [Ang]: [ -1.560443,  -0.063229,   0.001984]
    Total nuclear charge:                  16.000000
      Center of nuclear charge [Ang]:    [ -1.560576,  -0.063102,   0.001978]
    Dipole moment [D]:                     0.014105
      Cartesian components [D]:          [ -0.010224,   0.009708,  -0.000421]
    RMS size of the density [Ang]:         1.201012
      Cartesian components [Ang]:        [  0.795758,   0.780282,   0.447617]
  
  Exciton analysis of the difference density matrix
    <r_h> [Ang]:                  [ -1.558095,  -0.064004,   0.002084]
    <r_e> [Ang]:                  [ -1.559728,  -0.064318,   0.001981]
    |<r_e - r_h>| [Ang]:            0.001666
    Hole size [Ang]:                1.393493
      Cartesian components [Ang]: [  0.845092,   0.835595,   0.727615]
    Electron size [Ang]:            1.360140
      Cartesian components [Ang]: [  0.877995,   0.862124,   0.579524]
--------------------------------------------------------------------------------
  MP(2) calculation ...  CPU 0.11 s  wall 0.16 s
  Start ADC(2)-s ...  CPU 0.01 s  wall 0.00 s
  ADC(2) intermediates ...  CPU 0.02 s  wall 0.01 s
  Starting Davidson for singlet states of irrep A ... 
--------------------------------------------------------------------------------
   It NVec Conv  Avg. Norm  Max. Norm  Conv. states           Remark
--------------------------------------------------------------------------------
        10    0  1.330e-01  4.701e-01  0.4130 n n n n n n n n Guess.
    1   20    0  2.331e-02  1.120e-01  0.3261 n n n n n n n n 
    2   30    0  6.019e-03  2.927e-02  0.3214 n n n n n n n n 
    3   40    0  2.188e-03  1.629e-02  0.3210 n n n n n n n n 
    4   50    0  6.760e-04  5.286e-03  0.3210 n n n n n n n n 
    5   20    0  3.116e-04  2.464e-03  0.3210 n n n n n n n n Subspace collapsed.
    6   30    0  3.000e-04  2.850e-03  0.3210 n n n n n n n n 
    7   40    0  1.924e-04  1.859e-03  0.3210 n n n n n n n n 
    8   50    0  2.448e-04  2.413e-03  0.3210 n n n n n n n n 
    9   20    2  2.102e-04  2.072e-03  0.3210 n y n y n n n n Subspace collapsed.
   10   30    4  1.852e-04  1.838e-03  0.3210 n y y y y n n n 
   11   40    5  1.670e-04  1.667e-03  0.3210 n y y y y y n n 
   12   50    6  2.647e-04  2.647e-03  0.3210 y y y y y y n n 
   13   20    6  1.168e-04  1.168e-03  0.3210 y y y y y y n n Subspace collapsed.
   14   30    6  1.282e-04  1.282e-03  0.3210 y y y y y y n n 
   15   40    6  7.687e-05  7.687e-04  0.3210 y y y y y y n n 
   16   50    6  1.467e-04  1.467e-03  0.3210 y y y y y y n n 
   17   20    7  6.340e-05  6.340e-04  0.3210 y y y y y y n y Subspace collapsed.
   18   30    7  7.494e-05  7.494e-04  0.3210 y y y y y y n y 
   19   40    7  6.384e-05  6.384e-04  0.3210 y y y y y y n y 
   20   50    8  9.651e-05  9.651e-04  0.3210 y y y y y y y y 
   21   20    9  4.199e-05  4.199e-04  0.3210 y y y y y y y y Subspace collapsed.
   22   30    9  3.702e-05  3.702e-04  0.3210 y y y y y y y y 
   23   39    9  3.394e-05  3.394e-04  0.3210 y y y y y y y y 
   24   40    9  3.228e-05  3.228e-04  0.3210 y y y y y y y y 
   25   47    9  4.670e-05  4.670e-04  0.3210 y y y y y y y y 
   26   50    9  4.571e-05  4.571e-04  0.3210 y y y y y y y y 
   27   16    9  2.489e-05  2.489e-04  0.3210 y y y y y y y y Subspace collapsed.
   28   20    9  2.249e-05  2.249e-04  0.3210 y y y y y y y y 
   29   24    9  1.329e-05  1.329e-04  0.3210 y y y y y y y y 
   30   28    9  1.267e-05  1.267e-04  0.3210 y y y y y y y y 
   31   32    9  1.560e-05  1.560e-04  0.3210 y y y y y y y y 
   32   36    9  1.400e-05  1.400e-04  0.3210 y y y y y y y y 
   33   40    9  9.651e-06  9.651e-05  0.3210 y y y y y y y y 
   34   44    9  8.469e-06  8.469e-05  0.3210 y y y y y y y y 
   35   48    9  4.104e-06  4.104e-05  0.3210 y y y y y y y y 
   36   50    9  2.093e-06  2.093e-05  0.3210 y y y y y y y y 
   37   14    9  1.026e-06  1.026e-05  0.3210 y y y y y y y y Subspace collapsed.
   38   18    9  6.378e-07  6.378e-06  0.3210 y y y y y y y y 
   39   22    9  3.743e-07  3.743e-06  0.3210 y y y y y y y y 
   40   26    9  2.816e-07  2.816e-06  0.3210 y y y y y y y y 
   41   30    9  1.601e-07  1.601e-06  0.3210 y y y y y y y y 
   42   34    9  1.027e-07  1.027e-06  0.3210 y y y y y y y y 
   43   38   10  6.697e-08  6.697e-07  0.3210 y y y y y y y y Converged.
--------------------------------------------------------------------------------
  Davidson Summary: 
 ------------------------------------------------------------
  State  0: excitation energy =   0.3210 a.u.   (converged)
  State  1: excitation energy =   0.3317 a.u.   (converged)
  State  2: excitation energy =   0.3382 a.u.   (converged)
  State  3: excitation energy =   0.3619 a.u.   (converged)
  State  4: excitation energy =   0.3762 a.u.   (converged)
  State  5: excitation energy =   0.3883 a.u.   (converged)
  State  6: excitation energy =   0.4250 a.u.   (converged)
  State  7: excitation energy =   0.4463 a.u.   (converged)
  State  8: excitation energy =   0.4558 a.u.   (converged)
  State  9: excitation energy =   0.4647 a.u.   (converged)
 ------------------------------------------------------------

  Singlet states of irrep A ...  CPU 116.07 s  wall 29.31 s
  TDMs ...  CPU 0.56 s  wall 0.22 s
  SDMs ...  CPU 1.18 s  wall 0.42 s
  Starting TPA DIIS iterations ... 
------------------------------------ 
   It     Res. Norm  Remark
------------------------------------
                       Guess.
    1     4.420e+00  
    2     5.859e+00  
    3     1.073e+00  
    4     2.542e-01  
    5     6.560e-02  
    6     2.660e-02  
    7     8.227e-03  
    8     1.424e-03  
    9     5.341e-04  
   10     8.953e-05  
   11     2.818e-05  
   12     4.630e-06  
   13     1.511e-06  
   14     5.983e-07  Converged.
   ... Converged in 14 steps (norm: 5.98253e-07)
------------------------------------
  Starting TPA DIIS iterations ... 
------------------------------------ 
   It     Res. Norm  Remark
------------------------------------
                       Guess.
    1     4.185e+00  
    2     5.549e+00  
    3     1.035e+00  
    4     2.564e-01  
    5     6.510e-02  
    6     2.691e-02  
    7     8.186e-03  
    8     1.471e-03  
    9     5.415e-04  
   10     9.132e-05  
   11     2.896e-05  
   12     4.624e-06  
   13     1.586e-06  
   14     5.935e-07  Converged.
   ... Converged in 14 steps (norm: 5.93456e-07)
------------------------------------
  Starting TPA DIIS iterations ... 
------------------------------------ 
   It     Res. Norm  Remark
------------------------------------
                       Guess.
    1     6.832e-01  
    2     4.821e-01  
    3     1.712e-01  
    4     6.266e-02  
    5     1.803e-02  
    6     6.535e-03  
    7     1.035e-03  
    8     4.308e-04  
    9     1.300e-04  
   10     2.042e-05  
   11     8.898e-06  
   12     3.038e-06  
   13     2.087e-06  
   14     8.296e-07  Converged.
   ... Converged in 14 steps (norm: 8.29556e-07)
------------------------------------
  Starting TPA DIIS iterations ... 
------------------------------------ 
   It     Res. Norm  Remark
------------------------------------
                       Guess.
    1     4.686e+00  
    2     6.335e+00  
    3     1.148e+00  
    4     2.802e-01  
    5     7.323e-02  
    6     2.992e-02  
    7     9.238e-03  
    8     1.597e-03  
    9     6.034e-04  
   10     1.017e-04  
   11     3.231e-05  
   12     5.384e-06  
   13     1.770e-06  
   14     7.225e-07  Converged.
   ... Converged in 14 steps (norm: 7.22499e-07)
------------------------------------
  Starting TPA DIIS iterations ... 
------------------------------------ 
   It     Res. Norm  Remark
------------------------------------
                       Guess.
    1     4.436e+00  
    2     5.999e+00  
    3     1.107e+00  
    4     2.824e-01  
    5     7.270e-02  
    6     3.031e-02  
    7     9.199e-03  
    8     1.650e-03  
    9     6.114e-04  
   10     1.037e-04  
   11     3.318e-05  
   12     5.364e-06  
   13     1.859e-06  
   14     7.150e-07  Converged.
   ... Converged in 14 steps (norm: 7.15006e-07)
------------------------------------
  Starting TPA DIIS iterations ... 
------------------------------------ 
   It     Res. Norm  Remark
------------------------------------
                       Guess.
    1     6.943e-01  
    2     4.982e-01  
    3     1.803e-01  
    4     7.028e-02  
    5     1.930e-02  
    6     7.096e-03  
    7     1.157e-03  
    8     4.955e-04  
    9     1.504e-04  
   10     2.229e-05  
   11     1.027e-05  
   12     3.556e-06  
   13     2.560e-06  
   14     1.033e-06  
   15     3.559e-07  Converged.
   ... Converged in 15 steps (norm: 3.55917e-07)
------------------------------------
  Starting TPA DIIS iterations ... 
------------------------------------ 
   It     Res. Norm  Remark
------------------------------------
                       Guess.
    1     4.859e+00  
    2     6.649e+00  
    3     1.196e+00  
    4     2.977e-01  
    5     7.837e-02  
    6     3.217e-02  
    7     9.919e-03  
    8     1.713e-03  
    9     6.502e-04  
   10     1.099e-04  
   11     3.515e-05  
   12     5.907e-06  
   13     1.951e-06  
   14     8.124e-07  Converged.
   ... Converged in 14 steps (norm: 8.12432e-07)
------------------------------------
  Starting TPA DIIS iterations ... 
------------------------------------ 
   It     Res. Norm  Remark
------------------------------------
                       Guess.
    1     4.599e+00  
    2     6.297e+00  
    3     1.153e+00  
    4     2.999e-01  
    5     7.781e-02  
    6     3.261e-02  
    7     9.881e-03  
    8     1.771e-03  
    9     6.587e-04  
   10     1.121e-04  
   11     3.607e-05  
   12     5.877e-06  
   13     2.051e-06  
   14     8.027e-07  Converged.
   ... Converged in 14 steps (norm: 8.02711e-07)
------------------------------------
  Starting TPA DIIS iterations ... 
------------------------------------ 
   It     Res. Norm  Remark
------------------------------------
                       Guess.
    1     7.011e-01  
    2     5.083e-01  
    3     1.862e-01  
    4     7.549e-02  
    5     2.012e-02  
    6     7.472e-03  
    7     1.241e-03  
    8     5.398e-04  
    9     1.644e-04  
   10     2.349e-05  
   11     1.122e-05  
   12     3.923e-06  
   13     2.902e-06  
   14     1.183e-06  
   15     4.029e-07  Converged.
   ... Converged in 15 steps (norm: 4.02858e-07)
------------------------------------
  Starting TPA DIIS iterations ... 
------------------------------------ 
   It     Res. Norm  Remark
------------------------------------
                       Guess.
    1     5.589e+00  
    2     8.012e+00  
    3     1.399e+00  
    4     3.758e-01  
    5     1.013e-01  
    6     4.233e-02  
    7     1.297e-02  
    8     2.232e-03  
    9     8.622e-04  
   10     1.473e-04  
   11     4.828e-05  
   12     8.388e-06  
   13     2.827e-06  
   14     1.279e-06  
   15     3.822e-07  Converged.
   ... Converged in 15 steps (norm: 3.82225e-07)
------------------------------------
  Starting TPA DIIS iterations ... 
------------------------------------ 
   It     Res. Norm  Remark
------------------------------------
                       Guess.
    1     5.288e+00  
    2     7.587e+00  
    3     1.348e+00  
    4     3.782e-01  
    5     1.007e-01  
    6     4.302e-02  
    7     1.294e-02  
    8     2.311e-03  
    9     8.722e-04  
   10     1.502e-04  
   11     4.940e-05  
   12     8.292e-06  
   13     2.977e-06  
   14     1.255e-06  
   15     4.242e-07  Converged.
   ... Converged in 15 steps (norm: 4.24217e-07)
------------------------------------
  Starting TPA DIIS iterations ... 
------------------------------------ 
   It     Res. Norm  Remark
------------------------------------
                       Guess.
    1     7.271e-01  
    2     5.490e-01  
    3     2.103e-01  
    4     9.951e-02  
    5     2.357e-02  
    6     9.160e-03  
    7     1.630e-03  
    8     7.383e-04  
    9     2.269e-04  
   10     2.898e-05  
   11     1.579e-05  
   12     5.743e-06  
   13     4.668e-06  
   14     1.969e-06  
   15     6.171e-07  Converged.
   ... Converged in 15 steps (norm: 6.17112e-07)
------------------------------------
  Starting TPA DIIS iterations ... 
------------------------------------ 
   It     Res. Norm  Remark
------------------------------------
                       Guess.
    1     6.120e+00  
    2     9.039e+00  
    3     1.546e+00  
    4     4.370e-01  
    5     1.193e-01  
    6     5.037e-02  
    7     1.536e-02  
    8     2.637e-03  
    9     1.030e-03  
   10     1.770e-04  
   11     5.895e-05  
   12     1.047e-05  
   13     3.579e-06  
   14     1.720e-06  
   15     5.119e-07  Converged.
   ... Converged in 15 steps (norm: 5.11901e-07)
------------------------------------
  Starting TPA DIIS iterations ... 
------------------------------------ 
   It     Res. Norm  Remark
------------------------------------
                       Guess.
    1     5.790e+00  
    2     8.560e+00  
    3     1.489e+00  
    4     4.394e-01  
    5     1.186e-01  
    6     5.129e-02  
    7     1.533e-02  
    8     2.732e-03  
    9     1.041e-03  
   10     1.805e-04  
   11     6.017e-05  
   12     1.030e-05  
   13     3.770e-06  
   14     1.677e-06  
   15     5.592e-07  Converged.
   ... Converged in 15 steps (norm: 5.59225e-07)
------------------------------------
  Starting TPA DIIS iterations ... 
------------------------------------ 
   It     Res. Norm  Remark
------------------------------------
                       Guess.
    1     7.438e-01  
    2     5.767e-01  
    3     2.273e-01  
    4     1.189e-01  
    5     2.614e-02  
    6     1.048e-02  
    7     1.949e-03  
    8     8.851e-04  
    9     2.742e-04  
   10     3.406e-05  
   11     1.969e-05  
   12     7.371e-06  
   13     6.317e-06  
   14     2.699e-06  
   15     8.020e-07  Converged.
   ... Converged in 15 steps (norm: 8.01985e-07)
------------------------------------
  Starting TPA DIIS iterations ... 
------------------------------------ 
   It     Res. Norm  Remark
------------------------------------
                       Guess.
    1     6.638e+00  
    2     1.007e+01  
    3     1.688e+00  
    4     4.996e-01  
    5     1.377e-01  
    6     5.868e-02  
    7     1.780e-02  
    8     3.051e-03  
    9     1.204e-03  
   10     2.078e-04  
   11     7.013e-05  
   12     1.272e-05  
   13     4.402e-06  
   14     2.243e-06  
   15     6.667e-07  Converged.
   ... Converged in 15 steps (norm: 6.66718e-07)
------------------------------------
  Starting TPA DIIS iterations ... 
------------------------------------ 
   It     Res. Norm  Remark
------------------------------------
                       Guess.
    1     6.279e+00  
    2     9.531e+00  
    3     1.625e+00  
    4     5.020e-01  
    5     1.370e-01  
    6     5.984e-02  
    7     1.779e-02  
    8     3.162e-03  
    9     1.215e-03  
   10     2.117e-04  
   11     7.139e-05  
   12     1.246e-05  
   13     4.636e-06  
   14     2.172e-06  
   15     7.099e-07  Converged.
   ... Converged in 15 steps (norm: 7.09899e-07)
------------------------------------
  Starting TPA DIIS iterations ... 
------------------------------------ 
   It     Res. Norm  Remark
------------------------------------
                       Guess.
    1     7.586e-01  
    2     6.023e-01  
    3     2.434e-01  
    4     1.391e-01  
    5     2.872e-02  
    6     1.184e-02  
    7     2.285e-03  
    8     1.022e-03  
    9     3.205e-04  
   10     4.017e-05  
   11     2.395e-05  
   12     9.220e-06  
   13     8.244e-06  
   14     3.537e-06  
   15     1.028e-06  
   16     5.461e-07  Converged.
   ... Converged in 16 steps (norm: 5.46125e-07)
------------------------------------
  Starting TPA DIIS iterations ... 
------------------------------------ 
   It     Res. Norm  Remark
------------------------------------
                       Guess.
    1     8.732e+00  
    2     1.446e+01  
    3     2.253e+00  
    4     7.795e-01  
    5     2.202e-01  
    6     9.664e-02  
    7     2.875e-02  
    8     4.896e-03  
    9     1.995e-03  
   10     3.480e-04  
   11     1.215e-04  
   12     2.414e-05  
   13     8.592e-06  
   14     5.521e-06  
   15     1.716e-06  
   16     1.395e-06  
   17     3.359e-07  Converged.
   ... Converged in 17 steps (norm: 3.3589e-07)
------------------------------------
  Starting TPA DIIS iterations ... 
------------------------------------ 
   It     Res. Norm  Remark
------------------------------------
                       Guess.
    1     8.258e+00  
    2     1.369e+01  
    3     2.167e+00  
    4     7.814e-01  
    5     2.193e-01  
    6     9.898e-02  
    7     2.879e-02  
    8     5.074e-03  
    9     2.005e-03  
   10     3.538e-04  
   11     1.223e-04  
   12     2.320e-05  
   13     8.987e-06  
   14     5.190e-06  
   15     1.522e-06  
   16     1.145e-06  
   17     2.470e-07  Converged.
   ... Converged in 17 steps (norm: 2.4697e-07)
------------------------------------
  Starting TPA DIIS iterations ... 
------------------------------------ 
   It     Res. Norm  Remark
------------------------------------
                       Guess.
    1     8.077e-01  
    2     6.954e-01  
    3     3.048e-01  
    4     2.295e-01  
    5     3.994e-02  
    6     1.778e-02  
    7     3.874e-03  
    8     1.447e-03  
    9     5.026e-04  
   10     7.367e-05  
   11     4.585e-05  
   12     1.957e-05  
   13     1.954e-05  
   14     8.165e-06  
   15     2.722e-06  
   16     1.391e-06  
   17     3.485e-07  Converged.
   ... Converged in 17 steps (norm: 3.48548e-07)
------------------------------------
  Starting TPA DIIS iterations ... 
------------------------------------ 
   It     Res. Norm  Remark
------------------------------------
                       Guess.
    1     1.047e+01  
    2     1.837e+01  
    3     2.712e+00  
    4     1.037e+00  
    5     2.968e-01  
    6     1.327e-01  
    7     3.892e-02  
    8     6.604e-03  
    9     2.747e-03  
   10     4.809e-04  
   11     1.693e-04  
   12     3.670e-05  
   13     1.319e-05  
   14     9.978e-06  
   15     3.352e-06  
   16     2.659e-06  
   17     6.633e-07  Converged.
   ... Converged in 17 steps (norm: 6.63271e-07)
------------------------------------
  Starting TPA DIIS iterations ... 
------------------------------------ 
   It     Res. Norm  Remark
------------------------------------
                       Guess.
    1     9.905e+00  
    2     1.739e+01  
    3     2.606e+00  
    4     1.038e+00  
    5     2.959e-01  
    6     1.363e-01  
    7     3.902e-02  
    8     6.840e-03  
    9     2.750e-03  
   10     4.877e-04  
   11     1.687e-04  
   12     3.479e-05  
   13     1.362e-05  
   14     9.179e-06  
   15     2.526e-06  
   16     2.155e-06  
   17     4.445e-07  Converged.
   ... Converged in 17 steps (norm: 4.4455e-07)
------------------------------------
  Starting TPA DIIS iterations ... 
------------------------------------ 
   It     Res. Norm  Remark
------------------------------------
                       Guess.
    1     8.395e-01  
    2     7.637e-01  
    3     3.520e-01  
    4     3.076e-01  
    5     5.003e-02  
    6     2.292e-02  
    7     5.385e-03  
    8     1.652e-03  
    9     6.470e-04  
   10     1.068e-04  
   11     6.947e-05  
   12     3.185e-05  
   13     3.320e-05  
   14     1.344e-05  
   15     5.222e-06  
   16     2.437e-06  
   17     5.309e-07  Converged.
   ... Converged in 17 steps (norm: 5.30915e-07)
------------------------------------
  Starting TPA DIIS iterations ... 
------------------------------------ 
   It     Res. Norm  Remark
------------------------------------
                       Guess.
    1     1.144e+01  
    2     2.063e+01  
    3     2.961e+00  
    4     1.188e+00  
    5     3.420e-01  
    6     1.543e-01  
    7     4.492e-02  
    8     7.608e-03  
    9     3.194e-03  
   10     5.598e-04  
   11     1.971e-04  
   12     4.501e-05  
   13     1.632e-05  
   14     1.321e-05  
   15     4.635e-06  
   16     3.580e-06  
   17     8.989e-07  Converged.
   ... Converged in 17 steps (norm: 8.98862e-07)
------------------------------------
  Starting TPA DIIS iterations ... 
------------------------------------ 
   It     Res. Norm  Remark
------------------------------------
                       Guess.
    1     1.082e+01  
    2     1.953e+01  
    3     2.845e+00  
    4     1.188e+00  
    5     3.411e-01  
    6     1.586e-01  
    7     4.505e-02  
    8     7.876e-03  
    9     3.193e-03  
   10     5.669e-04  
   11     1.954e-04  
   12     4.239e-05  
   13     1.666e-05  
   14     1.205e-05  
   15     3.276e-06  
   16     2.907e-06  
   17     5.826e-07  Converged.
   ... Converged in 17 steps (norm: 5.8259e-07)
------------------------------------
  Starting TPA DIIS iterations ... 
------------------------------------ 
   It     Res. Norm  Remark
------------------------------------
                       Guess.
    1     8.548e-01  
    2     7.989e-01  
    3     3.770e-01  
    4     3.492e-01  
    5     5.582e-02  
    6     2.570e-02  
    7     6.267e-03  
    8     1.734e-03  
    9     7.251e-04  
   10     1.259e-04  
   11     8.454e-05  
   12     4.012e-05  
   13     4.245e-05  
   14     1.689e-05  
   15     7.031e-06  
   16     3.148e-06  
   17     6.498e-07  Converged.
   ... Converged in 17 steps (norm: 6.49817e-07)
------------------------------------
  Starting TPA DIIS iterations ... 
------------------------------------ 
   It     Res. Norm  Remark
------------------------------------
                       Guess.
    1     1.247e+01  
    2     2.311e+01  
    3     3.224e+00  
    4     1.353e+00  
    5     3.921e-01  
    6     1.784e-01  
    7     5.156e-02  
    8     8.721e-03  
    9     3.695e-03  
   10     6.478e-04  
   11     2.278e-04  
   12     5.501e-05  
   13     2.024e-05  
   14     1.728e-05  
   15     6.321e-06  
   16     4.755e-06  
   17     1.176e-06  
   18     6.154e-07  Converged.
   ... Converged in 18 steps (norm: 6.1536e-07)
------------------------------------
  Starting TPA DIIS iterations ... 
------------------------------------ 
   It     Res. Norm  Remark
------------------------------------
                       Guess.
    1     1.179e+01  
    2     2.188e+01  
    3     3.097e+00  
    4     1.352e+00  
    5     3.912e-01  
    6     1.835e-01  
    7     5.173e-02  
    8     9.022e-03  
    9     3.687e-03  
   10     6.552e-04  
   11     2.248e-04  
   12     5.150e-05  
   13     2.038e-05  
   14     1.565e-05  
   15     4.272e-06  
   16     3.888e-06  
   17     7.433e-07  Converged.
   ... Converged in 17 steps (norm: 7.43309e-07)
------------------------------------
  Starting TPA DIIS iterations ... 
------------------------------------ 
   It     Res. Norm  Remark
------------------------------------
                       Guess.
    1     8.697e-01  
    2     8.350e-01  
    3     4.028e-01  
    4     3.910e-01  
    5     6.212e-02  
    6     2.855e-02  
    7     7.229e-03  
    8     1.812e-03  
    9     8.075e-04  
   10     1.468e-04  
   11     1.021e-04  
   12     5.011e-05  
   13     5.377e-05  
   14     2.097e-05  
   15     9.297e-06  
   16     4.005e-06  
   17     8.019e-07  Converged.
   ... Converged in 17 steps (norm: 8.01934e-07)
------------------------------------
  Two-photon absorbption ...  CPU 103.81 s  wall 19.35 s
  Transition density matrix of state singlet_A_1 printed to ASCII file 'State_singlet_A_1_Transition.txt'
  Transition density matrix of state singlet_A_2 printed to ASCII file 'State_singlet_A_2_Transition.txt'
  Transition density matrix of state singlet_A_3 printed to ASCII file 'State_singlet_A_3_Transition.txt'
  Transition density matrix of state singlet_A_4 printed to ASCII file 'State_singlet_A_4_Transition.txt'
  Transition density matrix of state singlet_A_5 printed to ASCII file 'State_singlet_A_5_Transition.txt'
  Transition density matrix of state singlet_A_6 printed to ASCII file 'State_singlet_A_6_Transition.txt'
  Transition density matrix of state singlet_A_7 printed to ASCII file 'State_singlet_A_7_Transition.txt'
  Transition density matrix of state singlet_A_8 printed to ASCII file 'State_singlet_A_8_Transition.txt'
  Transition density matrix of state singlet_A_9 printed to ASCII file 'State_singlet_A_9_Transition.txt'
  Transition density matrix of state singlet_A_10 printed to ASCII file 'State_singlet_A_10_Transition.txt'
  Transition properties ...  CPU 0.14 s  wall 0.89 s
  Difference density matrix of state singlet_A_1 printed to ASCII file 'State_singlet_A_1_Difference.txt'
  Total density matrix of state singlet_A_1 printed to ASCII file 'State_singlet_A_1_Total.txt'
  Difference density matrix of state singlet_A_2 printed to ASCII file 'State_singlet_A_2_Difference.txt'
  Total density matrix of state singlet_A_2 printed to ASCII file 'State_singlet_A_2_Total.txt'
  Difference density matrix of state singlet_A_3 printed to ASCII file 'State_singlet_A_3_Difference.txt'
  Total density matrix of state singlet_A_3 printed to ASCII file 'State_singlet_A_3_Total.txt'
  Difference density matrix of state singlet_A_4 printed to ASCII file 'State_singlet_A_4_Difference.txt'
  Total density matrix of state singlet_A_4 printed to ASCII file 'State_singlet_A_4_Total.txt'
  Difference density matrix of state singlet_A_5 printed to ASCII file 'State_singlet_A_5_Difference.txt'
  Total density matrix of state singlet_A_5 printed to ASCII file 'State_singlet_A_5_Total.txt'
  Difference density matrix of state singlet_A_6 printed to ASCII file 'State_singlet_A_6_Difference.txt'
  Total density matrix of state singlet_A_6 printed to ASCII file 'State_singlet_A_6_Total.txt'
  Difference density matrix of state singlet_A_7 printed to ASCII file 'State_singlet_A_7_Difference.txt'
  Total density matrix of state singlet_A_7 printed to ASCII file 'State_singlet_A_7_Total.txt'
  Difference density matrix of state singlet_A_8 printed to ASCII file 'State_singlet_A_8_Difference.txt'
  Total density matrix of state singlet_A_8 printed to ASCII file 'State_singlet_A_8_Total.txt'
  Difference density matrix of state singlet_A_9 printed to ASCII file 'State_singlet_A_9_Difference.txt'
  Total density matrix of state singlet_A_9 printed to ASCII file 'State_singlet_A_9_Total.txt'
  Difference density matrix of state singlet_A_10 printed to ASCII file 'State_singlet_A_10_Difference.txt'
  Total density matrix of state singlet_A_10 printed to ASCII file 'State_singlet_A_10_Total.txt'
  Properties ...  CPU 0.28 s  wall 1.02 s
  ISR TDMS ...  CPU 7.72 s  wall 2.68 s
  ISR transition properties ...  CPU 0.15 s  wall 0.07 s
  Sum-over-states TPA ...  CPU 0.00 s  wall 0.00 s

--------------------------------------------------------------------------------
                   State-averaged natural transition orbitals
--------------------------------------------------------------------------------
--------------------------------------------------------------------------------
  SA-NTO decomposition ...  CPU 0.01 s  wall 0.05 s

--------------------------------------------------------------------------------
                             Excited State Summary
--------------------------------------------------------------------------------
--------------------------------------------------------------------------------

  Excited state 1 (singlet, A)                                     [converged]
  ----------------------------------------------------------------------------
  Term symbol:  2 (1) A                                     R^2 =  3.10827e-13

  Total energy:                                            -77.9982816675 a.u.
  Excitation energy:                                               8.733890 eV

  Osc. strength:                                                      0.445018
  Trans. dip. moment [a.u.]:           [  -1.041361,    0.997610,    0.009801]
  <i|r^2|0> [a.u.]:                    [  -6.130739,    0.241372,    0.001197]
  Two-photon absorption cross-section (SoS) [a.u.]:                   0.018574
  Two-photon absorption matrix (SoS) [a.u.]:
                                       |   -0.004131    0.017449    0.002561 |
                                       |    0.017449   -0.030685    0.001297 |
                                       |    0.002561    0.001297   -0.030470 |
  Two-photon absorption cross-section [a.u.]:                         0.011765
  Two-photon absorption matrix [a.u.]:
                                       |    0.035682    0.020129   -0.001907 |
                                       |    0.020129   -0.008054   -0.004292 |
                                       |   -0.001907   -0.004292   -0.027361 |

  Dip. moment [a.u.]:                  [  -0.002805,    0.003664,   -0.000171]
  Total dipole [Debye]:                                               0.011737
  <r^2> [a.u.]:                        [ 176.070301,   35.702312,   11.859536]
  Total <r^2> [a.u.]:                                               223.632150

  V1^2 = 0.9715, V2^2 = 0.0285

  Important amplitudes:
      occ i     occ j     vir a      vir b          v   
    -----------------------------------------------------
     8 (A) A              9 (A) A                -0.6811
     6 (A) A             14 (A) A                -0.0620
     4 (A) A             10 (A) A                 0.0598
     7 (A) A             16 (A) A                -0.0577
     5 (A) A             13 (A) A                -0.0514
     6 (A) A             23 (A) A                -0.0478
     8 (A) A             20 (A) A                -0.0347
     6 (A) A             19 (A) A                -0.0311
     3 (A) A             12 (A) A                 0.0281
     5 (A) A             22 (A) A                 0.0214
     7 (A) A             11 (A) A                 0.0194
     4 (A) A             24 (A) A                 0.0187
     8 (A) A   8 (A) B   17 (A) A   20 (A) B      0.0184
     3 (A) A             26 (A) A                -0.0183
     8 (A) A   8 (A) B    9 (A) A   28 (A) B     -0.0168
     6 (A) A             26 (A) A                 0.0164
     7 (A) A             21 (A) A                -0.0143
     3 (A) A             14 (A) A                 0.0140
     3 (A) A   4 (A) B    9 (A) A    9 (A) B     -0.0129
     6 (A) A             12 (A) A                 0.0126
     3 (A) A             19 (A) A                 0.0119
     8 (A) A   8 (A) B   18 (A) A   19 (A) B     -0.0113
     7 (A) A             36 (A) A                -0.0086
     7 (A) A             32 (A) A                -0.0083
     7 (A) A              9 (A) A                 0.0081
     3 (A) A             23 (A) A                 0.0077
     8 (A) A   8 (A) B   25 (A) A   29 (A) B     -0.0076
     6 (A) A             35 (A) A                -0.0069
     6 (A) A             40 (A) A                -0.0068
     3 (A) A   6 (A) B    9 (A) A   28 (A) B      0.0065
     6 (A) A   8 (A) A   19 (A) A   28 (A) A      0.0061
     5 (A) A   7 (A) B    9 (A) A    9 (A) B      0.0060
     5 (A) A   8 (A) B   11 (A) A    9 (A) B      0.0060
     7 (A) A   8 (A) B   13 (A) A   20 (A) B      0.0059
     5 (A) A   8 (A) B   16 (A) A    9 (A) B      0.0059
     5 (A) A   8 (A) B   11 (A) A   20 (A) B     -0.0059
     3 (A) A   5 (A) B    9 (A) A   25 (A) B      0.0058
     7 (A) A   8 (A) B   22 (A) A   20 (A) B     -0.0057
     3 (A) A             40 (A) A                 0.0057
     6 (A) A   8 (A) A    9 (A) A   18 (A) A     -0.0056
    -----------------------------------------------------

  Density matrix analysis:
  ------------------------
  NOs
    Occupation of frontier NOs:
       0.9498   1.0215
    Number of electrons: 16.000000
    Number of unpaired electrons: n_u =  2.31290, n_u,nl =  2.03250
    NO participation ratio (PR_NO):  2.861410
  
  
  Mulliken Population Analysis
  Atom      Charge (e)              h+              e-           Del q
  --------------------------------------------------------------------
   1 H        0.059675        0.020441       -0.012480        0.007962
   2 C       -0.114804        0.491127       -0.506201       -0.015074
   3 H        0.058529        0.020122       -0.012574        0.007548
   4 C       -0.115977        0.490324       -0.506894       -0.016571
   5 H        0.056260        0.020362       -0.012482        0.007881
   6 H        0.056316        0.020572       -0.012317        0.008255
  --------------------------------------------------------------------
  Sum:       -0.000000        1.062948       -1.062948       -0.000000
  
  Multipole moment analysis of the density matrix
    Molecular charge:                      -0.000000
    Number of electrons:                   16.000000
      Center of electronic charge [Ang]: [ -1.560483,  -0.063224,   0.001984]
    Total nuclear charge:                  16.000000
      Center of nuclear charge [Ang]:    [ -1.560576,  -0.063102,   0.001978]
    Dipole moment [D]:                     0.011737
      Cartesian components [D]:          [ -0.007129,   0.009313,  -0.000435]
    RMS size of the density [Ang]:         1.214435
      Cartesian components [Ang]:        [  0.804012,   0.787945,   0.455587]
  
  Exciton analysis of the difference density matrix
    <r_h> [Ang]:                  [ -1.559896,  -0.065011,   0.001981]
    <r_e> [Ang]:                  [ -1.560503,  -0.064933,   0.001984]
    |<r_e - r_h>| [Ang]:            0.000611
    Hole size [Ang]:                1.285545
      Cartesian components [Ang]: [  0.728364,   0.713175,   0.783258]
    Electron size [Ang]:            1.463095
      Cartesian components [Ang]: [  0.853982,   0.830368,   0.849617]

  Transition density matrix analysis:
  -----------------------------------
  
  CT numbers (Mulliken)
    omega =     0.9536
    <Phe> =    -0.1611
  
  Exciton analysis of the transition density matrix
    Trans. dipole moment [D]:             1.832770
      Cartesian components [D]:         [ -1.323437,   1.267835,   0.012456]
    <r_h> [Ang]:                        [ -1.559437,  -0.065799,   0.001967]
    <r_e> [Ang]:                        [ -1.560521,  -0.064818,   0.002016]
    |<r_e - r_h>| [Ang]:                  0.001462
    Hole size [Ang]:                      1.214133
      Cartesian components [Ang]:       [  0.649478,   0.636662,   0.804337]
    Electron size [Ang]:                  1.486059
      Cartesian components [Ang]:       [  0.864411,   0.839404,   0.869808]
    RMS electron-hole separation [Ang]:   1.937339
      Cartesian components [Ang]:       [  1.107431,   1.075517,   1.170531]
    Covariance(r_h, r_e) [Ang^2]:        -0.035396
    Correlation coefficient:             -0.019618
    Center-of-mass size [Ang]:            0.950223
      Cartesian components [Ang]:       [  0.527175,   0.515543,   0.599355]

  Decomposition into state-averaged NTOs
    H- 0 -> L+ 0:  0.6699 ( 89.8%)
    H- 2 -> L+ 5:  0.0833 (  1.4%)
                   omega =  95.4%
  ----------------------------------------------------------------------------


  Excited state 2 (singlet, A)                                     [converged]
  ----------------------------------------------------------------------------
  Term symbol:  3 (1) A                                     R^2 =  5.58063e-13

  Total energy:                                            -77.9875219964 a.u.
  Excitation energy:                                               9.026676 eV

  Osc. strength:                                                      0.000138
  Trans. dip. moment [a.u.]:           [   0.014671,   -0.012217,   -0.016041]
  <i|r^2|0> [a.u.]:                    [   0.025678,   -0.093511,    0.151419]
  Two-photon absorption cross-section (SoS) [a.u.]:                   4.408917
  Two-photon absorption matrix (SoS) [a.u.]:
                                       |   -0.046540   -0.056255    0.509485 |
                                       |   -0.056255   -0.065705    0.527963 |
                                       |    0.509485    0.527963    0.113034 |
  Two-photon absorption cross-section [a.u.]:                         0.099903
  Two-photon absorption matrix [a.u.]:
                                       |    0.007503    0.007090   -0.039420 |
                                       |    0.007090    0.008547   -0.103406 |
                                       |   -0.039420   -0.103406   -0.015878 |

  Dip. moment [a.u.]:                  [  -0.044038,    0.018265,   -0.001470]
  Total dipole [Debye]:                                               0.121236
  <r^2> [a.u.]:                        [ 174.348135,   33.884910,   13.168875]
  Total <r^2> [a.u.]:                                               221.401920

  V1^2 = 0.9542, V2^2 = 0.0458

  Important amplitudes:
      occ i     occ j     vir a      vir b          v   
    -----------------------------------------------------
     7 (A) A              9 (A) A                 0.6700
     8 (A) A             11 (A) A                -0.1404
     7 (A) A             20 (A) A                 0.0759
     8 (A) A             10 (A) A                 0.0318
     5 (A) A   8 (A) B    9 (A) A    9 (A) B     -0.0317
     8 (A) A             16 (A) A                -0.0266
     8 (A) A             21 (A) A                 0.0169
     5 (A) A             28 (A) A                 0.0151
     4 (A) A   7 (A) B    9 (A) A   19 (A) B     -0.0135
     5 (A) A   7 (A) B    9 (A) A   16 (A) B      0.0134
     8 (A) A             12 (A) A                -0.0114
     7 (A) A   8 (A) B   20 (A) A   17 (A) B     -0.0105
     7 (A) A   8 (A) A    9 (A) A   28 (A) A     -0.0098
     5 (A) A   8 (A) B    9 (A) A   20 (A) B     -0.0096
     4 (A) A   6 (A) B    9 (A) A   16 (A) B     -0.0090
     5 (A) A   6 (A) A    9 (A) A   23 (A) A      0.0090
     5 (A) A   6 (A) A    9 (A) A   14 (A) A      0.0089
     5 (A) A   6 (A) B    9 (A) A   19 (A) B      0.0087
     6 (A) A              9 (A) A                 0.0087
     8 (A) A   7 (A) B    9 (A) A   28 (A) B      0.0085
     4 (A) A   5 (A) A    9 (A) A   10 (A) A      0.0084
     6 (A) A   7 (A) B    9 (A) A   18 (A) B      0.0083
     3 (A) A   7 (A) B    9 (A) A   18 (A) B      0.0080
     8 (A) A              9 (A) A                 0.0080
     5 (A) A   7 (A) A    9 (A) A   16 (A) A      0.0080
     5 (A) A   6 (A) B    9 (A) A   23 (A) B      0.0079
     4 (A) A   8 (A) B    9 (A) A   25 (A) B      0.0076
     7 (A) A   8 (A) B   17 (A) A   20 (A) B     -0.0074
     4 (A) A   7 (A) B   19 (A) A    9 (A) B     -0.0074
     5 (A) A   5 (A) B    9 (A) A   13 (A) B      0.0072
     7 (A) A   8 (A) B   19 (A) A   18 (A) B      0.0071
     5 (A) A   8 (A) A    9 (A) A   20 (A) A     -0.0069
     4 (A) A   5 (A) B    9 (A) A   18 (A) B     -0.0068
     7 (A) A   7 (A) B   20 (A) A   22 (A) B      0.0065
     7 (A) A   8 (A) B   17 (A) A    9 (A) B     -0.0065
     5 (A) A   6 (A) B    9 (A) A   14 (A) B      0.0064
     4 (A) A   7 (A) A    9 (A) A   19 (A) A     -0.0061
     4 (A) A   5 (A) B   10 (A) A    9 (A) B     -0.0061
     5 (A) A             38 (A) A                -0.0060
     5 (A) A   7 (A) B   11 (A) A   20 (A) B      0.0060
    -----------------------------------------------------

  Density matrix analysis:
  ------------------------
  NOs
    Occupation of frontier NOs:
       0.9605   1.0513
    Number of electrons: 16.000000
    Number of unpaired electrons: n_u =  2.35463, n_u,nl =  2.06099
    NO participation ratio (PR_NO):  3.011529
  
  
  Mulliken Population Analysis
  Atom      Charge (e)              h+              e-           Del q
  --------------------------------------------------------------------
   1 H        0.138847        0.115691       -0.028558        0.087133
   2 C       -0.302471        0.267326       -0.470068       -0.202742
   3 H        0.159482        0.127922       -0.019422        0.108500
   4 C       -0.301382        0.278346       -0.480323       -0.201976
   5 H        0.157783        0.138448       -0.029044        0.109404
   6 H        0.147743        0.117525       -0.017844        0.099681
  --------------------------------------------------------------------
  Sum:       -0.000000        1.045259       -1.045259       -0.000000
  
  Multipole moment analysis of the density matrix
    Molecular charge:                      -0.000000
    Number of electrons:                   16.000000
      Center of electronic charge [Ang]: [ -1.559120,  -0.063706,   0.002027]
    Total nuclear charge:                  16.000000
      Center of nuclear charge [Ang]:    [ -1.560576,  -0.063102,   0.001978]
    Dipole moment [D]:                     0.121236
      Cartesian components [D]:          [ -0.111932,   0.046425,  -0.003735]
    RMS size of the density [Ang]:         1.200005
      Cartesian components [Ang]:        [  0.787749,   0.767455,   0.480078]
  
  Exciton analysis of the difference density matrix
    <r_h> [Ang]:                  [ -1.570671,  -0.039914,   0.002908]
    <r_e> [Ang]:                  [ -1.550413,  -0.047228,   0.003568]
    |<r_e - r_h>| [Ang]:            0.021548
    Hole size [Ang]:                1.486354
      Cartesian components [Ang]: [  0.981162,   1.020279,   0.453432]
    Electron size [Ang]:            1.473954
      Cartesian components [Ang]: [  0.876693,   0.858713,   0.816432]

  Transition density matrix analysis:
  -----------------------------------
  
  CT numbers (Mulliken)
    omega =     0.9218
    <Phe> =    -0.0123
  
  Exciton analysis of the transition density matrix
    Trans. dipole moment [D]:             0.031691
      Cartesian components [D]:         [  0.018645,  -0.015527,  -0.020386]
    <r_h> [Ang]:                        [ -1.573158,  -0.036595,   0.002926]
    <r_e> [Ang]:                        [ -1.547770,  -0.049337,   0.003592]
    |<r_e - r_h>| [Ang]:                  0.028414
    Hole size [Ang]:                      1.515354
      Cartesian components [Ang]:       [  1.001946,   1.047059,   0.442796]
    Electron size [Ang]:                  1.471073
      Cartesian components [Ang]:       [  0.867659,   0.847433,   0.832515]
    RMS electron-hole separation [Ang]:   2.092269
      Cartesian components [Ang]:       [  1.309627,   1.332185,   0.942205]
    Covariance(r_h, r_e) [Ang^2]:         0.041784
    Correlation coefficient:              0.018744
    Center-of-mass size [Ang]:            1.065824
      Cartesian components [Ang]:       [  0.670630,   0.680881,   0.471844]

  Decomposition into state-averaged NTOs
    H- 1 -> L+ 0: -0.6624 ( 87.7%)
    H- 0 -> L+ 2:  0.1398 (  3.9%)
                   omega =  92.2%
  ----------------------------------------------------------------------------


  Excited state 3 (singlet, A)                                     [converged]
  ----------------------------------------------------------------------------
  Term symbol:  4 (1) A                                     R^2 =  6.25077e-13

  Total energy:                                            -77.9810364449 a.u.
  Excitation energy:                                               9.203157 eV

  Osc. strength:                                                      0.026038
  Trans. dip. moment [a.u.]:           [   0.015927,    0.020538,   -0.338832]
  <i|r^2|0> [a.u.]:                    [   0.102720,    0.001846,   -0.003090]
  Two-photon absorption cross-section (SoS) [a.u.]:                   0.173982
  Two-photon absorption matrix (SoS) [a.u.]:
                                       |    0.035860   -0.009031    0.088049 |
                                       |   -0.009031   -0.058825    0.106530 |
                                       |    0.088049    0.106530    0.019424 |
  Two-photon absorption cross-section [a.u.]:                         0.137686
  Two-photon absorption matrix [a.u.]:
                                       |    0.026158   -0.007173    0.054329 |
                                       |   -0.007173   -0.047410    0.112181 |
                                       |    0.054329    0.112181    0.017534 |

  Dip. moment [a.u.]:                  [  -0.137386,   -0.053764,   -0.009560]
  Total dipole [Debye]:                                               0.375774
  <r^2> [a.u.]:                        [ 180.057386,   40.673981,   11.039856]
  Total <r^2> [a.u.]:                                               231.771223

  V1^2 = 0.9587, V2^2 = 0.0413

  Important amplitudes:
      occ i     occ j     vir a      vir b          v   
    -----------------------------------------------------
     8 (A) A             10 (A) A                 0.6882
     8 (A) A             24 (A) A                 0.0505
     7 (A) A              9 (A) A                -0.0339
     8 (A) A             18 (A) A                -0.0308
     4 (A) A              9 (A) A                -0.0232
     8 (A) A   8 (A) B    9 (A) A   12 (A) B     -0.0219
     8 (A) A   8 (A) B   10 (A) A   17 (A) B      0.0173
     5 (A) A   8 (A) B   11 (A) A   10 (A) B     -0.0165
     8 (A) A             15 (A) A                -0.0154
     7 (A) A   8 (A) B   13 (A) A   10 (A) B      0.0141
     6 (A) A   8 (A) A   10 (A) A   15 (A) A     -0.0112
     4 (A) A   8 (A) B   12 (A) A   10 (A) B      0.0111
     6 (A) A   8 (A) B   15 (A) A   10 (A) B      0.0109
     7 (A) A   8 (A) B   22 (A) A   10 (A) B     -0.0108
     4 (A) A   8 (A) A   10 (A) A   12 (A) A     -0.0106
     7 (A) A   8 (A) A   10 (A) A   22 (A) A      0.0099
     7 (A) A   8 (A) A   10 (A) A   13 (A) A     -0.0098
     5 (A) A   8 (A) A   10 (A) A   11 (A) A      0.0095
     5 (A) A   8 (A) B   21 (A) A   10 (A) B      0.0095
     6 (A) A   8 (A) B   10 (A) A   10 (A) B      0.0087
     6 (A) A   8 (A) A   10 (A) A   18 (A) A      0.0085
     8 (A) A             12 (A) A                 0.0084
     8 (A) A             11 (A) A                -0.0083
     7 (A) A   8 (A) A   12 (A) A   16 (A) A     -0.0082
     5 (A) A   8 (A) A   10 (A) A   21 (A) A     -0.0080
     3 (A) A   4 (A) B   10 (A) A    9 (A) B      0.0079
     8 (A) A   8 (A) B    9 (A) A   23 (A) B      0.0075
     4 (A) A   8 (A) B   19 (A) A   10 (A) B      0.0074
     8 (A) A   8 (A) B   10 (A) A   28 (A) B      0.0073
     3 (A) A   8 (A) B   10 (A) A   10 (A) B      0.0071
     3 (A) A   8 (A) A   10 (A) A   24 (A) A     -0.0071
     7 (A) A   8 (A) B   16 (A) A   12 (A) B      0.0070
     5 (A) A   8 (A) B   10 (A) A   11 (A) B     -0.0070
     3 (A) A   8 (A) B   10 (A) A   18 (A) B     -0.0069
     8 (A) A   8 (A) B    9 (A) A   19 (A) B     -0.0066
     6 (A) A   8 (A) B   18 (A) A   10 (A) B     -0.0064
     3 (A) A   6 (A) B   10 (A) A   28 (A) B     -0.0062
     7 (A) A   8 (A) B   12 (A) A   11 (A) B      0.0057
     3 (A) A   5 (A) B   10 (A) A   25 (A) B     -0.0056
     6 (A) A             28 (A) A                 0.0056
    -----------------------------------------------------

  Density matrix analysis:
  ------------------------
  NOs
    Occupation of frontier NOs:
       0.9827   0.9838
    Number of electrons: 16.000000
    Number of unpaired electrons: n_u =  2.28966, n_u,nl =  2.02540
    NO participation ratio (PR_NO):  2.701757
  
  
  Mulliken Population Analysis
  Atom      Charge (e)              h+              e-           Del q
  --------------------------------------------------------------------
   1 H       -0.186487        0.053273       -0.291474       -0.238201
   2 C        0.335312        0.540988       -0.105947        0.435042
   3 H       -0.158202        0.054412       -0.263596       -0.209183
   4 C        0.331181        0.531359       -0.100772        0.430587
   5 H       -0.177174        0.054196       -0.279750       -0.225554
   6 H       -0.144630        0.054683       -0.247374       -0.192691
  --------------------------------------------------------------------
  Sum:       -0.000000        1.288912       -1.288912       -0.000000
  
  Multipole moment analysis of the density matrix
    Molecular charge:                      -0.000000
    Number of electrons:                   16.000000
      Center of electronic charge [Ang]: [ -1.556032,  -0.061324,   0.002294]
    Total nuclear charge:                  16.000000
      Center of nuclear charge [Ang]:    [ -1.560576,  -0.063102,   0.001978]
    Dipole moment [D]:                     0.375774
      Cartesian components [D]:          [ -0.349201,  -0.136656,  -0.024299]
    RMS size of the density [Ang]:         1.277265
      Cartesian components [Ang]:        [  0.854452,   0.841491,   0.439559]
  
  Exciton analysis of the difference density matrix
    <r_h> [Ang]:                  [ -1.556082,  -0.065674,   0.002101]
    <r_e> [Ang]:                  [ -1.501328,  -0.042032,   0.005958]
    |<r_e - r_h>| [Ang]:            0.059765
    Hole size [Ang]:                1.411704
      Cartesian components [Ang]: [  0.834644,   0.822006,   0.787770]
    Electron size [Ang]:            2.082098
      Cartesian components [Ang]: [  1.376863,   1.381143,   0.729264]

  Transition density matrix analysis:
  -----------------------------------
  
  CT numbers (Mulliken)
    omega =     0.9260
    <Phe> =    -0.0108
  
  Exciton analysis of the transition density matrix
    Trans. dipole moment [D]:             0.431878
      Cartesian components [D]:         [  0.020241,   0.026102,  -0.430613]
    <r_h> [Ang]:                        [ -1.560528,  -0.068205,   0.001793]
    <r_e> [Ang]:                        [ -1.481109,  -0.035122,   0.007295]
    |<r_e - r_h>| [Ang]:                  0.086209
    Hole size [Ang]:                      1.213796
      Cartesian components [Ang]:       [  0.637473,   0.625271,   0.822172]
    Electron size [Ang]:                  2.301072
      Cartesian components [Ang]:       [  1.519799,   1.528004,   0.806441]
    RMS electron-hole separation [Ang]:   2.593044
      Cartesian components [Ang]:       [  1.642455,   1.644295,   1.150006]
    Covariance(r_h, r_e) [Ang^2]:         0.025894
    Correlation coefficient:              0.009271
    Center-of-mass size [Ang]:            1.305759
      Cartesian components [Ang]:       [  0.827794,   0.828992,   0.576659]

  Decomposition into state-averaged NTOs
    H- 0 -> L+ 1: -0.6788 ( 92.1%)
                   omega =  92.6%
  ----------------------------------------------------------------------------


  Excited state 4 (singlet, A)                                     [converged]
  ----------------------------------------------------------------------------
  Term symbol:  5 (1) A                                     R^2 =  3.73104e-13

  Total energy:                                            -77.9573621846 a.u.
  Excitation energy:                                               9.847366 eV

  Osc. strength:                                                      0.000074
  Trans. dip. moment [a.u.]:           [   0.005626,   -0.003697,   -0.016168]
  <i|r^2|0> [a.u.]:                    [   0.052964,    0.016450,   -0.037061]
  Two-photon absorption cross-section (SoS) [a.u.]:                 151.609538
  Two-photon absorption matrix (SoS) [a.u.]:
                                       |    0.296051    0.329880   -3.083603 |
                                       |    0.329880    0.362112   -3.001266 |
                                       |   -3.083603   -3.001266   -0.658453 |
  Two-photon absorption cross-section [a.u.]:                        91.956120
  Two-photon absorption matrix [a.u.]:
                                       |    0.226151    0.256605   -2.381918 |
                                       |    0.256605    0.286504   -2.357287 |
                                       |   -2.381918   -2.357287   -0.513269 |

  Dip. moment [a.u.]:                  [   0.096245,    0.141059,    0.013350]
  Total dipole [Debye]:                                               0.435367
  <r^2> [a.u.]:                        [ 181.879926,   40.630592,   10.737113]
  Total <r^2> [a.u.]:                                               233.247631

  V1^2 = 0.9636, V2^2 = 0.0364

  Important amplitudes:
      occ i     occ j     vir a      vir b          v   
    -----------------------------------------------------
     8 (A) A             11 (A) A                 0.6705
     7 (A) A              9 (A) A                 0.1421
     8 (A) A             21 (A) A                -0.0784
     8 (A) A             16 (A) A                 0.0653
     8 (A) A             12 (A) A                 0.0307
     8 (A) A   8 (A) B    9 (A) A   13 (A) B     -0.0167
     5 (A) A   8 (A) B   11 (A) A   11 (A) B     -0.0155
     8 (A) A             10 (A) A                 0.0150
     6 (A) A              9 (A) A                 0.0146
     8 (A) A   8 (A) B   11 (A) A   17 (A) B      0.0140
     7 (A) A             20 (A) A                 0.0128
     7 (A) A   8 (A) B   13 (A) A   11 (A) B      0.0127
     5 (A) A   8 (A) A   11 (A) A   21 (A) A     -0.0110
     4 (A) A   8 (A) B   12 (A) A   11 (A) B      0.0109
     8 (A) A   8 (A) B    9 (A) A   22 (A) B      0.0108
     7 (A) A   8 (A) A   11 (A) A   22 (A) A      0.0096
     6 (A) A   8 (A) B   15 (A) A   11 (A) B      0.0091
     7 (A) A   8 (A) B   22 (A) A   11 (A) B     -0.0089
     6 (A) A   8 (A) B   10 (A) A   11 (A) B      0.0089
     3 (A) A   4 (A) B   11 (A) A    9 (A) B      0.0083
     6 (A) A   8 (A) A   11 (A) A   15 (A) A     -0.0081
     3 (A) A   8 (A) B   11 (A) A   18 (A) B     -0.0081
     7 (A) A   8 (A) A   13 (A) A   16 (A) A     -0.0078
     7 (A) A   8 (A) A   11 (A) A   13 (A) A     -0.0076
     5 (A) A   8 (A) B   21 (A) A   11 (A) B      0.0071
     4 (A) A   8 (A) B   19 (A) A   11 (A) B      0.0069
     5 (A) A   8 (A) B    9 (A) A    9 (A) B     -0.0064
     4 (A) A   8 (A) A   11 (A) A   12 (A) A     -0.0062
     3 (A) A   6 (A) B   11 (A) A   28 (A) B     -0.0060
     6 (A) A   8 (A) A   11 (A) A   18 (A) A      0.0060
     6 (A) A   8 (A) B   18 (A) A   11 (A) B     -0.0058
     7 (A) A   8 (A) B   16 (A) A   13 (A) B      0.0057
     3 (A) A   8 (A) A   11 (A) A   18 (A) A     -0.0055
     3 (A) A   8 (A) B   11 (A) A   30 (A) B     -0.0055
     5 (A) A   8 (A) B   10 (A) A   10 (A) B     -0.0055
     3 (A) A   5 (A) B   11 (A) A   25 (A) B     -0.0055
     6 (A) A   8 (A) B   11 (A) A   10 (A) B      0.0054
     7 (A) A   8 (A) B   12 (A) A   10 (A) B      0.0053
     8 (A) A   8 (A) B   20 (A) A   22 (A) B      0.0053
     3 (A) A   8 (A) A   11 (A) A   24 (A) A     -0.0052
    -----------------------------------------------------

  Density matrix analysis:
  ------------------------
  NOs
    Occupation of frontier NOs:
       0.9453   1.0232
    Number of electrons: 16.000000
    Number of unpaired electrons: n_u =  2.31816, n_u,nl =  2.04589
    NO participation ratio (PR_NO):  2.886478
  
  
  Mulliken Population Analysis
  Atom      Charge (e)              h+              e-           Del q
  --------------------------------------------------------------------
   1 H       -0.126627        0.043975       -0.222316       -0.178341
   2 C        0.279149        0.500966       -0.122088        0.378878
   3 H       -0.155851        0.046738       -0.253571       -0.206833
   4 C        0.274933        0.498555       -0.124215        0.374340
   5 H       -0.104902        0.046919       -0.200200       -0.153281
   6 H       -0.166703        0.044810       -0.259574       -0.214764
  --------------------------------------------------------------------
  Sum:       -0.000000        1.181963       -1.181963       -0.000000
  
  Multipole moment analysis of the density matrix
    Molecular charge:                      -0.000000
    Number of electrons:                   16.000000
      Center of electronic charge [Ang]: [ -1.563759,  -0.067768,   0.001537]
    Total nuclear charge:                  16.000000
      Center of nuclear charge [Ang]:    [ -1.560576,  -0.063102,   0.001978]
    Dipole moment [D]:                     0.435367
      Cartesian components [D]:          [  0.244630,   0.358537,   0.033932]
    RMS size of the density [Ang]:         1.277619
      Cartesian components [Ang]:        [  0.858999,   0.840545,   0.433493]
  
  Exciton analysis of the difference density matrix
    <r_h> [Ang]:                  [ -1.563280,  -0.067873,   0.001637]
    <r_e> [Ang]:                  [ -1.608171,  -0.129317,  -0.004414]
    |<r_e - r_h>| [Ang]:            0.076336
    Hole size [Ang]:                1.392915
      Cartesian components [Ang]: [  0.814125,   0.807216,   0.791083]
    Electron size [Ang]:            2.122349
      Cartesian components [Ang]: [  1.441282,   1.403478,   0.676253]

  Transition density matrix analysis:
  -----------------------------------
  
  CT numbers (Mulliken)
    omega =     0.9299
    <Phe> =    -0.0134
  
  Exciton analysis of the transition density matrix
    Trans. dipole moment [D]:             0.022258
      Cartesian components [D]:         [  0.007150,  -0.004699,  -0.020548]
    <r_h> [Ang]:                        [ -1.560706,  -0.064010,   0.002032]
    <r_e> [Ang]:                        [ -1.617683,  -0.141650,  -0.005643]
    |<r_e - r_h>| [Ang]:                  0.096609
    Hole size [Ang]:                      1.226091
      Cartesian components [Ang]:       [  0.652603,   0.650428,   0.808920]
    Electron size [Ang]:                  2.262067
      Cartesian components [Ang]:       [  1.536854,   1.496060,   0.718910]
    RMS electron-hole separation [Ang]:   2.564009
      Cartesian components [Ang]:       [  1.662148,   1.625195,   1.081734]
    Covariance(r_h, r_e) [Ang^2]:         0.027718
    Correlation coefficient:              0.009994
    Center-of-mass size [Ang]:            1.291867
      Cartesian components [Ang]:       [  0.839067,   0.819645,   0.541358]

  Decomposition into state-averaged NTOs
    H- 0 -> L+ 2: -0.6666 ( 88.9%)
    H- 1 -> L+ 0: -0.1401 (  3.9%)
                   omega =  93.0%
  ----------------------------------------------------------------------------


  Excited state 5 (singlet, A)                                     [converged]
  ----------------------------------------------------------------------------
  Term symbol:  6 (1) A                                     R^2 =  2.64447e-13

  Total energy:                                            -77.9430663881 a.u.
  Excitation energy:                                              10.236375 eV

  Osc. strength:                                                      0.000001
  Trans. dip. moment [a.u.]:           [   0.000640,    0.001070,   -0.001294]
  <i|r^2|0> [a.u.]:                    [   0.090287,   -0.098778,    0.012353]
  Two-photon absorption cross-section (SoS) [a.u.]:                 229.113682
  Two-photon absorption matrix (SoS) [a.u.]:
[...]
    16   -1.524459616444e-03
    17   -1.777597538030e-03
    18   -1.158295581252e-04
    19   -3.664024823330e-03
    20    9.083156726488e-03
    21    9.144753369147e-01
    22   -3.178663060266e-04
    23    1.381490280621e-02
    24    7.945790280425e-04
    25    6.924264208011e-02
    26   -5.073844783215e-02
    27   -1.394716806887e+00
    28    9.112088646577e-02
    29   -9.778298039080e-02
    30   -1.342749848846e-03
    31    3.811114553364e-01
    32   -3.910925654162e-01
    33   -4.521933866810e-03
    34    1.616533781835e-02
    35   -1.592586824706e-03
    36   -1.766552377098e-03
    37   -8.955426241762e-04
    38   -2.526368194486e-03
    39    8.645503720405e-03
    40    9.547579400664e-01
    41   -6.287409897574e-04
    42   -1.400232216858e-02
    43   -8.738800959986e-04
    44    5.349026873023e-03
    45    9.285632506353e-01
    46    1.417822957848e-02
    47    3.060632776513e-04
    48    7.198293681620e-04
Sym=X
Ene= 0.233736
Spin=Alpha
Occup=0
     1   -2.708143686358e-02
     2   -1.253427618029e+00
     3    1.418085030565e-02
     4    4.091023771622e-03
     5    9.031009570757e-04
     6   -4.068705110611e-03
     7    5.863639306364e-03
     8    4.026519369973e-02
     9    1.538696091483e-01
    10    1.613635103281e-01
    11    1.658942274665e-02
    12    5.661053041524e-01
    13    5.657926618275e-01
    14    5.915959685444e-02
    15   -5.012468934746e-04
    16    3.776916344953e-05
    17    1.249448862530e-04
    18   -3.701986361366e-04
    19    4.542309825146e-04
    20    2.516331317115e-02
    21    1.169390858394e+00
    22    2.290427234351e-03
    23    1.361691939095e-02
    24    8.970033494137e-04
    25    7.055067309284e-03
    26   -7.888361876260e-03
    27   -1.243419230333e-01
    28    1.580621878160e-01
    29    1.530613759543e-01
    30    1.717350911466e-02
    31    5.671620359206e-01
    32    5.066824270076e-01
    33    5.931732001129e-02
    34    1.264335004144e-03
    35   -2.074066112026e-04
    36   -1.380582350660e-04
    37   -3.943348813098e-04
    38   -7.647921695662e-04
    39   -2.623628770408e-02
    40   -1.084414105270e+00
    41    1.809739584533e-03
    42    1.274709606741e-02
    43    8.681597309796e-04
    44    2.683820527176e-02
    45    1.273934846445e+00
    46    1.507656831469e-02
    47    4.092855658675e-03
    48    9.985022057221e-04
Sym=X
Ene= 0.238798
Spin=Alpha
Occup=0
     1    1.489300913722e-02
     2    9.895954849424e-01
     3   -1.552684549507e-02
     4   -8.995192800311e-03
     5   -1.275244604197e-03
     6    8.604873353955e-02
     7   -8.042357000532e-02
     8   -1.566212270710e+00
     9   -4.610249739157e-02
    10    6.584634986349e-02
    11    1.720703346100e-03
    12   -1.841026421963e-01
    13    2.724517248334e-01
    14    7.492130104067e-03
    15    2.226823450795e-02
    16   -2.538299204281e-03
    17   -2.969655666008e-03
    18    1.049209816538e-03
    19   -1.247335216736e-02
    20    1.836331515909e-02
    21    1.171707138425e+00
    22    8.539192140327e-03
    23    1.833683427651e-02
    24    1.495965999430e-03
    25   -8.597844736301e-02
    26    7.828551185893e-02
    27    1.594674090931e+00
    28   -4.900140916882e-02
    29    6.635831374287e-02
    30    1.492082280351e-03
    31   -2.223728705339e-01
    32    2.629072808999e-01
    33    4.574728091899e-03
    34   -2.293505031076e-02
    35    2.706028962115e-03
    36    2.952761756148e-03
    37    5.489332666732e-04
    38    1.222199769449e-02
    39   -1.565906990606e-02
    40   -1.148694951359e+00
    41    9.616689057470e-03
    42    1.778257461641e-02
    43    1.523808039937e-03
    44   -1.399498651455e-02
    45   -1.045056908532e+00
    46   -1.677638340090e-02
    47   -9.407229049772e-03
    48   -1.385995540899e-03
Sym=X
Ene= 0.303519
Spin=Alpha
Occup=0
     1    2.209508075455e-02
     2   -1.694199614746e+00
     3    2.360837490944e-02
     4   -1.392998813049e-04
     5    1.103191959793e-03
     6   -1.064727233878e-03
     7   -9.687459375321e-04
     8    5.827639306044e-02
     9    1.343037086068e-01
    10    1.362043949197e-01
    11    1.434670875276e-02
    12    1.127543015939e+00
    13    1.199009377744e+00
    14    1.249676374160e-01
    15   -7.691032613319e-04
    16    1.794915343620e-03
    17   -1.842084174928e-03
    18    3.388880312216e-02
    19    2.037337148602e-03
    20   -2.054911546773e-02
    21    1.658213356993e+00
    22   -1.713699672954e-03
    23    2.259214595641e-02
    24    1.253426275445e-03
    25    1.251294411686e-03
    26   -1.707103599358e-04
    27   -2.242461951705e-02
    28   -1.377296622677e-01
    29   -1.413061378690e-01
    30   -1.530830528629e-02
    31   -1.166011368374e+00
    32   -1.169107441622e+00
    33   -1.266768341648e-01
    34    6.747901256658e-04
    35    1.655748329423e-03
    36   -1.993827725298e-03
    37    3.335960792283e-02
    38    1.253409376482e-03
    39   -1.719044654247e-02
    40    1.710971541918e+00
    41    2.196496999400e-03
    42   -2.360594561993e-02
    43   -1.318382253819e-03
    44    2.092213932098e-02
    45   -1.714833437156e+00
    46   -2.302542906563e-02
    47    1.248264089672e-03
    48   -1.053422452375e-03
Sym=X
Ene= 0.464025
Spin=Alpha
Occup=0
     1   -1.187243902296e-01
     2   -7.238748436162e-01
     3   -1.506356483371e-02
     4   -1.121328377624e-02
     5   -1.365041040206e-03
     6    6.165363278899e-02
     7    1.730944161895e-02
     8   -3.622979779628e+00
     9    1.001866179674e-01
    10   -9.501662108943e-02
    11   -8.010471652297e-04
    12    2.461134748936e+00
    13   -2.333187327670e+00
    14   -2.166641716148e-02
    15    5.475195976524e-02
    16   -3.473065164875e-03
    17   -4.856132899059e-03
    18    9.073993346887e-04
    19    1.664177083671e-02
    20   -1.312927653756e-01
    21   -6.990524918128e-01
    22    9.302182496033e-03
    23    1.688541364614e-02
    24    1.427683456545e-03
    25   -6.233774448630e-02
    26   -1.180724506508e-02
    27    3.614835493216e+00
    28    1.062073106691e-01
    29   -1.063595010234e-01
    30   -1.099586559066e-03
    31    2.438030381184e+00
    32   -2.317564402241e+00
    33   -2.141216950077e-02
    34   -4.968368088137e-02
    35    2.952938896992e-03
    36    4.165404622402e-03
    37    4.973260934743e-04
    38   -2.166800184081e-02
    39    1.075997993448e-01
    40    7.120920630275e-01
    41    6.939403574455e-03
    42    1.564783053360e-02
    43    1.296415270014e-03
    44    8.475782071333e-02
    45    7.717737108684e-01
    46   -1.474635372507e-02
    47   -1.077843282782e-02
    48   -1.375676710014e-03
Sym=X
Ene= 0.579531
Spin=Alpha
Occup=0
     1   -2.547383532805e-01
     2   -1.273221539531e-02
     3    1.810995916894e-02
     4   -2.276707219982e-02
     5   -4.890151781971e-04
     6    2.727553516947e-03
     7    1.643127560002e-01
     8    5.802153706773e-01
     9   -3.074158265636e-01
    10    2.966780032363e-01
    11    2.959242908709e-03
    12    6.467962389102e-01
    13   -6.235932989088e-01
    14   -6.081591050897e-03
    15    2.368885841540e-03
    16   -3.636114628179e-03
    17   -3.234724931654e-03
    18    2.083825393530e-03
    19   -5.911280719244e-02
    20   -2.314706356148e-01
    21   -1.029412279889e-02
    22    2.760969178161e-02
    23   -1.968591371821e-02
    24    1.465262525456e-04
    25    8.968899258342e-03
    26    1.672502039954e-01
    27    3.031361410378e-01
    28    2.896464862443e-01
    29   -2.926635185071e-01
    30   -3.636212698164e-03
    31   -8.310066828585e-01
    32    8.394570695908e-01
    33    1.007628879787e-02
    34    1.343032073309e-03
    35   -3.157392152929e-03
    36   -3.621313194873e-03
    37    1.037156993889e-02
    38   -5.909804929439e-02
    39   -2.621177357046e-01
    40   -7.218541099535e-02
    41   -2.648848677563e-02
    42    1.736777676164e-02
    43   -2.479934463594e-04
    44   -2.075846792143e-01
    45   -1.383401432844e-01
    46   -2.317734809861e-02
    47    2.803782982112e-02
    48    5.556854643314e-04
Sym=X
Ene= 0.611162
Spin=Alpha
Occup=0
     1   -5.077260237529e-01
     2    1.923459048399e-01
     3   -6.124232908383e-02
     4    3.894296470927e-02
     5   -6.425796175308e-04
     6   -6.168031527704e-04
     7   -1.968263023129e-04
     8   -1.156767080545e-01
     9   -3.319576754192e-02
    10   -4.683318874785e-02
    11   -4.518179676487e-03
    12    3.077527688408e-01
    13    2.536697301890e-01
    14    2.885231572824e-02
    15    3.455841102904e-03
    16   -7.284780824381e-03
    17    8.146496182333e-03
    18   -1.439670236734e-01
    19   -1.989363296678e-03
    20    5.084198675061e-01
    21   -2.110281949130e-01
    22    4.012725627320e-02
    23   -5.578159242620e-02
    24   -1.437926056407e-03
    25    1.314817483116e-03
    26    1.981952097144e-04
    27    3.651567285208e-02
    28   -5.783997267844e-02
    29   -3.289473719496e-02
    30   -4.611413907546e-03
    31    4.106593030264e-01
    32    2.175961793517e-01
    33    3.380009231871e-02
    34   -4.453274483133e-03
    35    7.849173779683e-03
    36   -8.179478247681e-03
    37    1.487075840962e-01
    38    4.107728140452e-03
    39   -4.964632103312e-01
    40    2.333577173610e-01
    41    4.135377823415e-02
    42   -5.774950358912e-02
    43   -1.409311479965e-03
    44    5.475618940300e-01
    45   -1.793433702351e-01
    46   -6.014161778540e-02
    47    3.276566586711e-02
    48   -9.258879730284e-04
Sym=X
Ene= 0.689118
Spin=Alpha
Occup=0
     1   -3.506493698582e-04
     2    2.895496370906e-04
     3    9.391464172163e-04
     4    1.150768626198e-03
     5   -2.102187689092e-02
     6   -1.581247676750e-05
     7   -1.048615330116e-04
     8   -1.239153091130e-04
     9    3.185659457182e-02
    10    3.952994837308e-02
    11   -6.708039676323e-01
    12   -2.854394819600e-02
    13   -3.641955601267e-02
    14    6.143525095107e-01
    15   -1.197510362347e-03
    16    8.244004631327e-02
    17   -7.814580961511e-02
    18   -8.782291577474e-03
    19   -1.242118573556e-03
    20   -1.474013587140e-04
    21   -5.523594462008e-04
    22    9.614266924293e-04
    23    1.227971692232e-03
    24   -2.092619439927e-02
    25   -3.101641439058e-06
    26   -2.513050587155e-04
    27    3.322344141534e-04
    28    3.257044427369e-02
    29    4.042452551196e-02
    30   -6.692074431600e-01
    31   -2.954838271956e-02
    32   -3.763842412727e-02
    33    6.128235712543e-01
    34    1.312533194900e-03
    35   -8.326548641095e-02
    36    7.874773684029e-02
    37    8.542208128984e-03
    38    1.205931792906e-03
    39    8.448016464035e-05
    40   -9.764113187794e-05
    41    1.094031715515e-03
    42    1.244956759888e-03
    43   -2.109450895493e-02
    44   -7.818489971898e-05
    45    7.743356932486e-04
    46    1.217804394744e-03
    47    1.434966976145e-03
    48   -2.288714825128e-02
Sym=X
Ene= 0.711877
Spin=Alpha
Occup=0
     1   -5.004714512753e-01
     2    1.965222320138e-01
     3   -8.451667171694e-02
     4   -4.580020091725e-02
     5   -6.701565796036e-03
     6   -5.135920805739e-02
     7   -3.143397025719e-01
     8    6.487351482283e-01
     9    1.966468692292e-01
    10   -1.796866254875e-01
    11   -1.059164239914e-03
    12   -1.558498693316e-01
    13    1.205462904602e-01
    14   -2.051573650552e-04
    15    1.984535179921e-01
    16   -2.134279479408e-02
    17   -2.446453106245e-02
    18    2.775323572549e-04
    19   -8.219723222923e-02
    20   -4.957258863335e-01
    21    1.681008651634e-01
    22    4.300771034328e-02
    23    8.219053581691e-02
    24    6.936432885727e-03
    25   -4.329053068670e-02
    26   -3.275967264839e-01
    27    3.876085757040e-01
    28   -1.931914563898e-01
    29    1.887152181663e-01
    30    2.194751402023e-03
    31   -3.542202392189e-02
    32    5.151252728003e-02
    33    8.213055420349e-04
    34    1.911525220966e-01
    35   -2.033824359543e-02
    36   -2.366816948782e-02
    37    2.430952608355e-03
    38   -7.169578655624e-02
    39   -4.720643177811e-01
    40    9.306771622378e-02
    41   -4.222831879642e-02
    42   -7.817268093434e-02
    43   -6.766754022875e-03
    44   -4.552048942481e-01
    45    8.639957497944e-02
    46    7.861337737375e-02
    47    4.296399142549e-02
    48    6.399015552884e-03
Sym=X
Ene= 0.785317
Spin=Alpha
Occup=0
     1    5.012432857090e-01
     2   -4.329598754336e-01
     3    1.051177864664e-01
     4    2.428299974313e-02
     5    6.397891063686e-03
     6    8.892223128330e-02
     7   -2.277510546272e-01
     8   -5.206995687830e-01
     9    1.206664969712e-01
    10   -1.044787001850e-01
    11   -8.019267428423e-04
    12    2.586244332216e-01
    13   -2.525053464788e-01
    14   -2.070336837651e-03
    15   -2.019069058493e-01
    16    1.640611187185e-02
    17    2.119886544320e-02
    18   -6.634614396018e-03
    19    2.276645257594e-03
    20    5.265181327179e-01
    21   -4.600165660730e-01
    22   -1.738862577658e-02
    23   -1.136784561478e-01
    24   -7.529344440404e-03
    25   -9.266909573869e-02
    26    1.973990826275e-01
    27    6.274683614059e-01
    28    1.164939421870e-01
    29   -1.057181323775e-01
    30   -4.777215017912e-04
    31    2.247712365974e-01
    32   -2.107586553519e-01
    33   -2.438394411792e-03
    34    2.156517544527e-01
    35   -1.852805611176e-02
    36   -2.294098207271e-02
    37    1.977234769248e-03
    38   -3.001513599443e-03
    39   -5.671805728844e-01
    40    4.397076748370e-01
    41   -2.349434432833e-02
    42   -1.145275310761e-01
    43   -8.060457656768e-03
    44   -5.390925784575e-01
    45    4.139236491209e-01
    46    1.111870801292e-01
    47    2.618989674505e-02
    48    7.005807929732e-03
Sym=X
Ene= 0.807889
Spin=Alpha
Occup=0
     1   -1.356104416259e-04
     2   -9.733341556586e-04
     3    1.700278670488e-03
     4    2.101970167990e-03
     5   -3.375705590651e-02
     6   -4.077417124483e-05
     7    1.841391241224e-04
     8   -2.491254895377e-05
     9    3.572746097785e-02
    10    4.485639410332e-02
    11   -7.624523088053e-01
    12   -5.288907875037e-02
    13   -6.597639609258e-02
    14    1.126669834919e+00
    15    1.101315096504e-03
    16   -6.513261398412e-02
    17    6.181166912990e-02
    18    7.137944986432e-03
    19    9.774328330909e-04
    20   -2.337394316279e-04
    21    1.372011285074e-03
    22    1.727724527524e-03
    23    2.212534768788e-03
    24   -3.443410266560e-02
    25    2.753055093268e-05
    26    6.728859694140e-05
    27   -1.446115339948e-04
    28   -3.757886494390e-02
    29   -4.630350864392e-02
    30    7.635703019063e-01
    31    5.542972821793e-02
    32    6.878268374530e-02
    33   -1.127296682656e+00
    34    8.764005680255e-04
    35   -6.510925145833e-02
    36    6.167968769699e-02
    37    6.487396509734e-03
    38    9.031768487681e-04
    39    1.938199821308e-04
    40   -1.467873615032e-03
    41   -1.609395140203e-03
    42   -1.836590429661e-03
    43    3.445789980743e-02
    44    1.597552054235e-04
    45    9.627778976645e-04
    46   -1.574163696065e-03
    47   -1.893867997052e-03
    48    3.338799485980e-02
Sym=X
Ene= 0.862439
Spin=Alpha
Occup=0
     1    2.487044756045e-02
     2   -1.100394253085e+00
     3    1.505761283197e-01
     4    5.564039565907e-02
     5    1.047808163265e-02
     6    9.775371080139e-04
     7   -1.255966499879e-02
     8    1.600194071946e-02
     9   -4.025787330754e-01
    10   -4.365005650970e-01
    11   -4.409526482827e-02
    12    9.287938577154e-01
    13    1.011951170469e+00
    14    1.021508503137e-01
    15   -1.935120972510e-03
    16    1.191038635183e-02
    17   -1.364254487095e-02
    18    2.369889109058e-01
    19    6.068533541343e-03
    20   -2.049123918863e-02
    21    1.117333944728e+00
    22    4.999819974172e-02
    23    1.517868008760e-01
    24    1.135706413494e-02
    25   -2.046742937584e-03
    26   -5.699222060061e-03
    27   -5.093406072829e-03
    28   -3.993309152404e-01
    29   -4.274738482181e-01
    30   -4.600384906432e-02
    31    9.405481231956e-01
    32    9.913400717971e-01
    33    1.072464197357e-01
    34    6.510338252029e-03
    35   -1.226720755700e-02
    36    1.368508998094e-02
    37   -2.418746735316e-01
    38   -1.111343687292e-03
    39    3.964534765537e-03
    40   -1.103685177172e+00
    41    4.688125295964e-02
    42    1.510183187881e-01
    43    1.130652534696e-02
    44   -1.280712183450e-02
    45    1.086100961501e+00
    46    1.500333342310e-01
    47    4.705232576202e-02
    48    1.015791643675e-02
Sym=X
Ene= 0.936544
Spin=Alpha
Occup=0
     1    1.160009375040e-01
     2   -1.293356427098e+00
     3    1.826613348472e-01
     4   -3.584029564835e-03
     5    8.396835218401e-03
     6   -6.404920238712e-04
     7    1.064323558405e-02
     8   -3.999149053137e-02
     9   -4.854258586380e-01
    10   -4.819669739815e-01
    11   -5.170512864572e-02
    12    1.505235286130e+00
    13    1.474568899046e+00
    14    1.592089281519e-01
    15    1.670811913585e-03
    16    6.084090091834e-03
    17   -6.723422368352e-03
    18    1.206981322259e-01
    19    1.121890824667e-02
    20   -1.148914358614e-01
    21    1.243297527255e+00
    22   -1.401757577348e-02
    23    1.808707775925e-01
    24    1.003265805166e-02
    25    1.287163968040e-03
    26    3.013590011735e-02
    27   -1.000475828401e-02
    28    4.582834743920e-01
    29    5.144879480641e-01
    30    5.316712406891e-02
    31   -1.415119682702e+00
    32   -1.562548326628e+00
    33   -1.624857560810e-01
    34    5.810800259587e-05
    35    5.451179805955e-03
    36   -8.639641184873e-03
    37    1.289884574047e-01
    38   -1.581826995683e-02
    39   -1.274809637249e-01
    40    1.334781814293e+00
    41    9.621527850013e-03
    42   -1.905765419144e-01
    43   -1.103792873161e-02
    44    1.119791948480e-01
    45   -1.246559956051e+00
    46   -1.766389788894e-01
    47    1.795471163080e-02
    48   -7.536051103478e-03
Sym=X
Ene= 0.973940
Spin=Alpha
Occup=0
     1   -7.448818784559e-02
     2    9.177822518111e-01
     3   -9.351540955689e-02
     4   -1.010160764949e-01
     5   -1.049882157577e-02
     6    2.507862717712e-02
     7    3.121331483303e-01
     8    4.097718275836e-01
     9    4.685857448045e-01
    10   -4.739812266800e-01
    11   -5.877721780185e-03
    12   -1.436786543726e+00
    13    1.493087842551e+00
    14    2.041133968182e-02
    15   -5.183984445152e-02
    16   -1.336076064848e-02
    17   -1.009250224239e-02
    18    1.339741315900e-02
    19   -3.047300891572e-01
    20   -5.849652469562e-02
    21    9.905779402850e-01
    22    9.763051902408e-02
    23    1.051828914409e-01
    24    1.090900681032e-02
    25   -2.373063439039e-02
    26   -1.963387645887e-01
    27   -6.016860336970e-01
    28    4.885857754718e-01
    29   -4.285914568030e-01
    30   -1.927716028351e-03
    31   -1.560783141302e+00
    32    1.327570408965e+00
    33    3.828628327196e-03
    34    4.503952891043e-02
    35    1.349660460763e-02
    36    9.262721221824e-03
    37   -1.723912464511e-03
    38    2.880665969214e-01
    39    6.641161698531e-02
    40   -8.137032209892e-01
    41    9.430091736020e-02
    42    8.124591700742e-02
    43    9.346572391416e-03
    44    6.848964396954e-02
    45   -9.719266815077e-01
    46   -9.887192482211e-02
    47   -9.309224069589e-02
    48   -1.040212417625e-02
[5D]

======= END OF MOLDEN-FORMATTED INPUT FILE =======


        *************************************************************
        *                                                           *
        *  Thank you very much for using Q-Chem.  Have a nice day.  *
        *                                                           *
        *************************************************************


