                  Welcome to Q-Chem
     A Quantum Leap Into The Future Of Chemistry


 Q-Chem 5.4 (devel), Q-Chem, Inc., Pleasanton, CA (2021)

 E. Epifanovsky,  A. T. B. Gilbert,  Xintian Feng,  Joonho Lee,  Yuezhi Mao,  
 N. Mardirossian,  P. Pokhilko,  A. White,  M. Wormit,  M. P. Coons,  
 A. L. Dempwolff,  Zhengting Gan,  D. Hait,  P. R. Horn,  L. D. Jacobson,  
 I. Kaliman,  J. Kussmann,  A. W. Lange,  Ka Un Lao,  D. S. Levine,  Jie Liu,  
 S. C. McKenzie,  A. F. Morrison,  K. Nanda,  F. Plasser,  D. R. Rehn,  
 M. L. Vidal,  Zhi-Qiang You,  Ying Zhu,  B. Alam,  B. Albrecht,  
 A. Aldossary,  E. Alguire,  J. H. Andersen,  D. Barton,  K. Begam,  A. Behn,  
 Y. A. Bernard,  E. J. Berquist,  H. Burton,  A. Carreras,  K. Carter-Fenk,  
 R. Chakraborty,  A. D. Chien,  K. D. Closser,  V. Cofer-Shabica,  
 S. Dasgupta,  Jia Deng,  M. de Wergifosse,  M. Diedenhofen,  Hainam Do,  
 S. Ehlert,  Po-Tung Fang,  S. Fatehi,  Qingguo Feng,  T. Friedhoff,  
 J. Gayvert,  Qinghui Ge,  G. Gidofalvi,  M. Goldey,  J. Gomes,  
 C. Gonzalez-Espinoza,  S. Gulania,  A. Gunina,  M. W. D. Hanson-Heine,  
 P. H. P. Harbach,  A. W. Hauser,  M. F. Herbst,  M. Hernandez Vera,  
 M. Hodecker,  Z. C. Holden,  S. Houck,  Xunkun Huang,  Kerwin Hui,  
 B. C. Huynh,  M. Ivanov,  Hyunjun Ji,  Hanjie Jiang,  B. Kaduk,  S. Kaehler,  
 K. Khistyaev,  Jaehoon Kim,  P. Klunzinger,  Z. Koczor-Benda,  
 Joong Hoon Koh,  D. Kosenkov,  L. Koulias,  T. Kowalczyk,  C. M. Krauter,  
 K. Kue,  A. Kunitsa,  T. Kus,  A. Landau,  K. V. Lawler,  D. Lefrancois,  
 S. Lehtola,  Rain Li,  Yi-Pei Li,  Jiashu Liang,  M. Liebenthal,  
 Hung-Hsuan Lin,  You-Sheng Lin,  Fenglai Liu,  Kuan-Yu Liu,  
 M. Loipersberger,  A. Luenser,  A. Manjanath,  P. Manohar,  E. Mansoor,  
 S. F. Manzer,  Shan-Ping Mao,  A. V. Marenich,  T. Markovich,  S. Mason,  
 S. A. Maurer,  P. F. McLaughlin,  M. F. S. J. Menger,  J.-M. Mewes,  
 S. A. Mewes,  P. Morgante,  J. W. Mullinax,  K. J. Oosterbaan,  G. Paran,  
 Alexander C. Paul,  Suranjan K. Paul,  F. Pavosevic,  Zheng Pei,  S. Prager,  
 E. I. Proynov,  E. Ramos,  B. Rana,  A. E. Rask,  A. Rettig,  R. M. Richard,  
 F. Rob,  E. Rossomme,  T. Scheele,  M. Scheurer,  M. Schneider,  
 N. Sergueev,  S. M. Sharada,  W. Skomorowski,  D. W. Small,  C. J. Stein,  
 Yu-Chuan Su,  E. J. Sundstrom,  Zhen Tao,  J. Thirman,  T. Tsuchimochi,  
 N. M. Tubman,  S. P. Veccham,  O. Vydrov,  J. Wenzel,  J. Witte,  A. Yamada,  
 Kun Yao,  S. Yeganeh,  S. R. Yost,  A. Zech,  Igor Ying Zhang,  Xing Zhang,  
 Yu Zhang,  D. Zuev,  A. Aspuru-Guzik,  A. T. Bell,  N. A. Besley,  
 K. B. Bravaya,  B. R. Brooks,  D. Casanova,  Jeng-Da Chai,  S. Coriani,  
 C. J. Cramer,  A. E. DePrince, III,  R. A. DiStasio Jr.,  A. Dreuw,  
 B. D. Dunietz,  T. R. Furlani,  W. A. Goddard III,  S. Grimme,  
 S. Hammes-Schiffer,  T. Head-Gordon,  W. J. Hehre,  Chao-Ping Hsu,  
 T.-C. Jagau,  Yousung Jung,  A. Klamt,  Jing Kong,  D. S. Lambrecht,  
 WanZhen Liang,  N. J. Mayhall,  C. W. McCurdy,  J. B. Neaton,  
 C. Ochsenfeld,  J. A. Parkhill,  R. Peverati,  V. A. Rassolov,  Yihan Shao,  
 L. V. Slipchenko,  T. Stauch,  R. P. Steele,  J. E. Subotnik,  
 A. J. W. Thom,  A. Tkatchenko,  D. G. Truhlar,  T. Van Voorhis,  
 T. A. Wesolowski,  K. B. Whaley,  H. L. Woodcock III,  P. M. Zimmerman,  
 S. Faraji,  P. M. W. Gill,  M. Head-Gordon,  J. M. Herbert,  A. I. Krylov

 Additional authors for Version 5.4.1: 
 S. Kotaru,  Shaozhi Li,  Xiangyuan Li,  F. Matz,  A. Molle,  Haisheng Ren,  
 Yingli Su,  Hung-Yi Tsai,  C. Utku,  Fang Wang

 Contributors to earlier versions of Q-Chem not listed above: 
 R. D. Adamson,  B. Austin,  R. Baer,  J. Baker,  G. J. O. Beran,  
 K. Brandhorst,  S. T. Brown,  E. F. C. Byrd,  A. K. Chakraborty,  
 G. K. L. Chan,  Chun-Min Chang,  Yunqing Chen,  C.-L. Cheng,  
 Siu Hung Chien,  D. M. Chipman,  D. L. Crittenden,  H. Dachsel,  
 R. J. Doerksen,  A. D. Dutoi,  R. G. Edgar,  J. Fosso-Tande,  
 L. Fusti-Molnar,  D. Ghosh,  A. Ghysels,  A. Golubeva-Zadorozhnaya,  
 J. Gonthier,  M. S. Gordon,  S. R. Gwaltney,  G. Hawkins,  J. E. Herr,  
 A. Heyden,  S. Hirata,  E. G. Hohenstein,  G. Kedziora,  F. J. Keil,  
 C. Kelley,  Jihan Kim,  R. A. King,  R. Z. Khaliullin,  P. P. Korambath,  
 W. Kurlancheek,  A. Laurent,  A. M. Lee,  M. S. Lee,  S. V. Levchenko,  
 Ching Yeh Lin,  D. Liotard,  E. Livshits,  R. C. Lochan,  I. Lotan,  
 L. A. Martinez-Martinez,  P. E. Maslen,  N. Nair,  D. P. O'Neill,  
 D. Neuhauser,  E. Neuscamman,  C. M. Oana,  R. Olivares-Amaya,  R. Olson,  
 T. M. Perrine,  B. Peters,  P. A. Pieniazek,  A. Prociuk,  Y. M. Rhee,  
 J. Ritchie,  M. A. Rohrdanz,  E. Rosta,  N. J. Russ,  H. F. Schaefer III,  
 M. W. Schmidt,  N. E. Schultz,  S. Sharma,  N. Shenvi,  C. D. Sherrill,  
 A. C. Simmonett,  A. Sodt,  T. Stein,  D. Stuck,  K. S. Thanthiriwatte,  
 V. Vanovschi,  L. Vogt,  Tao Wang,  A. Warshel,  M. A. Watson,  
 C. F. Williams,  Q. Wu,  X. Xu,  Jun Yang,  W. Zhang,  Yan Zhao

 Please cite Q-Chem as follows:
 Y. Shao et al., Mol. Phys. 113, 184-215 (2015)
 DOI: 10.1080/00268976.2014.952696

 Q-Chem 5.4.1 for Intel X86 EM64T Linux

 Parts of Q-Chem use Armadillo 9.800.1 (Horizon Scraper).
 http://arma.sourceforge.net/

 Q-Chem begins on Wed Mar 15 18:00:33 2023  

 Host: cpu121.yggdrasil
0

     Scratch files written to /srv/beegfs/scratch/users/f/fum/qchem96916//
 Processing $rem in /home/share/wesolowski/qc5.aug2021.FDE/config/preferences:
 Processing $rem in /home/fum/.qchemrc:

 Checking the input file for inconsistencies... 	...done.

--------------------------------------------------------------
User input:
--------------------------------------------------------------
$comment
generated from CCJob.Templates
$end

$rem
sym_ignore = true
method = adc(2)
ee_states = 10
basis = cc-pVDZ
mem_static = 1024
mem_total = 40000
adc_davidson_maxiter = 900
adc_davidson_conv = 6
adc_print = 3
adc_prop_es = true
adc_prop_es2es = true
adc_prop_tpa = true
molden_format = True
state_analysis = true
print_orbitals = 15
gen_scfman = false
fde_export_density = true
fde_details = 3
$end

$molecule
0 1
H -0.0348278765 -0.2442097827 0.0636489606
C -1.0765972949 -0.5242748755 -0.0023551776
H -1.313264467 -1.5767591607 -0.0757276926
C -2.043634118 0.3926884087 0.0061254933
H -1.8137616575 1.4459188338 0.0804456828
H -3.045977293 0.114931858 -0.0593381042                     
$end
--------------------------------------------------------------
 ----------------------------------------------------------------
             Standard Nuclear Orientation (Angstroms)
    I     Atom           X                Y                Z
 ----------------------------------------------------------------
    1      H      -0.0348278765    -0.2442097827     0.0636489606
    2      C      -1.0765972949    -0.5242748755    -0.0023551776
    3      H      -1.3132644670    -1.5767591607    -0.0757276926
    4      C      -2.0436341180     0.3926884087     0.0061254933
    5      H      -1.8137616575     1.4459188338     0.0804456828
    6      H      -3.0459772930     0.1149318580    -0.0593381042
 ----------------------------------------------------------------
 Nuclear Repulsion Energy =          33.56904755 hartrees
 There are        8 alpha and        8 beta electrons
 Requested basis set is cc-pVDZ
 There are 24 shells and 48 basis functions
 Total memory of 40000 MB is distributed as follows: 
   MEM_STATIC is set to 1024 MB
   QALLOC/CCMAN JOB total memory use is  38976 MB
 Warning: actual memory use might exceed 40000 MB

 Total QAlloc Memory Limit  40000 MB
 Mega-Array Size      1001 MB
 MEM_STATIC part      1024 MB

                       Distance Matrix (Angstroms)
             H (  1)   C (  2)   H (  3)   C (  4)   H (  5)
   C (  2)  1.080776
   H (  3)  1.851895  1.081258
   C (  4)  2.108139  1.332687  2.102109
   H (  5)  2.453859  2.105215  3.067812  1.080583
   H (  6)  3.034984  2.071301  2.421648  1.042174  1.819181

 A cutoff of  1.0D-11 yielded    300 shell pairs
 There are      1220 function pairs (      1329 Cartesian)
 Smallest overlap matrix eigenvalue = 4.81E-03

 Scale SEOQF with 1.000000e-01/1.000000e-01/1.000000e+00

 Standard Electronic Orientation quadrupole field applied
 Nucleus-field energy     =     0.0000000021 hartrees
 Guess from superposition of atomic densities
 Warning:  Energy on first SCF cycle will be non-variational
 SAD guess density has 16.000000 electrons
 A restricted Hartree-Fock SCF calculation will be
 performed using Pulay DIIS extrapolation
 SCF converges when DIIS error is below 1.0E-08
 using 10 threads for integral computing
 -------------------------------------------------------
 OpenMP Integral computing Module                
 Release: version 1.0, May 2013, Q-Chem Inc. Pittsburgh 
 -------------------------------------------------------
 ---------------------------------------
  Cycle       Energy         DIIS Error
 ---------------------------------------
    1     -78.4667616900      1.02E-01
    2     -78.0161901186      7.27E-03
    3     -78.0369813068      1.87E-03
    4     -78.0384771701      5.90E-04
    5     -78.0386058647      6.95E-05
    6     -78.0386080364      2.26E-05
    7     -78.0386082526      6.72E-06
    8     -78.0386082728      1.50E-06
    9     -78.0386082749      4.82E-07
   10     -78.0386082751      8.99E-08
   11     -78.0386082751      6.21E-09 Convergence criterion met
 ---------------------------------------
 SCF time:  CPU 2.05 s  wall 4.68 s
 SCF   energy in the final basis set = -78.03860828
 Total energy in the final basis set = -78.03860828
Exporting Density Matrix to file 'Densmat_SCF.txt'.
Export successful
================================================================================
|                                                                              |
|                                 A D C  M A N                                 |
|                                                                              |
 ------------------------------------------------------------------------------ 
|                                                                              |
| Components:                                                                  |
|                                                                              |
| - libvmm - 1.3-trunk                                                         |
|   Authors:                                                                   |
|   Evgeny Epifanovsky, Ilya Kaliman                                           |
|                                                                              |
| - libtensor - 2.5-trunk                                                      |
|   Authors:                                                                   |
|   Evgeny Epifanovsky, Michael Wormit, Dmitry Zuev, Sam Manzer,               |
|   Ilya Kaliman                                                               |
|                                                                              |
| - libwfa - 1.1-trunk                                                         |
|   Authors:                                                                   |
|   Felix Plasser, Stefanie Mewes (Baeppler), Benjamin Thomitzni,              |
|   Michael Wormit, Feng Chen, Anna I. Krylov, Pavel Pokhilko                  |
|                                                                              |
| - libadc - 1.1-trunk                                                         |
|   Authors:                                                                   |
|   Michael Wormit, Adrian L. Dempwolff, Philipp H. P. Harbach,                |
|   Caroline Krauter, Dirk Rehn, Matthias Schneider, Jan Wenzel                |
|                                                                              |
| - adcman - 2.6-trunk                                                         |
|   Authors:                                                                   |
|   Michael Wormit, Adrian L. Dempwolff, Philipp H. P. Harbach,                |
|   Caroline Krauter, Daniel Lefrancois, Jan-Michael Mewes, Dirk Rehn,         |
|   Matthias Schneider, Jan Wenzel, Andreas Dreuw                              |
|                                                                              |
| Authors of earlier versions of ADCMAN:                                       |
| Andreas Dreuw, Jan Hendrik Starcke, Dirk Rehn, Michael Wormit                |
|                                                                              |
================================================================================

 Created directory /srv/beegfs/scratch/users/f/fum/qchem96916/plots
  Import QC data ...  CPU 0.00 s  wall 0.01 s

 Alpha MOs, Restricted
 -- Occupied --                  
-11.234 -11.230  -1.034  -0.793  -0.645  -0.583  -0.508  -0.374
  1 A     2 A     3 A     4 A     5 A     6 A     7 A     8 A                  
 -- Virtual --                   
  0.168   0.204   0.234   0.241   0.303   0.462   0.577   0.618
  9 A    10 A    11 A    12 A    13 A    14 A    15 A    16 A                  
  0.689   0.713   0.790   0.808   0.865   0.941   0.974   1.013
 17 A    18 A    19 A    20 A    21 A    22 A    23 A    24 A                  
  1.131   1.233   1.259   1.267   1.296   1.607   1.729   1.760
 25 A    26 A    27 A    28 A    29 A    30 A    31 A    32 A                  
  1.825   1.861   1.875   1.933   1.978   1.991   2.223   2.263
 33 A    34 A    35 A    36 A    37 A    38 A    39 A    40 A                  
  2.389   2.473   2.518   2.646   2.746   2.851   3.170   3.427
 41 A    42 A    43 A    44 A    45 A    46 A    47 A    48 A                  

 Beta MOs, Restricted
 -- Occupied --                  
-11.234 -11.230  -1.034  -0.793  -0.645  -0.583  -0.508  -0.374
  1 A     2 A     3 A     4 A     5 A     6 A     7 A     8 A                  
 -- Virtual --                   
  0.168   0.204   0.234   0.241   0.303   0.462   0.577   0.618
  9 A    10 A    11 A    12 A    13 A    14 A    15 A    16 A                  
  0.689   0.713   0.790   0.808   0.865   0.941   0.974   1.013
 17 A    18 A    19 A    20 A    21 A    22 A    23 A    24 A                  
  1.131   1.233   1.259   1.267   1.296   1.607   1.729   1.760
 25 A    26 A    27 A    28 A    29 A    30 A    31 A    32 A                  
  1.825   1.861   1.875   1.933   1.978   1.991   2.223   2.263
 33 A    34 A    35 A    36 A    37 A    38 A    39 A    40 A                  
  2.389   2.473   2.518   2.646   2.746   2.851   3.170   3.427
 41 A    42 A    43 A    44 A    45 A    46 A    47 A    48 A                  
  Import AO data ...  CPU 0.00 s  wall 0.04 s
  Using point group: C1
  Irreducible representations in point group: A
  Molecular orbitals: 
  Occupied MOs:
  Block   0:   1 (  A) A   2 (  A) A   3 (  A) A   4 (  A) A   5 (  A) A
                  -11.23      -11.23      -1.034     -0.7935     -0.6448
               6 (  A) A   7 (  A) A   8 (  A) A
                 -0.5825     -0.5077     -0.3737
  Block   1:   1 (  A) B   2 (  A) B   3 (  A) B   4 (  A) B   5 (  A) B
                  -11.23      -11.23      -1.034     -0.7935     -0.6448
               6 (  A) B   7 (  A) B   8 (  A) B
                 -0.5825     -0.5077     -0.3737
  Virtual MOs:
  Block   0:   9 (  A) A  10 (  A) A  11 (  A) A  12 (  A) A  13 (  A) A
                  0.1685      0.2044      0.2342      0.2412      0.3034
              14 (  A) A  15 (  A) A  16 (  A) A  17 (  A) A  18 (  A) A
                  0.4623      0.5767      0.6179      0.6895      0.7125
              19 (  A) A  20 (  A) A  21 (  A) A  22 (  A) A
                  0.7902      0.8082      0.8651      0.9412
  Block   1:  23 (  A) A  24 (  A) A  25 (  A) A  26 (  A) A  27 (  A) A
                  0.9742       1.013       1.131       1.233       1.259
              28 (  A) A  29 (  A) A  30 (  A) A  31 (  A) A  32 (  A) A
                   1.267       1.296       1.607       1.729        1.76
              33 (  A) A  34 (  A) A  35 (  A) A  36 (  A) A
                   1.825       1.861       1.875       1.933
  Block   2:  37 (  A) A  38 (  A) A  39 (  A) A  40 (  A) A  41 (  A) A
                   1.978       1.991       2.223       2.263       2.389
              42 (  A) A  43 (  A) A  44 (  A) A  45 (  A) A  46 (  A) A
                   2.473       2.518       2.646       2.746       2.851
              47 (  A) A  48 (  A) A
                    3.17       3.427
  Block   3:   9 (  A) B  10 (  A) B  11 (  A) B  12 (  A) B  13 (  A) B
                  0.1685      0.2044      0.2342      0.2412      0.3034
              14 (  A) B  15 (  A) B  16 (  A) B  17 (  A) B  18 (  A) B
                  0.4623      0.5767      0.6179      0.6895      0.7125
              19 (  A) B  20 (  A) B  21 (  A) B  22 (  A) B
                  0.7902      0.8082      0.8651      0.9412
  Block   4:  23 (  A) B  24 (  A) B  25 (  A) B  26 (  A) B  27 (  A) B
                  0.9742       1.013       1.131       1.233       1.259
              28 (  A) B  29 (  A) B  30 (  A) B  31 (  A) B  32 (  A) B
                   1.267       1.296       1.607       1.729        1.76
              33 (  A) B  34 (  A) B  35 (  A) B  36 (  A) B
                   1.825       1.861       1.875       1.933
  Block   5:  37 (  A) B  38 (  A) B  39 (  A) B  40 (  A) B  41 (  A) B
                   1.978       1.991       2.223       2.263       2.389
              42 (  A) B  43 (  A) B  44 (  A) B  45 (  A) B  46 (  A) B
                   2.473       2.518       2.646       2.746       2.851
              47 (  A) B  48 (  A) B
                    3.17       3.427
  Import MO data ...  CPU 0.01 s  wall 0.01 s
  Import HF data ...  CPU 0.07 s  wall 0.03 s
  Import 2e integrals ...  CPU 0.86 s  wall 0.15 s

--------------------------------------------------------------------------------
                                   HF Summary                                   
--------------------------------------------------------------------------------
  Energy:                                                  -78.0386082751 a.u.
  Dip. moment [a.u.]:                  [  -0.006632,   -0.000661,   -0.000432]
  Total dipole [Debye]:                                               0.016976
  <r^2> [a.u.]:                        [ 174.410001,   34.900661,   11.589752]
  Total <r^2> [a.u.]:                                               220.900415
--------------------------------------------------------------------------------
  HF properties ...  CPU 0.01 s  wall 0.00 s
  MP(1) calculation ...  CPU 0.01 s  wall 0.00 s
  N^6 prerequesite intermediates ...  CPU 0.42 s  wall 0.06 s
  Difference density matrix of state mp2_gs printed to ASCII file 'State_mp2_gs_Difference.txt'
Exporting MP density matrix to file 'Densmat_MP.txt'.
Export successful
  Total density matrix of state mp2_gs printed to ASCII file 'State_mp2_gs_Total.txt'
Exporting MP density matrix to file 'Densmat_MP.txt'.
Export successful

--------------------------------------------------------------------------------
                                 MP(2) Summary                                  
--------------------------------------------------------------------------------
  MP energy contribution:                                   -0.2791669256 a.u.
  Total energy:                                            -78.3177752007 a.u.
  Dip. moment [a.u.]:                  [  -0.006120,   -0.000233,   -0.000381]
  Total dipole [Debye]:                                               0.015596
  <r^2> [a.u.]:                        [ 174.465000,   34.942901,   11.424172]
  Total <r^2> [a.u.]:                                               220.832073

  Density matrix analysis:
  ------------------------
  NOs
    Occupation of frontier NOs:
       0.0453   1.9384
    Number of electrons: 16.000000
    Number of unpaired electrons: n_u =  0.40092, n_u,nl =  0.04464
    NO participation ratio (PR_NO): 13.821657
  
  
  Mulliken Population Analysis
  Atom      Charge (e)              h+              e-           Del q
  --------------------------------------------------------------------
   1 H        0.050213        0.014019       -0.011189        0.002830
   2 C       -0.107036        0.093570       -0.098920       -0.005350
   3 H        0.049979        0.014058       -0.011165        0.002892
   4 C       -0.081183        0.090596       -0.097754       -0.007158
   5 H        0.049100        0.014161       -0.011078        0.003083
   6 H        0.038928        0.014712       -0.011009        0.003703
  --------------------------------------------------------------------
  Sum:       -0.000000        0.241117       -0.241117        0.000000
  
  Multipole moment analysis of the density matrix
    Molecular charge:                      -0.000000
    Number of electrons:                   16.000000
      Center of electronic charge [Ang]: [ -1.557874,  -0.065595,   0.001991]
    Total nuclear charge:                  16.000000
      Center of nuclear charge [Ang]:    [ -1.558076,  -0.065602,   0.001978]
    Dipole moment [D]:                     0.015596
      Cartesian components [D]:          [ -0.015555,  -0.000592,  -0.000968]
    RMS size of the density [Ang]:         1.197363
      Cartesian components [Ang]:        [  0.791503,   0.779269,   0.447146]
  
  Exciton analysis of the difference density matrix
    <r_h> [Ang]:                  [ -1.552545,  -0.067324,   0.002155]
    <r_e> [Ang]:                  [ -1.553669,  -0.068264,   0.002043]
    |<r_e - r_h>| [Ang]:            0.001469
    Hole size [Ang]:                1.388952
      Cartesian components [Ang]: [  0.838976,   0.834310,   0.727484]
    Electron size [Ang]:            1.358748
      Cartesian components [Ang]: [  0.874222,   0.863135,   0.580458]
--------------------------------------------------------------------------------
  MP(2) calculation ...  CPU 0.23 s  wall 0.15 s
  Start ADC(2)-s ...  CPU 0.01 s  wall 0.00 s
  ADC(2) intermediates ...  CPU 0.02 s  wall 0.01 s
  Starting Davidson for singlet states of irrep A ... 
--------------------------------------------------------------------------------
   It NVec Conv  Avg. Norm  Max. Norm  Conv. states           Remark
--------------------------------------------------------------------------------
        10    0  1.330e-01  4.690e-01  0.4122 n n n n n n n n Guess.
    1   20    0  2.358e-02  1.108e-01  0.3262 n n n n n n n n 
    2   30    0  6.324e-03  3.531e-02  0.3214 n n n n n n n n 
    3   40    0  2.246e-03  1.691e-02  0.3210 n n n n n n n n 
    4   50    0  7.112e-04  5.697e-03  0.3210 n n n n n n n n 
    5   20    0  3.440e-04  2.768e-03  0.3210 n n n n n n n n Subspace collapsed.
    6   30    0  3.579e-04  3.462e-03  0.3210 n n n n n n n n 
    7   40    0  2.975e-04  2.935e-03  0.3210 n n n n n n n n 
    8   50    0  2.234e-04  2.190e-03  0.3210 n n n n n n n n 
    9   20    2  2.245e-04  2.203e-03  0.3210 n y n y n n n n Subspace collapsed.
   10   30    3  2.390e-04  2.379e-03  0.3210 n y y y n n n n 
   11   40    5  1.798e-04  1.794e-03  0.3210 n y y y y y n n 
   12   50    5  2.086e-04  2.085e-03  0.3210 n y y y y y n n 
   13   20    7  1.284e-04  1.284e-03  0.3210 y y y y y y n y Subspace collapsed.
   14   30    7  1.196e-04  1.196e-03  0.3210 y y y y y y n y 
   15   40    8  1.201e-04  1.201e-03  0.3210 y y y y y y n y 
   16   50    8  9.299e-05  9.298e-04  0.3210 y y y y y y n y 
   17   20    8  7.623e-05  7.622e-04  0.3210 y y y y y y n y Subspace collapsed.
   18   30    8  6.218e-05  6.218e-04  0.3210 y y y y y y n y 
   19   40    8  7.115e-05  7.115e-04  0.3210 y y y y y y n y 
   20   50    8  7.551e-05  7.551e-04  0.3210 y y y y y y n y 
   21   20    9  3.784e-05  3.784e-04  0.3210 y y y y y y y y Subspace collapsed.
   22   21    9  3.784e-05  3.784e-04  0.3210 y y y y y y y y 
   23   22    9  3.785e-05  3.785e-04  0.3210 y y y y y y y y 
   24   23    9  3.783e-05  3.783e-04  0.3210 y y y y y y y y 
   25   32    9  2.668e-05  2.668e-04  0.3210 y y y y y y y y 
   26   41    9  2.331e-05  2.331e-04  0.3210 y y y y y y y y 
   27   48    9  2.097e-05  2.097e-04  0.3210 y y y y y y y y 
   28   50    9  2.006e-05  2.006e-04  0.3210 y y y y y y y y 
   29   16    9  1.484e-05  1.484e-04  0.3210 y y y y y y y y Subspace collapsed.
   30   21    9  1.582e-05  1.582e-04  0.3210 y y y y y y y y 
   31   26    9  1.693e-05  1.693e-04  0.3210 y y y y y y y y 
   32   30    9  1.445e-05  1.445e-04  0.3210 y y y y y y y y 
   33   34    9  1.348e-05  1.348e-04  0.3210 y y y y y y y y 
   34   38    9  6.956e-06  6.956e-05  0.3210 y y y y y y y y 
   35   42    9  3.723e-06  3.723e-05  0.3210 y y y y y y y y 
   36   46    9  1.434e-06  1.434e-05  0.3210 y y y y y y y y 
   37   50    9  6.715e-07  6.715e-06  0.3210 y y y y y y y y 
   38   14    9  3.414e-07  3.414e-06  0.3210 y y y y y y y y Subspace collapsed.
   39   18    9  2.876e-07  2.876e-06  0.3210 y y y y y y y y 
   40   22    9  1.574e-07  1.574e-06  0.3210 y y y y y y y y 
   41   26   10  9.262e-08  9.262e-07  0.3210 y y y y y y y y Converged.
--------------------------------------------------------------------------------
  Davidson Summary: 
 ------------------------------------------------------------
  State  0: excitation energy =   0.3210 a.u.   (converged)
  State  1: excitation energy =   0.3348 a.u.   (converged)
  State  2: excitation energy =   0.3380 a.u.   (converged)
  State  3: excitation energy =   0.3635 a.u.   (converged)
  State  4: excitation energy =   0.3765 a.u.   (converged)
  State  5: excitation energy =   0.3881 a.u.   (converged)
  State  6: excitation energy =   0.4278 a.u.   (converged)
  State  7: excitation energy =   0.4488 a.u.   (converged)
  State  8: excitation energy =   0.4580 a.u.   (converged)
  State  9: excitation energy =   0.4684 a.u.   (converged)
 ------------------------------------------------------------

  Singlet states of irrep A ...  CPU 110.33 s  wall 28.00 s
  TDMs ...  CPU 0.58 s  wall 0.23 s
  SDMs ...  CPU 1.35 s  wall 0.44 s
  Starting TPA DIIS iterations ... 
------------------------------------ 
   It     Res. Norm  Remark
------------------------------------
                       Guess.
    1     4.426e+00  
    2     5.864e+00  
    3     1.067e+00  
    4     2.474e-01  
    5     6.493e-02  
    6     2.520e-02  
    7     8.015e-03  
    8     1.299e-03  
    9     4.762e-04  
   10     8.326e-05  
   11     2.464e-05  
   12     4.260e-06  
   13     1.298e-06  
   14     5.268e-07  Converged.
   ... Converged in 14 steps (norm: 5.26828e-07)
------------------------------------
  Starting TPA DIIS iterations ... 
------------------------------------ 
   It     Res. Norm  Remark
------------------------------------
                       Guess.
    1     4.185e+00  
    2     5.547e+00  
    3     1.032e+00  
    4     2.574e-01  
    5     6.603e-02  
    6     2.710e-02  
    7     8.078e-03  
    8     1.469e-03  
    9     5.366e-04  
   10     8.847e-05  
   11     2.815e-05  
   12     4.384e-06  
   13     1.476e-06  
   14     5.336e-07  Converged.
   ... Converged in 14 steps (norm: 5.33558e-07)
------------------------------------
  Starting TPA DIIS iterations ... 
------------------------------------ 
   It     Res. Norm  Remark
------------------------------------
                       Guess.
    1     6.886e-01  
    2     4.863e-01  
    3     1.722e-01  
    4     6.175e-02  
    5     1.798e-02  
    6     6.573e-03  
    7     1.089e-03  
    8     4.113e-04  
    9     1.589e-04  
   10     2.689e-05  
   11     1.788e-05  
   12     6.976e-06  
   13     3.742e-06  
   14     1.579e-06  
   15     4.382e-07  Converged.
   ... Converged in 15 steps (norm: 4.38249e-07)
------------------------------------
  Starting TPA DIIS iterations ... 
------------------------------------ 
   It     Res. Norm  Remark
------------------------------------
                       Guess.
    1     4.770e+00  
    2     6.483e+00  
    3     1.163e+00  
    4     2.802e-01  
    5     7.475e-02  
    6     2.926e-02  
    7     9.291e-03  
    8     1.500e-03  
    9     5.554e-04  
   10     9.787e-05  
   11     2.935e-05  
   12     5.168e-06  
   13     1.584e-06  
   14     6.685e-07  Converged.
   ... Converged in 14 steps (norm: 6.68464e-07)
------------------------------------
  Starting TPA DIIS iterations ... 
------------------------------------ 
   It     Res. Norm  Remark
------------------------------------
                       Guess.
    1     4.510e+00  
    2     6.133e+00  
    3     1.125e+00  
    4     2.915e-01  
    5     7.603e-02  
    6     3.153e-02  
    7     9.371e-03  
    8     1.703e-03  
    9     6.269e-04  
   10     1.040e-04  
   11     3.347e-05  
   12     5.282e-06  
   13     1.807e-06  
   14     6.701e-07  Converged.
   ... Converged in 14 steps (norm: 6.70124e-07)
------------------------------------
  Starting TPA DIIS iterations ... 
------------------------------------ 
   It     Res. Norm  Remark
------------------------------------
                       Guess.
    1     7.028e-01  
    2     5.073e-01  
    3     1.842e-01  
    4     7.155e-02  
    5     1.963e-02  
    6     7.310e-03  
    7     1.259e-03  
    8     4.809e-04  
    9     1.881e-04  
   10     3.441e-05  
   11     2.188e-05  
   12     8.679e-06  
   13     4.850e-06  
   14     2.121e-06  
   15     5.568e-07  Converged.
   ... Converged in 15 steps (norm: 5.56826e-07)
------------------------------------
  Starting TPA DIIS iterations ... 
------------------------------------ 
   It     Res. Norm  Remark
------------------------------------
                       Guess.
    1     4.857e+00  
    2     6.641e+00  
    3     1.187e+00  
    4     2.887e-01  
    5     7.728e-02  
    6     3.031e-02  
    7     9.620e-03  
    8     1.552e-03  
    9     5.759e-04  
   10     1.017e-04  
   11     3.058e-05  
   12     5.409e-06  
   13     1.660e-06  
   14     7.075e-07  Converged.
   ... Converged in 14 steps (norm: 7.07538e-07)
------------------------------------
  Starting TPA DIIS iterations ... 
------------------------------------ 
   It     Res. Norm  Remark
------------------------------------
                       Guess.
    1     4.591e+00  
    2     6.281e+00  
    3     1.148e+00  
    4     3.003e-01  
    5     7.861e-02  
    6     3.269e-02  
    7     9.705e-03  
    8     1.763e-03  
    9     6.503e-04  
   10     1.080e-04  
   11     3.487e-05  
   12     5.519e-06  
   13     1.896e-06  
   14     7.075e-07  Converged.
   ... Converged in 14 steps (norm: 7.07478e-07)
------------------------------------
  Starting TPA DIIS iterations ... 
------------------------------------ 
   It     Res. Norm  Remark
------------------------------------
                       Guess.
    1     7.062e-01  
    2     5.124e-01  
    3     1.871e-01  
    4     7.412e-02  
    5     2.004e-02  
    6     7.499e-03  
    7     1.304e-03  
    8     4.987e-04  
    9     1.957e-04  
   10     3.652e-05  
   11     2.295e-05  
   12     9.146e-06  
   13     5.161e-06  
   14     2.274e-06  
   15     5.871e-07  Converged.
   ... Converged in 15 steps (norm: 5.87118e-07)
------------------------------------
  Starting TPA DIIS iterations ... 
------------------------------------ 
   It     Res. Norm  Remark
------------------------------------
                       Guess.
    1     5.651e+00  
    2     8.124e+00  
    3     1.407e+00  
    4     3.710e-01  
    5     1.019e-01  
    6     4.063e-02  
    7     1.283e-02  
    8     2.054e-03  
    9     7.774e-04  
   10     1.391e-04  
   11     4.307e-05  
   12     7.901e-06  
   13     2.467e-06  
   14     1.143e-06  
   15     3.356e-07  Converged.
   ... Converged in 15 steps (norm: 3.35569e-07)
------------------------------------
  Starting TPA DIIS iterations ... 
------------------------------------ 
   It     Res. Norm  Remark
------------------------------------
                       Guess.
    1     5.339e+00  
    2     7.683e+00  
    3     1.359e+00  
    4     3.857e-01  
    5     1.037e-01  
    6     4.402e-02  
    7     1.296e-02  
    8     2.350e-03  
    9     8.802e-04  
   10     1.477e-04  
   11     4.881e-05  
   12     7.921e-06  
   13     2.830e-06  
   14     1.116e-06  
   15     4.255e-07  Converged.
   ... Converged in 15 steps (norm: 4.25512e-07)
------------------------------------
  Starting TPA DIIS iterations ... 
------------------------------------ 
   It     Res. Norm  Remark
------------------------------------
                       Guess.
    1     7.347e-01  
    2     5.570e-01  
    3     2.136e-01  
    4     9.991e-02  
    5     2.382e-02  
    6     9.347e-03  
    7     1.750e-03  
    8     6.640e-04  
    9     2.689e-04  
   10     5.973e-05  
   11     3.415e-05  
   12     1.427e-05  
   13     8.736e-06  
   14     3.979e-06  
   15     8.907e-07  Converged.
   ... Converged in 15 steps (norm: 8.90726e-07)
------------------------------------
  Starting TPA DIIS iterations ... 
------------------------------------ 
   It     Res. Norm  Remark
------------------------------------
                       Guess.
    1     6.139e+00  
    2     9.068e+00  
    3     1.541e+00  
    4     4.253e-01  
    5     1.182e-01  
    6     4.752e-02  
    7     1.494e-02  
    8     2.383e-03  
    9     9.119e-04  
   10     1.642e-04  
   11     5.167e-05  
   12     9.672e-06  
   13     3.055e-06  
   14     1.487e-06  
   15     4.462e-07  Converged.
   ... Converged in 15 steps (norm: 4.46207e-07)
------------------------------------
  Starting TPA DIIS iterations ... 
------------------------------------ 
   It     Res. Norm  Remark
------------------------------------
                       Guess.
    1     5.799e+00  
    2     8.575e+00  
    3     1.487e+00  
    4     4.421e-01  
    5     1.203e-01  
    6     5.161e-02  
    7     1.511e-02  
    8     2.737e-03  
    9     1.033e-03  
   10     1.742e-04  
   11     5.829e-05  
   12     9.584e-06  
   13     3.504e-06  
   14     1.430e-06  
   15     5.493e-07  Converged.
   ... Converged in 15 steps (norm: 5.49272e-07)
------------------------------------
  Starting TPA DIIS iterations ... 
------------------------------------ 
   It     Res. Norm  Remark
------------------------------------
                       Guess.
    1     7.500e-01  
    2     5.826e-01  
    3     2.293e-01  
    4     1.175e-01  
    5     2.619e-02  
    6     1.057e-02  
    7     2.056e-03  
    8     7.617e-04  
    9     3.164e-04  
   10     7.705e-05  
   11     4.225e-05  
   12     1.819e-05  
   13     1.169e-05  
   14     5.276e-06  
   15     1.127e-06  
   16     5.073e-07  Converged.
   ... Converged in 16 steps (norm: 5.07341e-07)
------------------------------------
  Starting TPA DIIS iterations ... 
------------------------------------ 
   It     Res. Norm  Remark
------------------------------------
                       Guess.
    1     6.638e+00  
    2     1.006e+01  
    3     1.677e+00  
    4     4.836e-01  
    5     1.357e-01  
    6     5.497e-02  
    7     1.721e-02  
    8     2.735e-03  
    9     1.057e-03  
   10     1.913e-04  
   11     6.116e-05  
   12     1.167e-05  
   13     3.733e-06  
   14     1.906e-06  
   15     5.872e-07  Converged.
   ... Converged in 15 steps (norm: 5.87154e-07)
------------------------------------
  Starting TPA DIIS iterations ... 
------------------------------------ 
   It     Res. Norm  Remark
------------------------------------
                       Guess.
    1     6.270e+00  
    2     9.511e+00  
    3     1.618e+00  
    4     5.026e-01  
    5     1.382e-01  
    6     5.983e-02  
    7     1.741e-02  
    8     3.151e-03  
    9     1.199e-03  
   10     2.028e-04  
   11     6.861e-05  
   12     1.143e-05  
   13     4.270e-06  
   14     1.806e-06  
   15     6.935e-07  Converged.
   ... Converged in 15 steps (norm: 6.93479e-07)
------------------------------------
  Starting TPA DIIS iterations ... 
------------------------------------ 
   It     Res. Norm  Remark
------------------------------------
                       Guess.
    1     7.644e-01  
    2     6.076e-01  
    3     2.449e-01  
    4     1.368e-01  
    5     2.868e-02  
    6     1.187e-02  
    7     2.393e-03  
    8     8.548e-04  
    9     3.663e-04  
   10     9.677e-05  
   11     5.152e-05  
   12     2.283e-05  
   13     1.540e-05  
   14     6.777e-06  
   15     1.434e-06  
   16     6.406e-07  Converged.
   ... Converged in 16 steps (norm: 6.40586e-07)
------------------------------------
  Starting TPA DIIS iterations ... 
------------------------------------ 
   It     Res. Norm  Remark
------------------------------------
                       Guess.
    1     8.943e+00  
    2     1.490e+01  
    3     2.296e+00  
    4     7.816e-01  
    5     2.252e-01  
    6     9.387e-02  
    7     2.884e-02  
    8     4.519e-03  
    9     1.817e-03  
   10     3.334e-04  
   11     1.119e-04  
   12     2.337e-05  
   13     7.891e-06  
   14     4.914e-06  
   15     1.741e-06  
   16     1.235e-06  
   17     3.284e-07  Converged.
   ... Converged in 17 steps (norm: 3.28369e-07)
------------------------------------
  Starting TPA DIIS iterations ... 
------------------------------------ 
   It     Res. Norm  Remark
------------------------------------
                       Guess.
    1     8.444e+00  
    2     1.409e+01  
    3     2.212e+00  
    4     8.117e-01  
    5     2.296e-01  
    6     1.030e-01  
    7     2.924e-02  
    8     5.267e-03  
    9     2.062e-03  
   10     3.515e-04  
   11     1.218e-04  
   12     2.160e-05  
   13     8.693e-06  
   14     4.333e-06  
   15     1.561e-06  
   16     8.021e-07  Converged.
   ... Converged in 16 steps (norm: 8.02139e-07)
------------------------------------
  Starting TPA DIIS iterations ... 
------------------------------------ 
   It     Res. Norm  Remark
------------------------------------
                       Guess.
    1     8.180e-01  
    2     7.104e-01  
    3     3.129e-01  
    4     2.361e-01  
    5     4.115e-02  
    6     1.837e-02  
    7     4.185e-03  
    8     1.184e-03  
    9     6.076e-04  
   10     2.066e-04  
   11     1.062e-04  
   12     5.180e-05  
   13     4.041e-05  
   14     1.564e-05  
   15     3.968e-06  
   16     1.454e-06  
   17     4.870e-07  Converged.
   ... Converged in 17 steps (norm: 4.86986e-07)
------------------------------------
  Starting TPA DIIS iterations ... 
------------------------------------ 
   It     Res. Norm  Remark
------------------------------------
                       Guess.
    1     1.073e+01  
    2     1.894e+01  
    3     2.762e+00  
    4     1.038e+00  
    5     3.030e-01  
    6     1.284e-01  
    7     3.892e-02  
    8     6.052e-03  
    9     2.492e-03  
   10     4.592e-04  
   11     1.569e-04  
   12     3.533e-05  
   13     1.243e-05  
   14     8.688e-06  
   15     3.408e-06  
   16     2.319e-06  
   17     6.676e-07  Converged.
   ... Converged in 17 steps (norm: 6.6764e-07)
------------------------------------
  Starting TPA DIIS iterations ... 
------------------------------------ 
   It     Res. Norm  Remark
------------------------------------
                       Guess.
    1     1.013e+01  
    2     1.791e+01  
    3     2.658e+00  
    4     1.077e+00  
    5     3.091e-01  
    6     1.414e-01  
    7     3.951e-02  
    8     7.096e-03  
    9     2.823e-03  
   10     4.817e-04  
   11     1.667e-04  
   12     3.142e-05  
   13     1.312e-05  
   14     7.295e-06  
   15     2.450e-06  
   16     1.369e-06  
   17     2.216e-07  Converged.
   ... Converged in 17 steps (norm: 2.21558e-07)
------------------------------------
  Starting TPA DIIS iterations ... 
------------------------------------ 
   It     Res. Norm  Remark
------------------------------------
                       Guess.
    1     8.500e-01  
    2     7.802e-01  
    3     3.614e-01  
    4     3.165e-01  
    5     5.164e-02  
    6     2.349e-02  
    7     5.752e-03  
    8     1.389e-03  
    9     8.031e-04  
   10     3.053e-04  
   11     1.607e-04  
   12     8.094e-05  
   13     6.406e-05  
   14     2.432e-05  
   15     7.242e-06  
   16     2.341e-06  
   17     7.123e-07  Converged.
   ... Converged in 17 steps (norm: 7.12285e-07)
------------------------------------
  Starting TPA DIIS iterations ... 
------------------------------------ 
   It     Res. Norm  Remark
------------------------------------
                       Guess.
    1     1.169e+01  
    2     2.121e+01  
    3     3.010e+00  
    4     1.183e+00  
    5     3.476e-01  
    6     1.484e-01  
    7     4.469e-02  
    8     6.927e-03  
    9     2.884e-03  
   10     5.319e-04  
   11     1.828e-04  
   12     4.291e-05  
   13     1.548e-05  
   14     1.132e-05  
   15     4.649e-06  
   16     3.077e-06  
   17     9.163e-07  Converged.
   ... Converged in 17 steps (norm: 9.16293e-07)
------------------------------------
  Starting TPA DIIS iterations ... 
------------------------------------ 
   It     Res. Norm  Remark
------------------------------------
                       Guess.
    1     1.104e+01  
    2     2.005e+01  
    3     2.895e+00  
    4     1.227e+00  
    5     3.547e-01  
    6     1.637e-01  
    7     4.539e-02  
    8     8.142e-03  
    9     3.263e-03  
   10     5.565e-04  
   11     1.918e-04  
   12     3.752e-05  
   13     1.597e-05  
   14     9.301e-06  
   15     3.030e-06  
   16     1.737e-06  
   17     2.928e-07  Converged.
   ... Converged in 17 steps (norm: 2.92763e-07)
------------------------------------
  Starting TPA DIIS iterations ... 
------------------------------------ 
   It     Res. Norm  Remark
------------------------------------
                       Guess.
    1     8.650e-01  
    2     8.153e-01  
    3     3.864e-01  
    4     3.582e-01  
    5     5.752e-02  
    6     2.615e-02  
    7     6.634e-03  
    8     1.511e-03  
    9     9.115e-04  
   10     3.614e-04  
   11     1.939e-04  
   12     9.851e-05  
   13     7.645e-05  
   14     2.958e-05  
   15     9.475e-06  
   16     2.951e-06  
   17     8.767e-07  Converged.
   ... Converged in 17 steps (norm: 8.767e-07)
------------------------------------
  Starting TPA DIIS iterations ... 
------------------------------------ 
   It     Res. Norm  Remark
------------------------------------
                       Guess.
    1     1.296e+01  
    2     2.429e+01  
    3     3.331e+00  
    4     1.381e+00  
    5     4.088e-01  
    6     1.761e-01  
    7     5.262e-02  
    8     8.124e-03  
    9     3.428e-03  
   10     6.324e-04  
   11     2.183e-04  
   12     5.416e-05  
   13     2.027e-05  
   14     1.543e-05  
   15     6.669e-06  
   16     4.269e-06  
   17     1.300e-06  
   18     6.299e-07  Converged.
   ... Converged in 18 steps (norm: 6.29866e-07)
------------------------------------
  Starting TPA DIIS iterations ... 
------------------------------------ 
   It     Res. Norm  Remark
------------------------------------
                       Guess.
    1     1.224e+01  
    2     2.297e+01  
    3     3.204e+00  
    4     1.430e+00  
    5     4.173e-01  
    6     1.946e-01  
    7     5.347e-02  
    8     9.577e-03  
    9     3.871e-03  
   10     6.594e-04  
   11     2.258e-04  
   12     4.645e-05  
   13     2.030e-05  
   14     1.241e-05  
   15     3.942e-06  
   16     2.284e-06  
   17     4.115e-07  Converged.
   ... Converged in 17 steps (norm: 4.11528e-07)
------------------------------------
  Starting TPA DIIS iterations ... 
------------------------------------ 
   It     Res. Norm  Remark
------------------------------------
                       Guess.
    1     8.829e-01  
    2     8.595e-01  
    3     4.182e-01  
    4     4.098e-01  
    5     6.543e-02  
    6     2.945e-02  
    7     7.818e-03  
    8     1.697e-03  
    9     1.057e-03  
   10     4.374e-04  
   11     2.413e-04  
   12     1.234e-04  
   13     9.115e-05  
   14     3.709e-05  
   15     1.291e-05  
   16     3.953e-06  
   17     1.173e-06  
   18     8.023e-07  Converged.
   ... Converged in 18 steps (norm: 8.02337e-07)
------------------------------------
  Two-photon absorbption ...  CPU 111.33 s  wall 20.43 s
  Transition density matrix of state singlet_A_1 printed to ASCII file 'State_singlet_A_1_Transition.txt'
  Transition density matrix of state singlet_A_2 printed to ASCII file 'State_singlet_A_2_Transition.txt'
  Transition density matrix of state singlet_A_3 printed to ASCII file 'State_singlet_A_3_Transition.txt'
  Transition density matrix of state singlet_A_4 printed to ASCII file 'State_singlet_A_4_Transition.txt'
  Transition density matrix of state singlet_A_5 printed to ASCII file 'State_singlet_A_5_Transition.txt'
  Transition density matrix of state singlet_A_6 printed to ASCII file 'State_singlet_A_6_Transition.txt'
  Transition density matrix of state singlet_A_7 printed to ASCII file 'State_singlet_A_7_Transition.txt'
  Transition density matrix of state singlet_A_8 printed to ASCII file 'State_singlet_A_8_Transition.txt'
  Transition density matrix of state singlet_A_9 printed to ASCII file 'State_singlet_A_9_Transition.txt'
  Transition density matrix of state singlet_A_10 printed to ASCII file 'State_singlet_A_10_Transition.txt'
  Transition properties ...  CPU 0.14 s  wall 0.44 s
  Difference density matrix of state singlet_A_1 printed to ASCII file 'State_singlet_A_1_Difference.txt'
  Total density matrix of state singlet_A_1 printed to ASCII file 'State_singlet_A_1_Total.txt'
  Difference density matrix of state singlet_A_2 printed to ASCII file 'State_singlet_A_2_Difference.txt'
  Total density matrix of state singlet_A_2 printed to ASCII file 'State_singlet_A_2_Total.txt'
  Difference density matrix of state singlet_A_3 printed to ASCII file 'State_singlet_A_3_Difference.txt'
  Total density matrix of state singlet_A_3 printed to ASCII file 'State_singlet_A_3_Total.txt'
  Difference density matrix of state singlet_A_4 printed to ASCII file 'State_singlet_A_4_Difference.txt'
  Total density matrix of state singlet_A_4 printed to ASCII file 'State_singlet_A_4_Total.txt'
  Difference density matrix of state singlet_A_5 printed to ASCII file 'State_singlet_A_5_Difference.txt'
  Total density matrix of state singlet_A_5 printed to ASCII file 'State_singlet_A_5_Total.txt'
  Difference density matrix of state singlet_A_6 printed to ASCII file 'State_singlet_A_6_Difference.txt'
  Total density matrix of state singlet_A_6 printed to ASCII file 'State_singlet_A_6_Total.txt'
  Difference density matrix of state singlet_A_7 printed to ASCII file 'State_singlet_A_7_Difference.txt'
  Total density matrix of state singlet_A_7 printed to ASCII file 'State_singlet_A_7_Total.txt'
  Difference density matrix of state singlet_A_8 printed to ASCII file 'State_singlet_A_8_Difference.txt'
  Total density matrix of state singlet_A_8 printed to ASCII file 'State_singlet_A_8_Total.txt'
  Difference density matrix of state singlet_A_9 printed to ASCII file 'State_singlet_A_9_Difference.txt'
  Total density matrix of state singlet_A_9 printed to ASCII file 'State_singlet_A_9_Total.txt'
  Difference density matrix of state singlet_A_10 printed to ASCII file 'State_singlet_A_10_Difference.txt'
  Total density matrix of state singlet_A_10 printed to ASCII file 'State_singlet_A_10_Total.txt'
  Properties ...  CPU 0.27 s  wall 0.73 s
  ISR TDMS ...  CPU 7.70 s  wall 2.66 s
  ISR transition properties ...  CPU 0.14 s  wall 0.07 s
  Sum-over-states TPA ...  CPU 0.00 s  wall 0.00 s

--------------------------------------------------------------------------------
                   State-averaged natural transition orbitals
--------------------------------------------------------------------------------
--------------------------------------------------------------------------------
  SA-NTO decomposition ...  CPU 0.01 s  wall 0.05 s

--------------------------------------------------------------------------------
                             Excited State Summary
--------------------------------------------------------------------------------
--------------------------------------------------------------------------------

  Excited state 1 (singlet, A)                                     [converged]
  ----------------------------------------------------------------------------
  Term symbol:  2 (1) A                                     R^2 =  3.82593e-13

  Total energy:                                            -77.9967507124 a.u.
  Excitation energy:                                               8.735521 eV

  Osc. strength:                                                      0.444834
  Trans. dip. moment [a.u.]:           [  -1.041033,    0.997327,    0.009742]
  <i|r^2|0> [a.u.]:                    [  -6.107087,    0.241066,    0.002427]
  Two-photon absorption cross-section (SoS) [a.u.]:                   0.036385
  Two-photon absorption matrix (SoS) [a.u.]:
                                       |    0.044444    0.047865    0.007119 |
                                       |    0.047865    0.007149    0.005800 |
                                       |    0.007119    0.005800   -0.048095 |
  Two-photon absorption cross-section [a.u.]:                         0.023169
  Two-photon absorption matrix [a.u.]:
                                       |    0.012216    0.030894    0.000947 |
                                       |    0.030894   -0.003858   -0.001143 |
                                       |    0.000947   -0.001143   -0.052395 |

  Dip. moment [a.u.]:                  [  -0.005642,   -0.000150,   -0.000463]
  Total dipole [Debye]:                                               0.014393
  <r^2> [a.u.]:                        [ 175.227568,   35.632547,   11.833018]
  Total <r^2> [a.u.]:                                               222.693134

  V1^2 = 0.9716, V2^2 = 0.0284

  Important amplitudes:
      occ i     occ j     vir a      vir b          v   
    -----------------------------------------------------
     8 (A) A              9 (A) A                 0.6812
     6 (A) A             14 (A) A                -0.0626
     4 (A) A             10 (A) A                 0.0597
     7 (A) A             16 (A) A                 0.0567
     5 (A) A             13 (A) A                 0.0504
     6 (A) A             23 (A) A                -0.0480
     8 (A) A             20 (A) A                 0.0350
     6 (A) A             19 (A) A                -0.0313
     3 (A) A             12 (A) A                -0.0275
     7 (A) A             11 (A) A                 0.0216
     5 (A) A             22 (A) A                 0.0209
     4 (A) A             24 (A) A                 0.0186
     3 (A) A             26 (A) A                -0.0184
     8 (A) A   8 (A) B   17 (A) A   20 (A) B     -0.0184
     8 (A) A   8 (A) B    9 (A) A   28 (A) B     -0.0168
     6 (A) A             26 (A) A                 0.0164
     7 (A) A             21 (A) A                -0.0144
     3 (A) A             14 (A) A                 0.0137
     3 (A) A   4 (A) B    9 (A) A    9 (A) B     -0.0129
     6 (A) A             12 (A) A                -0.0125
     3 (A) A             19 (A) A                 0.0118
     8 (A) A   8 (A) B   18 (A) A   19 (A) B     -0.0113
     7 (A) A             32 (A) A                -0.0091
     7 (A) A             36 (A) A                 0.0085
     3 (A) A             23 (A) A                 0.0078
     8 (A) A   8 (A) B   25 (A) A   29 (A) B     -0.0077
     6 (A) A             35 (A) A                 0.0073
     6 (A) A             40 (A) A                 0.0068
     3 (A) A   6 (A) B    9 (A) A   28 (A) B      0.0065
     6 (A) A             22 (A) A                 0.0064
     6 (A) A   8 (A) A   19 (A) A   28 (A) A     -0.0061
     5 (A) A   7 (A) B    9 (A) A    9 (A) B      0.0060
     5 (A) A   8 (A) B   16 (A) A    9 (A) B      0.0059
     7 (A) A   8 (A) B   13 (A) A   20 (A) B      0.0059
     5 (A) A   8 (A) B   11 (A) A   20 (A) B      0.0058
     3 (A) A   5 (A) B    9 (A) A   25 (A) B     -0.0058
     3 (A) A             40 (A) A                -0.0057
     6 (A) A   8 (A) A    9 (A) A   18 (A) A      0.0057
     5 (A) A   8 (A) B   11 (A) A    9 (A) B     -0.0056
     7 (A) A   8 (A) B   22 (A) A   20 (A) B      0.0056
    -----------------------------------------------------

  Density matrix analysis:
  ------------------------
  NOs
    Occupation of frontier NOs:
       0.9498   1.0215
    Number of electrons: 16.000000
    Number of unpaired electrons: n_u =  2.31110, n_u,nl =  2.03222
    NO participation ratio (PR_NO):  2.856917
  
  
  Mulliken Population Analysis
  Atom      Charge (e)              h+              e-           Del q
  --------------------------------------------------------------------
   1 H        0.057808        0.020098       -0.012502        0.007596
   2 C       -0.122449        0.490942       -0.506355       -0.015413
   3 H        0.057527        0.020195       -0.012647        0.007548
   4 C       -0.095908        0.490694       -0.505418       -0.014725
   5 H        0.056913        0.020391       -0.012578        0.007813
   6 H        0.046108        0.019917       -0.012737        0.007180
  --------------------------------------------------------------------
  Sum:       -0.000000        1.062236       -1.062236        0.000000
  
  Multipole moment analysis of the density matrix
    Molecular charge:                      -0.000000
    Number of electrons:                   16.000000
      Center of electronic charge [Ang]: [ -1.557890,  -0.065597,   0.001993]
    Total nuclear charge:                  16.000000
      Center of nuclear charge [Ang]:    [ -1.558076,  -0.065602,   0.001978]
    Dipole moment [D]:                     0.014393
      Cartesian components [D]:          [ -0.014340,  -0.000380,  -0.001178]
    RMS size of the density [Ang]:         1.210867
      Cartesian components [Ang]:        [  0.799859,   0.786975,   0.455077]
  
  Exciton analysis of the difference density matrix
    <r_h> [Ang]:                  [ -1.559276,  -0.065878,   0.001893]
    <r_e> [Ang]:                  [ -1.559514,  -0.065919,   0.001934]
    |<r_e - r_h>| [Ang]:            0.000245
    Hole size [Ang]:                1.284345
      Cartesian components [Ang]: [  0.726105,   0.712828,   0.783702]
    Electron size [Ang]:            1.462672
      Cartesian components [Ang]: [  0.852945,   0.830617,   0.849688]

  Transition density matrix analysis:
  -----------------------------------
  
  CT numbers (Mulliken)
    omega =     0.9538
    <Phe> =    -0.1612
  
  Exciton analysis of the transition density matrix
    Trans. dipole moment [D]:             1.832221
      Cartesian components [D]:         [ -1.323021,   1.267476,   0.012381]
    <r_h> [Ang]:                        [ -1.560265,  -0.065689,   0.001855]
    <r_e> [Ang]:                        [ -1.559313,  -0.065923,   0.001959]
    |<r_e - r_h>| [Ang]:                  0.000986
    Hole size [Ang]:                      1.214140
      Cartesian components [Ang]:       [  0.649131,   0.636650,   0.804637]
    Electron size [Ang]:                  1.485445
      Cartesian components [Ang]:       [  0.863410,   0.839451,   0.869709]
    RMS electron-hole separation [Ang]:   1.936700
      Cartesian components [Ang]:       [  1.106596,   1.075205,   1.170548]
    Covariance(r_h, r_e) [Ang^2]:        -0.035061
    Correlation coefficient:             -0.019440
    Center-of-mass size [Ang]:            0.950074
      Cartesian components [Ang]:       [  0.526579,   0.515736,   0.599476]

  Decomposition into state-averaged NTOs
    H- 0 -> L+ 0:  0.6700 ( 89.8%)
    H- 2 -> L+ 5: -0.0839 (  1.4%)
                   omega =  95.4%
  ----------------------------------------------------------------------------


  Excited state 2 (singlet, A)                                     [converged]
  ----------------------------------------------------------------------------
  Term symbol:  3 (1) A                                     R^2 =  6.11226e-13

  Total energy:                                            -77.9829966770 a.u.
  Excitation energy:                                               9.109787 eV

  Osc. strength:                                                      0.000714
  Trans. dip. moment [a.u.]:           [  -0.011964,    0.005647,    0.054982]
  <i|r^2|0> [a.u.]:                    [  -0.010844,    0.092146,   -0.150475]
  Two-photon absorption cross-section (SoS) [a.u.]:                   5.639409
  Two-photon absorption matrix (SoS) [a.u.]:
                                       |    0.043344    0.061926   -0.497501 |
                                       |    0.061926    0.086021   -0.663907 |
                                       |   -0.497501   -0.663907   -0.127843 |
  Two-photon absorption cross-section [a.u.]:                         0.091166
  Two-photon absorption matrix [a.u.]:
                                       |   -0.003051   -0.004315   -0.014980 |
                                       |   -0.004315   -0.007155    0.105189 |
                                       |   -0.014980    0.105189    0.010743 |

  Dip. moment [a.u.]:                  [  -0.026465,   -0.100418,   -0.007349]
  Total dipole [Debye]:                                               0.264612
  <r^2> [a.u.]:                        [ 173.765350,   34.000106,   13.093024]
  Total <r^2> [a.u.]:                                               220.858480

  V1^2 = 0.9544, V2^2 = 0.0456

  Important amplitudes:
      occ i     occ j     vir a      vir b          v   
    -----------------------------------------------------
     7 (A) A              9 (A) A                 0.6623
     8 (A) A             11 (A) A                 0.1455
     8 (A) A             10 (A) A                -0.0996
     7 (A) A             20 (A) A                 0.0752
     5 (A) A   8 (A) B    9 (A) A    9 (A) B      0.0314
     8 (A) A             16 (A) A                -0.0273
     8 (A) A             21 (A) A                -0.0177
     8 (A) A             12 (A) A                 0.0149
     5 (A) A             28 (A) A                 0.0149
     4 (A) A   7 (A) B    9 (A) A   19 (A) B     -0.0132
     5 (A) A   7 (A) B    9 (A) A   16 (A) B     -0.0132
     7 (A) A   8 (A) B   20 (A) A   17 (A) B     -0.0104
     7 (A) A   8 (A) A    9 (A) A   28 (A) A      0.0096
     5 (A) A   8 (A) B    9 (A) A   20 (A) B      0.0095
     4 (A) A   6 (A) B    9 (A) A   16 (A) B      0.0090
     5 (A) A   6 (A) A    9 (A) A   23 (A) A      0.0090
     5 (A) A   6 (A) A    9 (A) A   14 (A) A      0.0088
     5 (A) A   6 (A) B    9 (A) A   19 (A) B      0.0086
     8 (A) A   7 (A) B    9 (A) A   28 (A) B     -0.0084
     4 (A) A   5 (A) A    9 (A) A   10 (A) A      0.0083
     6 (A) A   7 (A) B    9 (A) A   18 (A) B      0.0081
     3 (A) A   7 (A) B    9 (A) A   18 (A) B      0.0079
     5 (A) A   7 (A) A    9 (A) A   16 (A) A     -0.0078
     5 (A) A   6 (A) B    9 (A) A   23 (A) B      0.0078
     4 (A) A   8 (A) B    9 (A) A   25 (A) B      0.0076
     7 (A) A   8 (A) B   17 (A) A   20 (A) B     -0.0073
     4 (A) A   7 (A) B   19 (A) A    9 (A) B     -0.0072
     7 (A) A   8 (A) B   19 (A) A   18 (A) B     -0.0071
     5 (A) A   5 (A) B    9 (A) A   13 (A) B     -0.0071
     5 (A) A   8 (A) A    9 (A) A   20 (A) A      0.0069
     8 (A) A             24 (A) A                -0.0066
     4 (A) A   5 (A) B    9 (A) A   18 (A) B     -0.0066
     7 (A) A   8 (A) B   17 (A) A    9 (A) B     -0.0064
     7 (A) A   7 (A) B   20 (A) A   22 (A) B      0.0064
     5 (A) A   6 (A) B    9 (A) A   14 (A) B      0.0063
     4 (A) A   5 (A) B   10 (A) A    9 (A) B     -0.0061
     4 (A) A   7 (A) A    9 (A) A   19 (A) A     -0.0061
     4 (A) A   7 (A) B    9 (A) A   14 (A) B      0.0059
     5 (A) A   7 (A) B   11 (A) A   20 (A) B      0.0058
     6 (A) A   7 (A) A   19 (A) A   28 (A) A     -0.0057
    -----------------------------------------------------

  Density matrix analysis:
  ------------------------
  NOs
    Occupation of frontier NOs:
       0.9388   1.0726
    Number of electrons: 16.000000
    Number of unpaired electrons: n_u =  2.35312, n_u,nl =  2.07608
    NO participation ratio (PR_NO):  3.133613
  
  
  Mulliken Population Analysis
  Atom      Charge (e)              h+              e-           Del q
  --------------------------------------------------------------------
   1 H        0.131250        0.124828       -0.043791        0.081037
   2 C       -0.293989        0.278647       -0.465600       -0.186953
   3 H        0.167417        0.129502       -0.012063        0.117439
   4 C       -0.270491        0.265256       -0.454564       -0.189308
   5 H        0.131331        0.130292       -0.048062        0.082231
   6 H        0.134483        0.106618       -0.011064        0.095555
  --------------------------------------------------------------------
  Sum:       -0.000000        1.035144       -1.035144        0.000000
  
  Multipole moment analysis of the density matrix
    Molecular charge:                      -0.000000
    Number of electrons:                   16.000000
      Center of electronic charge [Ang]: [ -1.557201,  -0.062281,   0.002221]
    Total nuclear charge:                  16.000000
      Center of nuclear charge [Ang]:    [ -1.558076,  -0.065602,   0.001978]
    Dipole moment [D]:                     0.264612
      Cartesian components [D]:          [ -0.067267,  -0.255236,  -0.018678]
    RMS size of the density [Ang]:         1.198607
      Cartesian components [Ang]:        [  0.785066,   0.768885,   0.478692]
  
  Exciton analysis of the difference density matrix
    <r_h> [Ang]:                  [ -1.521796,  -0.070217,   0.003509]
    <r_e> [Ang]:                  [ -1.511395,  -0.019002,   0.007071]
    |<r_e - r_h>| [Ang]:            0.052382
    Hole size [Ang]:                1.480283
      Cartesian components [Ang]: [  0.974696,   1.011892,   0.466132]
    Electron size [Ang]:            1.494811
      Cartesian components [Ang]: [  0.890118,   0.879459,   0.817741]

  Transition density matrix analysis:
  -----------------------------------
  
  CT numbers (Mulliken)
    omega =     0.9221
    <Phe> =    -0.0123
  
  Exciton analysis of the transition density matrix
    Trans. dipole moment [D]:             0.071870
      Cartesian components [D]:         [ -0.015205,   0.007177,   0.069876]
    <r_h> [Ang]:                        [ -1.519803,  -0.073625,   0.003393]
    <r_e> [Ang]:                        [ -1.512032,  -0.012956,   0.007398]
    |<r_e - r_h>| [Ang]:                  0.061295
    Hole size [Ang]:                      1.501686
      Cartesian components [Ang]:       [  0.991303,   1.032672,   0.453837]
    Electron size [Ang]:                  1.494048
      Cartesian components [Ang]:       [  0.884442,   0.871131,   0.831307]
    RMS electron-hole separation [Ang]:   2.100456
      Cartesian components [Ang]:       [  1.314549,   1.337254,   0.946376]
    Covariance(r_h, r_e) [Ang^2]:         0.039540
    Correlation coefficient:              0.017624
    Center-of-mass size [Ang]:            1.068447
      Cartesian components [Ang]:       [  0.671167,   0.683007,   0.473937]

  Decomposition into state-averaged NTOs
    H- 1 -> L+ 0:  0.6548 ( 85.8%)
    H- 0 -> L+ 2:  0.1519 (  4.6%)
    H- 0 -> L+ 1: -0.0864 (  1.5%)
                   omega =  92.2%
  ----------------------------------------------------------------------------


  Excited state 3 (singlet, A)                                     [converged]
  ----------------------------------------------------------------------------
  Term symbol:  4 (1) A                                     R^2 =  2.52427e-13

  Total energy:                                            -77.9798081911 a.u.
  Excitation energy:                                               9.196550 eV

  Osc. strength:                                                      0.025681
  Trans. dip. moment [a.u.]:           [   0.014681,    0.021347,   -0.336617]
  <i|r^2|0> [a.u.]:                    [   0.099341,    0.013460,   -0.018612]
  Two-photon absorption cross-section (SoS) [a.u.]:                   0.042311
  Two-photon absorption matrix (SoS) [a.u.]:
                                       |    0.035895    0.004241   -0.000388 |
                                       |    0.004241   -0.030112   -0.064290 |
                                       |   -0.000388   -0.064290   -0.008691 |
  Two-photon absorption cross-section [a.u.]:                         0.015855
  Two-photon absorption matrix [a.u.]:
                                       |    0.024285   -0.001207    0.016930 |
                                       |   -0.001207   -0.031112    0.030052 |
                                       |    0.016930    0.030052    0.004597 |

  Dip. moment [a.u.]:                  [  -0.154249,    0.040820,   -0.004889]
  Total dipole [Debye]:                                               0.405748
  <r^2> [a.u.]:                        [ 178.894561,   40.492866,   11.061789]
  Total <r^2> [a.u.]:                                               230.449216

  V1^2 = 0.9591, V2^2 = 0.0409

  Important amplitudes:
      occ i     occ j     vir a      vir b          v   
    -----------------------------------------------------
     8 (A) A             10 (A) A                 0.6818
     7 (A) A              9 (A) A                 0.1008
     8 (A) A             24 (A) A                 0.0496
     8 (A) A             18 (A) A                -0.0297
     4 (A) A              9 (A) A                 0.0231
     8 (A) A   8 (A) B    9 (A) A   12 (A) B     -0.0210
     8 (A) A             15 (A) A                 0.0173
     8 (A) A   8 (A) B   10 (A) A   17 (A) B      0.0172
     5 (A) A   8 (A) B   11 (A) A   10 (A) B     -0.0159
     7 (A) A   8 (A) B   13 (A) A   10 (A) B     -0.0138
     7 (A) A             20 (A) A                 0.0112
     6 (A) A   8 (A) A   10 (A) A   15 (A) A      0.0108
     4 (A) A   8 (A) B   12 (A) A   10 (A) B     -0.0107
     6 (A) A   8 (A) B   15 (A) A   10 (A) B     -0.0106
     7 (A) A   8 (A) B   22 (A) A   10 (A) B     -0.0105
     4 (A) A   8 (A) A   10 (A) A   12 (A) A      0.0102
     7 (A) A   8 (A) A   10 (A) A   22 (A) A      0.0096
     7 (A) A   8 (A) A   10 (A) A   13 (A) A      0.0096
     5 (A) A   8 (A) B   21 (A) A   10 (A) B      0.0093
     5 (A) A   8 (A) A   10 (A) A   11 (A) A      0.0091
     6 (A) A   8 (A) A   10 (A) A   18 (A) A      0.0087
     6 (A) A   8 (A) B   10 (A) A   10 (A) B      0.0085
     5 (A) A   8 (A) A   10 (A) A   21 (A) A     -0.0079
     3 (A) A   4 (A) B   10 (A) A    9 (A) B     -0.0078
     7 (A) A   8 (A) A   12 (A) A   16 (A) A     -0.0078
     8 (A) A   8 (A) B    9 (A) A   23 (A) B     -0.0074
     4 (A) A   8 (A) B   19 (A) A   10 (A) B      0.0073
     8 (A) A   8 (A) B   10 (A) A   28 (A) B     -0.0072
     3 (A) A   8 (A) B   10 (A) A   10 (A) B      0.0071
     3 (A) A   8 (A) A   10 (A) A   24 (A) A     -0.0069
     5 (A) A   8 (A) B   10 (A) A   11 (A) B     -0.0069
     3 (A) A   8 (A) B   10 (A) A   18 (A) B     -0.0068
     7 (A) A   8 (A) B   16 (A) A   12 (A) B      0.0067
     6 (A) A   8 (A) B   18 (A) A   10 (A) B     -0.0066
     8 (A) A   8 (A) B    9 (A) A   19 (A) B      0.0065
     3 (A) A   6 (A) B   10 (A) A   28 (A) B      0.0062
     6 (A) A              9 (A) A                 0.0058
     3 (A) A   8 (A) A   10 (A) A   18 (A) A     -0.0056
     3 (A) A   5 (A) B   10 (A) A   25 (A) B     -0.0055
     6 (A) A             28 (A) A                -0.0054
    -----------------------------------------------------

  Density matrix analysis:
  ------------------------
  NOs
    Occupation of frontier NOs:
       0.9642   1.0025
    Number of electrons: 16.000000
    Number of unpaired electrons: n_u =  2.32127, n_u,nl =  2.03483
    NO participation ratio (PR_NO):  2.785530
  
  
  Mulliken Population Analysis
  Atom      Charge (e)              h+              e-           Del q
  --------------------------------------------------------------------
   1 H       -0.182010        0.053181       -0.285404       -0.232223
   2 C        0.320240        0.528217       -0.100941        0.427276
   3 H       -0.167476        0.057354       -0.274809       -0.217455
   4 C        0.333281        0.511121       -0.096656        0.414465
   5 H       -0.153256        0.054860       -0.257216       -0.202356
   6 H       -0.150779        0.055226       -0.244933       -0.189707
  --------------------------------------------------------------------
  Sum:       -0.000000        1.259959       -1.259959        0.000000
  
  Multipole moment analysis of the density matrix
    Molecular charge:                      -0.000000
    Number of electrons:                   16.000000
      Center of electronic charge [Ang]: [ -1.552975,  -0.066952,   0.002140]
    Total nuclear charge:                  16.000000
      Center of nuclear charge [Ang]:    [ -1.558076,  -0.065602,   0.001978]
    Dipole moment [D]:                     0.405748
      Cartesian components [D]:          [ -0.392061,   0.103754,  -0.012426]
    RMS size of the density [Ang]:         1.271635
      Cartesian components [Ang]:        [  0.848082,   0.839175,   0.439996]
  
  Exciton analysis of the difference density matrix
    <r_h> [Ang]:                  [ -1.552469,  -0.074587,   0.001731]
    <r_e> [Ang]:                  [ -1.490255,  -0.091829,   0.003625]
    |<r_e - r_h>| [Ang]:            0.064586
    Hole size [Ang]:                1.416539
      Cartesian components [Ang]: [  0.835522,   0.828917,   0.788279]
    Electron size [Ang]:            2.080969
      Cartesian components [Ang]: [  1.368164,   1.384819,   0.735413]

  Transition density matrix analysis:
  -----------------------------------
  
  CT numbers (Mulliken)
    omega =     0.9264
    <Phe> =    -0.0111
  
  Exciton analysis of the transition density matrix
    Trans. dipole moment [D]:             0.429062
      Cartesian components [D]:         [  0.018658,   0.027130,  -0.427797]
    <r_h> [Ang]:                        [ -1.562782,  -0.072272,   0.001397]
    <r_e> [Ang]:                        [ -1.471087,  -0.099949,   0.004046]
    |<r_e - r_h>| [Ang]:                  0.095818
    Hole size [Ang]:                      1.220558
      Cartesian components [Ang]:       [  0.645764,   0.637210,   0.816525]
    Electron size [Ang]:                  2.278501
      Cartesian components [Ang]:       [  1.495264,   1.517671,   0.807730]
    RMS electron-hole separation [Ang]:   2.576616
      Cartesian components [Ang]:       [  1.623661,   1.639300,   1.146896]
    Covariance(r_h, r_e) [Ang^2]:         0.025781
    Correlation coefficient:              0.009270
    Center-of-mass size [Ang]:            1.297391
      Cartesian components [Ang]:       [  0.818197,   0.826466,   0.575091]

  Decomposition into state-averaged NTOs
    H- 0 -> L+ 1:  0.6707 ( 90.0%)
    H- 1 -> L+ 0:  0.0997 (  2.0%)
                   omega =  92.6%
  ----------------------------------------------------------------------------


  Excited state 4 (singlet, A)                                     [converged]
  ----------------------------------------------------------------------------
  Term symbol:  5 (1) A                                     R^2 =  1.39070e-13

  Total energy:                                            -77.9542838908 a.u.
  Excitation energy:                                               9.891102 eV

  Osc. strength:                                                      0.000217
  Trans. dip. moment [a.u.]:           [   0.005177,   -0.002123,   -0.029365]
  <i|r^2|0> [a.u.]:                    [   0.042308,    0.027590,   -0.039985]
  Two-photon absorption cross-section (SoS) [a.u.]:                 156.561936
  Two-photon absorption matrix (SoS) [a.u.]:
                                       |    0.257470    0.326198   -2.684395 |
                                       |    0.326198    0.414391   -3.451438 |
                                       |   -2.684395   -3.451438   -0.672947 |
  Two-photon absorption cross-section [a.u.]:                        99.808060
  Two-photon absorption matrix [a.u.]:
                                       |    0.198488    0.259097   -2.083505 |
                                       |    0.259097    0.337821   -2.801246 |
                                       |   -2.083505   -2.801246   -0.536925 |

  Dip. moment [a.u.]:                  [   0.084199,    0.200016,    0.015808]
  Total dipole [Debye]:                                               0.553061
  <r^2> [a.u.]:                        [ 179.338816,   42.270992,   10.752551]
  Total <r^2> [a.u.]:                                               232.362359

  V1^2 = 0.9636, V2^2 = 0.0364

  Important amplitudes:
      occ i     occ j     vir a      vir b          v   
    -----------------------------------------------------
     8 (A) A             11 (A) A                 0.6688
     7 (A) A              9 (A) A                -0.1470
     8 (A) A             21 (A) A                -0.0774
     8 (A) A             16 (A) A                -0.0623
     8 (A) A             12 (A) A                 0.0433
     6 (A) A              9 (A) A                 0.0205
     8 (A) A             10 (A) A                 0.0180
     8 (A) A   8 (A) B    9 (A) A   13 (A) B     -0.0166
     5 (A) A   8 (A) B   11 (A) A   11 (A) B     -0.0155
     8 (A) A   8 (A) B   11 (A) A   17 (A) B      0.0141
     7 (A) A             20 (A) A                -0.0134
     7 (A) A   8 (A) B   13 (A) A   11 (A) B     -0.0128
     5 (A) A   8 (A) A   11 (A) A   21 (A) A     -0.0109
     4 (A) A   8 (A) B   12 (A) A   11 (A) B     -0.0106
     8 (A) A   8 (A) B    9 (A) A   22 (A) B     -0.0105
     7 (A) A   8 (A) A   11 (A) A   22 (A) A      0.0096
     8 (A) A             19 (A) A                 0.0093
     6 (A) A   8 (A) B   15 (A) A   11 (A) B     -0.0091
     7 (A) A   8 (A) B   22 (A) A   11 (A) B     -0.0089
     6 (A) A   8 (A) B   10 (A) A   11 (A) B      0.0088
     3 (A) A   4 (A) B   11 (A) A    9 (A) B     -0.0082
     6 (A) A   8 (A) A   11 (A) A   15 (A) A      0.0081
     3 (A) A   8 (A) B   11 (A) A   18 (A) B     -0.0080
     7 (A) A   8 (A) A   11 (A) A   13 (A) A      0.0077
     7 (A) A   8 (A) A   13 (A) A   16 (A) A     -0.0077
     5 (A) A   8 (A) B   21 (A) A   11 (A) B      0.0071
     4 (A) A   8 (A) B   19 (A) A   11 (A) B      0.0069
     5 (A) A   8 (A) B    9 (A) A    9 (A) B     -0.0066
     6 (A) A   8 (A) A   11 (A) A   18 (A) A      0.0063
     4 (A) A   8 (A) A   11 (A) A   12 (A) A      0.0063
     3 (A) A   6 (A) B   11 (A) A   28 (A) B      0.0060
     6 (A) A   8 (A) B   18 (A) A   11 (A) B     -0.0059
     7 (A) A   8 (A) B   16 (A) A   13 (A) B      0.0057
     3 (A) A   8 (A) A   11 (A) A   18 (A) A     -0.0056
     5 (A) A   8 (A) B   10 (A) A   10 (A) B     -0.0055
     3 (A) A   5 (A) B   11 (A) A   25 (A) B     -0.0054
     3 (A) A   8 (A) B   11 (A) A   30 (A) B     -0.0054
     6 (A) A   8 (A) B   11 (A) A   10 (A) B      0.0052
     3 (A) A   8 (A) B   10 (A) A   11 (A) B      0.0052
     3 (A) A   8 (A) A   11 (A) A   24 (A) A     -0.0052
    -----------------------------------------------------

  Density matrix analysis:
  ------------------------
  NOs
    Occupation of frontier NOs:
       0.9421   1.0267
    Number of electrons: 16.000000
    Number of unpaired electrons: n_u =  2.31693, n_u,nl =  2.04787
    NO participation ratio (PR_NO):  2.902051
  
  
  Mulliken Population Analysis
  Atom      Charge (e)              h+              e-           Del q
  --------------------------------------------------------------------
   1 H       -0.067493        0.047799       -0.165505       -0.117705
   2 C        0.279268        0.502976       -0.116672        0.386304
   3 H       -0.230313        0.045754       -0.326046       -0.280292
   4 C        0.299547        0.493956       -0.113226        0.380730
   5 H       -0.159622        0.045254       -0.253977       -0.208723
   6 H       -0.121386        0.047786       -0.208100       -0.160314
  --------------------------------------------------------------------
  Sum:       -0.000000        1.183525       -1.183525        0.000000
  
  Multipole moment analysis of the density matrix
    Molecular charge:                      -0.000000
    Number of electrons:                   16.000000
      Center of electronic charge [Ang]: [ -1.560861,  -0.072218,   0.001455]
    Total nuclear charge:                  16.000000
      Center of nuclear charge [Ang]:    [ -1.558076,  -0.065602,   0.001978]
    Dipole moment [D]:                     0.553061
      Cartesian components [D]:          [  0.214011,   0.508391,   0.040180]
    RMS size of the density [Ang]:         1.274853
      Cartesian components [Ang]:        [  0.838130,   0.857089,   0.433805]
  
  Exciton analysis of the difference density matrix
    <r_h> [Ang]:                  [ -1.558087,  -0.073882,   0.001511]
    <r_e> [Ang]:                  [ -1.598470,  -0.163418,  -0.005728]
    |<r_e - r_h>| [Ang]:            0.098487
    Hole size [Ang]:                1.395039
      Cartesian components [Ang]: [  0.815703,   0.809521,   0.790846]
    Electron size [Ang]:            2.127325
      Cartesian components [Ang]: [  1.300412,   1.538813,   0.683006]

  Transition density matrix analysis:
  -----------------------------------
  
  CT numbers (Mulliken)
    omega =     0.9300
    <Phe> =    -0.0129
  
  Exciton analysis of the transition density matrix
    Trans. dipole moment [D]:             0.037991
      Cartesian components [D]:         [  0.006580,  -0.002698,  -0.037320]
    <r_h> [Ang]:                        [ -1.558230,  -0.066647,   0.001929]
    <r_e> [Ang]:                        [ -1.605500,  -0.182666,  -0.007191]
    |<r_e - r_h>| [Ang]:                  0.125611
    Hole size [Ang]:                      1.227300
      Cartesian components [Ang]:       [  0.663432,   0.642678,   0.808139]
    Electron size [Ang]:                  2.267873
      Cartesian components [Ang]:       [  1.379101,   1.647247,   0.726573]
    RMS electron-hole separation [Ang]:   2.571232
      Cartesian components [Ang]:       [  1.523449,   1.763608,   1.086288]
    Covariance(r_h, r_e) [Ang^2]:         0.027031
    Correlation coefficient:              0.009712
    Center-of-mass size [Ang]:            1.294564
      Cartesian components [Ang]:       [  0.769003,   0.888266,   0.543612]

  Decomposition into state-averaged NTOs
    H- 0 -> L+ 2:  0.6565 ( 86.2%)
    H- 1 -> L+ 0: -0.1450 (  4.2%)
    H- 0 -> L+ 3: -0.0713 (  1.0%)
    H- 0 -> L+ 1:  0.0712 (  1.0%)
                   omega =  93.0%
  ----------------------------------------------------------------------------


  Excited state 5 (singlet, A)                                     [converged]
  ----------------------------------------------------------------------------
  Term symbol:  6 (1) A                                     R^2 =  2.58310e-13

  Total energy:                                            -77.9413126547 a.u.
  Excitation energy:                                              10.244067 eV

  Osc. strength:                                                      0.000049
  Trans. dip. moment [a.u.]:           [   0.001200,    0.001182,   -0.013915]
  <i|r^2|0> [a.u.]:                    [   0.102379,   -0.101530,    0.006384]
  Two-photon absorption cross-section (SoS) [a.u.]:                 152.925982
[...]
    16   -1.504605834661e-03
    17   -1.869827261246e-03
    18    8.366350626869e-04
    19   -3.809076870546e-03
    20    8.339549169665e-03
    21    9.341241803829e-01
    22   -2.103457401571e-04
    23    1.412265796874e-02
    24    8.200198146328e-04
    25    6.739407024007e-02
    26   -4.865341278110e-02
    27   -1.391717216301e+00
    28    8.792317938214e-02
    29   -9.668436125457e-02
    30   -1.510152559830e-03
    31    3.600407636128e-01
    32   -3.666601342790e-01
    33   -4.381065867951e-03
    34    1.597600865691e-02
    35   -1.570142868490e-03
    36   -1.782098039467e-03
    37   -6.376620225811e-04
    38   -2.893082864553e-03
    39    8.392528675436e-03
    40    9.341287821434e-01
    41    4.198866816204e-05
    42   -1.401753224035e-02
    43   -8.434889222445e-04
    44    6.168680705355e-03
    45    9.086851371879e-01
    46    1.411722815559e-02
    47    3.698862989612e-04
    48    7.128572335456e-04
Sym=X
Ene= 0.234164
Spin=Alpha
Occup=0
     1   -1.967463484933e-02
     2   -9.815745566700e-01
     3    1.083120707688e-02
     4    1.875012064716e-03
     5    6.141824032871e-04
     6    1.664330541581e-02
     7   -1.528200202605e-02
     8   -3.040411973989e-01
     9    1.406124847844e-01
    10    1.704370733140e-01
    11    1.655804833163e-02
    12    4.965411458370e-01
    13    6.116741572050e-01
    14    5.881930833873e-02
    15    4.492505477255e-03
    16   -4.395817422414e-04
    17   -6.639835953924e-04
    18    1.784290280481e-03
    19   -2.376295943852e-03
    20    2.589268180110e-02
    21    1.394405467786e+00
    22    4.144381061689e-03
    23    1.748116258497e-02
    24    1.218835484100e-03
    25   -1.391780857985e-02
    26    1.394207889579e-02
    27    2.119496241380e-01
    28    1.363961829300e-01
    29    1.643957366637e-01
    30    1.667443144929e-02
    31    5.024662967008e-01
    32    5.913612976623e-01
    33    6.078400516204e-02
    34   -2.540243492779e-03
    35    2.332880633104e-04
    36    3.632665308309e-04
    37   -5.646453141491e-04
    38    1.200931771342e-03
    39   -2.932646806217e-02
    40   -1.345484753133e+00
    41    3.699107177742e-03
    42    1.625014657094e-02
    43    1.163867914763e-03
    44    1.788542900461e-02
    45    1.044123464735e+00
    46    1.225216527852e-02
    47    2.238833521239e-03
    48    7.407488764506e-04
Sym=X
Ene= 0.241232
Spin=Alpha
Occup=0
     1   -1.712047562318e-02
     2   -1.272735803889e+00
     3    1.942430179374e-02
     4    9.587230853377e-03
     5    1.494454918327e-03
     6   -8.269244517066e-02
     7    7.509118617706e-02
     8    1.538357459671e+00
     9    8.444715912102e-02
    10   -2.294155650705e-02
    11    2.634996519719e-03
    12    3.176172569882e-01
    13   -8.745764679795e-02
    14    9.752850530108e-03
    15   -2.183125536152e-02
    16    2.612798487991e-03
    17    2.781156808552e-03
    18    1.313193479791e-03
    19    1.243363261805e-02
    20   -1.448075769613e-02
    21   -8.189157331499e-01
    22   -7.970727915486e-03
    23   -1.386737661563e-02
    24   -1.204833147828e-03
    25    8.649797083402e-02
    26   -7.794790214670e-02
    27   -1.669494991756e+00
    28    7.973921292178e-02
    29   -3.234426590448e-02
    30    1.997460794259e-03
    31    3.218686260417e-01
    32   -1.301713935715e-01
    33    8.129171226390e-03
    34    2.443062314312e-02
    35   -2.857739044111e-03
    36   -3.199381853161e-03
    37    7.937917016254e-05
    38   -1.330177320123e-02
    39    8.873812478380e-03
    40    9.033832583860e-01
    41   -8.530644509647e-03
    42   -1.569937268943e-02
    43   -1.346285122979e-03
    44    1.468320541376e-02
    45    1.349709292663e+00
    46    2.141128448387e-02
    47    1.005395082667e-02
    48    1.642549270013e-03
Sym=X
Ene= 0.303431
Spin=Alpha
Occup=0
     1   -1.822782037794e-02
     2    1.674545512924e+00
     3   -2.211599331523e-02
     4    3.781909936661e-04
     5   -1.019263315059e-03
     6   -5.887505567391e-04
     7   -1.114758460720e-03
     8    3.068477999918e-02
     9   -1.311605658803e-01
    10   -1.386134763072e-01
    11   -1.433638310826e-02
    12   -1.147078384484e+00
    13   -1.183745815006e+00
    14   -1.248537146658e-01
    15   -2.583542147506e-04
    16   -1.532056882027e-03
    17    1.798554919691e-03
    18   -3.096125904768e-02
    19   -1.376216357028e-03
    20    1.703823646639e-02
    21   -1.692086380812e+00
    22    1.233260937881e-03
    23   -2.277049503044e-02
    24   -1.285634954363e-03
    25    1.119005564462e-03
    26    3.900005344699e-04
    27   -1.036010189878e-01
    28    1.327001171914e-01
    29    1.407529779664e-01
    30    1.496117225470e-02
    31    1.153039293118e+00
    32    1.222443062539e+00
    33    1.289018929185e-01
    34    2.044729664607e-03
    35   -1.943423575366e-03
    36    1.573337621990e-03
    37   -3.255161246474e-02
    38   -3.193386812847e-03
    39    1.790108512066e-02
    40   -1.705072564744e+00
    41   -2.284423008202e-03
    42    2.227512306892e-02
    43    1.232601731987e-03
    44   -2.466633674975e-02
    45    1.797410395439e+00
    46    2.305098080062e-02
    47   -2.915256582513e-04
    48    1.103835451657e-03
Sym=X
Ene= 0.462300
Spin=Alpha
Occup=0
     1   -1.138727680333e-01
     2   -7.097250954102e-01
     3   -1.590459134863e-02
     4   -1.011492676006e-02
     5   -1.340816774264e-03
     6    6.069378146560e-02
     7    1.555756958102e-02
     8   -3.585858570993e+00
     9    1.058527613124e-01
    10   -1.012152689884e-01
    11   -9.159857450762e-04
    12    2.410595834656e+00
    13   -2.307002435580e+00
    14   -2.243201099722e-02
    15    5.342910412277e-02
    16   -3.374121418444e-03
    17   -4.527771693995e-03
    18   -1.291060185940e-03
    19    1.813303924115e-02
    20   -1.202229959779e-01
    21   -7.164941251077e-01
    22    8.460605299516e-03
    23    1.617176852689e-02
    24    1.347186521639e-03
    25   -5.973676636490e-02
    26   -1.644558123506e-02
    27    3.538162455077e+00
    28    1.039268943583e-01
    29   -9.787803771365e-02
    30   -7.758072271289e-04
    31    2.459484703809e+00
    32   -2.278515739071e+00
    33   -1.818777041395e-02
    34   -5.227650635791e-02
    35    3.343526117727e-03
    36    4.732978125756e-03
    37   -1.072332811901e-03
    38   -1.725430686190e-02
    39    1.169105994493e-01
    40    6.872628419628e-01
    41    8.652324920447e-03
    42    1.692756925123e-02
    43    1.449640744562e-03
    44    1.076841303302e-01
    45    7.896500992859e-01
    46   -1.583739600958e-02
    47   -9.320487015751e-03
    48   -1.335900069979e-03
Sym=X
Ene= 0.576657
Spin=Alpha
Occup=0
     1    2.352737995013e-01
     2    5.737124953979e-02
     3   -1.968064076086e-02
     4    2.738634621167e-02
     5    6.846948520726e-04
     6   -4.997025066417e-03
     7   -1.541439983895e-01
     8   -4.262009310990e-01
     9    2.947552795706e-01
    10   -2.849208988334e-01
    11   -2.899024389379e-03
    12   -7.468065039428e-01
    13    7.165163297002e-01
    14    6.856108934704e-03
    15   -7.464455064173e-03
    16    3.817617548890e-03
    17    4.159610892596e-03
    18   -8.254269642226e-03
    19    6.000789626827e-02
    20    2.724507172912e-01
    21    2.432305355323e-02
    22   -2.537898233604e-02
    23    1.400963102259e-02
    24   -3.783274419113e-04
    25   -4.015293618883e-03
    26   -1.508371093651e-01
    27   -4.836564454240e-01
    28   -3.014145696209e-01
    29    2.799125949718e-01
    30    2.289028572200e-03
    31    7.787958151520e-01
    32   -6.724973569299e-01
    33   -2.632035332335e-03
    34   -6.041541807181e-03
    35    4.049453473560e-03
    36    3.636862999932e-03
    37   -1.530606798684e-03
    38    6.030908993565e-02
    39    2.366363466960e-01
    40    3.398732714503e-02
    41    2.796733124375e-02
    42   -1.738971233083e-02
    43    3.133072671014e-04
    44    2.716636344826e-01
    45    7.670904522617e-02
    46    1.202671606656e-02
    47   -2.105384060449e-02
    48   -6.794724478695e-04
Sym=X
Ene= 0.617884
Spin=Alpha
Occup=0
     1    5.395588937989e-01
     2   -1.970387237442e-01
     3    6.229920533300e-02
     4   -3.641957970603e-02
     5    8.345606488220e-04
     6    4.735037353157e-04
     7    4.069118546200e-03
     8   -4.972695478027e-03
     9    4.213173596636e-02
    10    3.399494035189e-02
    11    4.135891593192e-03
    12   -3.267412194822e-01
    13   -2.407723373483e-01
    14   -2.910259362214e-02
    15   -3.669836877085e-03
    16    8.087611197368e-03
    17   -8.029051299436e-03
    18    1.496992195735e-01
    19    1.063285244466e-02
    20   -4.973090104383e-01
    21    2.237431430679e-01
    22   -4.395494896980e-02
    23    5.946768284298e-02
    24    1.465678933225e-03
    25    1.118142060594e-03
    26   -9.699368970412e-03
    27   -2.891771072397e-03
    28    4.400674668816e-02
    29    5.168286491933e-02
    30    5.091524436542e-03
    31   -3.434822211084e-01
    32   -3.390060733305e-01
    33   -3.762403124361e-02
    34   -7.574895404070e-03
    35   -6.472591872741e-03
    36    9.326835327769e-03
    37   -1.448911442657e-01
    38   -2.145192875735e-03
    39    5.451555521392e-01
    40   -1.917239770838e-01
    41   -3.869864738586e-02
    42    6.011673709440e-02
    43    1.698320590330e-03
    44   -4.746216206138e-01
    45    9.235982699559e-02
    46    5.908788041535e-02
    47   -3.954794489156e-02
    48    4.566014520469e-04
Sym=X
Ene= 0.689492
Spin=Alpha
Occup=0
     1   -2.210548678545e-04
     2    2.572187522840e-04
     3    9.670655864198e-04
     4    1.180947862096e-03
     5   -2.115548550041e-02
     6   -8.860444921579e-06
     7   -2.869003758508e-05
     8   -1.046188735280e-04
     9    3.179745574962e-02
    10    3.958241771445e-02
    11   -6.706805403296e-01
    12   -2.860135693951e-02
    13   -3.625843796334e-02
    14    6.127655162806e-01
    15   -1.179114088751e-03
    16    8.258385990786e-02
    17   -7.779466558324e-02
    18   -8.732215423671e-03
    19   -1.241482103013e-03
    20   -5.284919143815e-05
    21   -4.657082183425e-04
    22    9.570035772577e-04
    23    1.218002280450e-03
    24   -2.095074414080e-02
    25   -7.538298767047e-07
    26   -1.315607925238e-04
    27    2.027992780764e-04
    28    3.242960793196e-02
    29    4.030372617772e-02
    30   -6.689295978993e-01
    31   -2.969829483751e-02
    32   -3.749850224447e-02
    33    6.151322330460e-01
    34    1.166329056485e-03
    35   -8.392061288849e-02
    36    7.822216813734e-02
    37    8.554366046058e-03
    38    1.268326460247e-03
    39    9.491056206709e-05
    40   -1.694546129599e-04
    41    1.059074802552e-03
    42    1.242932026546e-03
    43   -2.066027942685e-02
    44   -4.286911872298e-05
    45    5.521052645957e-04
    46    1.412818530264e-03
    47    1.736181816100e-03
    48   -2.796629452937e-02
Sym=X
Ene= 0.712548
Spin=Alpha
Occup=0
     1   -4.760243750687e-01
     2    1.740785125501e-01
     3   -8.301800689363e-02
     4   -4.751443092116e-02
     5   -6.741115605701e-03
     6   -5.232441646055e-02
     7   -3.147861987538e-01
     8    5.385767355996e-01
     9    2.006113053481e-01
    10   -1.908923893794e-01
    11   -1.691193630634e-03
    12   -1.282058597172e-01
    13    1.062262405175e-01
    14    3.457947701097e-04
    15    2.052196792319e-01
    16   -2.119270754332e-02
    17   -2.546124825795e-02
    18    9.179789662476e-03
    19   -7.761508319752e-02
    20   -5.236502833708e-01
    21    1.941752185944e-01
    22    3.928364833959e-02
    23    9.047963986029e-02
    24    7.237534395053e-03
    25   -4.376072056277e-02
    26   -3.481337038209e-01
    27    4.834828912205e-01
    28   -1.948487425927e-01
    29    2.117066378117e-01
    30    3.413960024518e-03
    31   -1.859391994993e-02
    32   -9.334234190023e-02
    33   -6.868805463849e-03
    34    1.852211069283e-01
    35   -1.995923146290e-02
    36   -2.311123102263e-02
    37    1.965418505867e-03
    38   -7.453582596602e-02
    39   -4.305222258898e-01
    40    1.432220590112e-01
    41   -4.165561525166e-02
    42   -7.738013016079e-02
    43   -6.672625529227e-03
    44   -4.416110367707e-01
    45    1.878844605744e-02
    46    7.628526658721e-02
    47    4.292234944266e-02
    48    6.262964836055e-03
Sym=X
Ene= 0.790197
Spin=Alpha
Occup=0
     1    5.230345791428e-01
     2   -4.536468717206e-01
     3    1.080550902105e-01
     4    1.948975131439e-02
     5    6.252209474029e-03
     6    8.866842880875e-02
     7   -2.451299850390e-01
     8   -6.011155822680e-01
     9    1.287797971843e-01
    10   -1.169829089599e-01
    11   -1.025873589844e-03
    12    2.955198954713e-01
    13   -2.851000712738e-01
    14   -2.497147815496e-03
    15   -1.954740555938e-01
    16    1.623484331328e-02
    17    2.027985152394e-02
    18   -9.025643943313e-04
    19    3.766583594956e-03
    20    4.932616921531e-01
    21   -4.602525547929e-01
    22   -2.204143912162e-02
    23   -1.073140713366e-01
    24   -7.376721511278e-03
    25   -9.581037004881e-02
    26    1.631320732909e-01
    27    7.554657152698e-01
    28    1.493447657704e-01
    29   -6.131899582054e-02
    30    3.653998250695e-03
    31    1.809940752902e-01
    32   -3.867077322007e-01
    33   -1.487106142736e-02
    34    2.222390382816e-01
    35   -1.887704961872e-02
    36   -2.463244282387e-02
    37    1.286503688093e-02
    38   -1.057490951848e-02
    39   -5.609112449083e-01
    40    5.482355880762e-01
    41   -2.437605367727e-02
    42   -1.271969479581e-01
    43   -8.847178668895e-03
    44   -5.385026303907e-01
    45    3.079709609980e-01
    46    1.084892015694e-01
    47    2.542866712284e-02
    48    6.798263672881e-03
Sym=X
Ene= 0.808155
Spin=Alpha
Occup=0
     1    6.688646271148e-05
     2    8.894473373479e-04
     3   -1.698229096857e-03
     4   -2.078923653079e-03
     5    3.372759984311e-02
     6    1.857479840515e-05
     7   -1.156559502372e-04
     8    8.349990585912e-06
     9   -3.584178755765e-02
    10   -4.488921557051e-02
    11    7.627664276100e-01
    12    5.293992841578e-02
    13    6.615252443820e-02
    14   -1.127661013238e+00
    15   -9.518418423288e-04
    16    6.523374179818e-02
    17   -6.106703326532e-02
    18   -7.018578627252e-03
    19   -9.964498727836e-04
    20    9.782589934573e-05
    21   -1.040015646670e-03
    22   -1.712282656156e-03
    23   -2.152777601830e-03
    24    3.436338143155e-02
    25   -1.235304344570e-05
    26   -3.708230317709e-05
    27    1.015089497653e-04
    28    3.713935383090e-02
    29    4.605494001661e-02
    30   -7.614374008810e-01
    31   -5.507429840455e-02
    32   -6.850728294931e-02
    33    1.128997688129e+00
    34   -9.484899309795e-04
    35    6.481637339648e-02
    36   -6.159782793041e-02
    37   -6.519996694643e-03
    38   -9.075350572390e-04
    39   -1.113413846439e-04
    40    1.083705153481e-03
    41    1.550367978318e-03
    42    1.854079993542e-03
    43   -3.350877275000e-02
    44   -7.891511513962e-05
    45   -8.549300116845e-04
    46    1.955577282739e-03
    47    2.403314226247e-03
    48   -4.152756110939e-02
Sym=X
Ene= 0.865068
Spin=Alpha
Occup=0
     1    4.349659980264e-02
     2   -1.164492700462e+00
     3    1.625985580147e-01
     4    5.471846628333e-02
     5    1.097839358674e-02
     6    3.949888719336e-03
     7   -2.896674400426e-02
     8    3.975521411209e-02
     9   -4.153698683979e-01
    10   -4.623622541057e-01
    11   -4.641687247290e-02
    12    9.911015078047e-01
    13    1.053805268627e+00
    14    1.079452490936e-01
    15   -8.896193290710e-03
    16    1.265403986881e-02
    17   -1.342187784051e-02
    18    2.439050564092e-01
    19    4.144427243261e-03
    20   -1.255871344770e-02
    21    1.133831392511e+00
    22    4.968931684711e-02
    23    1.555400151125e-01
    24    1.156225371527e-02
    25   -6.482653984731e-03
    26   -2.493635850226e-02
    27    1.512122998906e-02
    28   -3.574697760312e-01
    29   -4.177110022047e-01
    30   -4.308289446749e-02
    31    8.771564370206e-01
    32    9.821212070872e-01
    33    1.029675184057e-01
    34    1.983627481986e-02
    35   -1.350704822257e-02
    36    1.156503146153e-02
    37   -2.358707419825e-01
    38   -8.676321007998e-03
    39   -2.383022604661e-02
    40   -1.068051355446e+00
    41    4.939582565501e-02
    42    1.396820881261e-01
    43    1.074558968905e-02
    44   -1.913166448092e-02
    45    1.078909659486e+00
    46    1.477292552640e-01
    47    5.467971878405e-02
    48    1.043709809657e-02
Sym=X
Ene= 0.941160
Spin=Alpha
Occup=0
     1    8.655702399207e-02
     2   -1.262514334566e+00
     3    1.683156402347e-01
     4   -1.027583440509e-03
     5    7.888083440245e-03
     6   -4.310498225897e-03
     7    6.018451457823e-02
     8   -1.815629651784e-01
     9   -4.966252472546e-01
    10   -4.398927171599e-01
    11   -4.969557297416e-02
    12    1.563708947321e+00
    13    1.435035274640e+00
    14    1.595411950182e-01
    15    1.013278694637e-02
    16    5.198949238128e-03
    17   -5.686613697418e-03
    18    9.941861937909e-02
    19    2.425922111107e-02
    20   -1.041895254072e-01
    21    1.227571152712e+00
    22   -1.807534887232e-02
    23    1.759969753738e-01
    24    9.545451490069e-03
    25    7.978131727005e-03
    26    9.150460721797e-02
    27   -5.819215011465e-02
    28    4.246443426952e-01
    29    5.641313948917e-01
    30    5.438698786540e-02
    31   -1.391158092567e+00
    32   -1.771722790000e+00
    33   -1.734492636214e-01
    34   -2.471753522805e-02
    35    7.387537175467e-03
    36   -6.574510943699e-03
    37    1.339459747547e-01
    38   -2.099271049820e-02
    39   -8.879871369719e-02
    40    1.463385939567e+00
    41    3.048611914147e-03
    42   -1.958712648190e-01
    43   -1.165293264745e-02
    44    1.123249712381e-01
    45   -1.273909582803e+00
    46   -1.806277260038e-01
    47    1.450896210907e-02
    48   -7.878722383185e-03
Sym=X
Ene= 0.974158
Spin=Alpha
Occup=0
     1   -7.167798558198e-02
     2    8.876565162588e-01
     3   -8.917435550861e-02
     4   -1.032999007282e-01
     5   -1.041929075472e-02
     6    2.433444725611e-02
     7    3.301234947477e-01
     8    3.838075311720e-01
     9    4.533645384562e-01
    10   -4.959088797352e-01
    11   -7.865674762762e-03
    12   -1.401219618849e+00
    13    1.574088312575e+00
    14    2.680257338095e-02
    15   -5.132248747831e-02
    16   -1.345115367071e-02
    17   -1.046917030937e-02
    18    1.642515058918e-02
    19   -3.082767880322e-01
    20   -7.307432622288e-02
    21    1.067258512126e+00
    22    9.775654472410e-02
    23    1.155991208482e-01
    24    1.151874796248e-02
    25   -2.177667110499e-02
    26   -1.518075446103e-01
    27   -6.860831642563e-01
    28    5.065233441125e-01
    29   -3.860298246481e-01
    30    1.354350384110e-03
    31   -1.633212487245e+00
    32    1.201376187081e+00
    33   -6.875024741776e-03
    34    4.323667393487e-02
    35    1.427495005026e-02
    36    9.175496284614e-03
    37    6.360692888588e-03
    38    2.924603741286e-01
    39    6.165428371344e-02
    40   -6.997928392730e-01
    41    9.076749814611e-02
    42    6.502854558796e-02
    43    8.206316553591e-03
    44    6.973131337415e-02
    45   -1.044291068880e+00
    46   -1.036691217443e-01
    47   -9.743868533609e-02
    48   -1.084395443742e-02
[5D]

======= END OF MOLDEN-FORMATTED INPUT FILE =======


        *************************************************************
        *                                                           *
        *  Thank you very much for using Q-Chem.  Have a nice day.  *
        *                                                           *
        *************************************************************


