                  Welcome to Q-Chem
     A Quantum Leap Into The Future Of Chemistry


 Q-Chem 5.4 (devel), Q-Chem, Inc., Pleasanton, CA (2021)

 E. Epifanovsky,  A. T. B. Gilbert,  Xintian Feng,  Joonho Lee,  Yuezhi Mao,  
 N. Mardirossian,  P. Pokhilko,  A. White,  M. Wormit,  M. P. Coons,  
 A. L. Dempwolff,  Zhengting Gan,  D. Hait,  P. R. Horn,  L. D. Jacobson,  
 I. Kaliman,  J. Kussmann,  A. W. Lange,  Ka Un Lao,  D. S. Levine,  Jie Liu,  
 S. C. McKenzie,  A. F. Morrison,  K. Nanda,  F. Plasser,  D. R. Rehn,  
 M. L. Vidal,  Zhi-Qiang You,  Ying Zhu,  B. Alam,  B. Albrecht,  
 A. Aldossary,  E. Alguire,  J. H. Andersen,  D. Barton,  K. Begam,  A. Behn,  
 Y. A. Bernard,  E. J. Berquist,  H. Burton,  A. Carreras,  K. Carter-Fenk,  
 R. Chakraborty,  A. D. Chien,  K. D. Closser,  V. Cofer-Shabica,  
 S. Dasgupta,  Jia Deng,  M. de Wergifosse,  M. Diedenhofen,  Hainam Do,  
 S. Ehlert,  Po-Tung Fang,  S. Fatehi,  Qingguo Feng,  T. Friedhoff,  
 J. Gayvert,  Qinghui Ge,  G. Gidofalvi,  M. Goldey,  J. Gomes,  
 C. Gonzalez-Espinoza,  S. Gulania,  A. Gunina,  M. W. D. Hanson-Heine,  
 P. H. P. Harbach,  A. W. Hauser,  M. F. Herbst,  M. Hernandez Vera,  
 M. Hodecker,  Z. C. Holden,  S. Houck,  Xunkun Huang,  Kerwin Hui,  
 B. C. Huynh,  M. Ivanov,  Hyunjun Ji,  Hanjie Jiang,  B. Kaduk,  S. Kaehler,  
 K. Khistyaev,  Jaehoon Kim,  P. Klunzinger,  Z. Koczor-Benda,  
 Joong Hoon Koh,  D. Kosenkov,  L. Koulias,  T. Kowalczyk,  C. M. Krauter,  
 K. Kue,  A. Kunitsa,  T. Kus,  A. Landau,  K. V. Lawler,  D. Lefrancois,  
 S. Lehtola,  Rain Li,  Yi-Pei Li,  Jiashu Liang,  M. Liebenthal,  
 Hung-Hsuan Lin,  You-Sheng Lin,  Fenglai Liu,  Kuan-Yu Liu,  
 M. Loipersberger,  A. Luenser,  A. Manjanath,  P. Manohar,  E. Mansoor,  
 S. F. Manzer,  Shan-Ping Mao,  A. V. Marenich,  T. Markovich,  S. Mason,  
 S. A. Maurer,  P. F. McLaughlin,  M. F. S. J. Menger,  J.-M. Mewes,  
 S. A. Mewes,  P. Morgante,  J. W. Mullinax,  K. J. Oosterbaan,  G. Paran,  
 Alexander C. Paul,  Suranjan K. Paul,  F. Pavosevic,  Zheng Pei,  S. Prager,  
 E. I. Proynov,  E. Ramos,  B. Rana,  A. E. Rask,  A. Rettig,  R. M. Richard,  
 F. Rob,  E. Rossomme,  T. Scheele,  M. Scheurer,  M. Schneider,  
 N. Sergueev,  S. M. Sharada,  W. Skomorowski,  D. W. Small,  C. J. Stein,  
 Yu-Chuan Su,  E. J. Sundstrom,  Zhen Tao,  J. Thirman,  T. Tsuchimochi,  
 N. M. Tubman,  S. P. Veccham,  O. Vydrov,  J. Wenzel,  J. Witte,  A. Yamada,  
 Kun Yao,  S. Yeganeh,  S. R. Yost,  A. Zech,  Igor Ying Zhang,  Xing Zhang,  
 Yu Zhang,  D. Zuev,  A. Aspuru-Guzik,  A. T. Bell,  N. A. Besley,  
 K. B. Bravaya,  B. R. Brooks,  D. Casanova,  Jeng-Da Chai,  S. Coriani,  
 C. J. Cramer,  A. E. DePrince, III,  R. A. DiStasio Jr.,  A. Dreuw,  
 B. D. Dunietz,  T. R. Furlani,  W. A. Goddard III,  S. Grimme,  
 S. Hammes-Schiffer,  T. Head-Gordon,  W. J. Hehre,  Chao-Ping Hsu,  
 T.-C. Jagau,  Yousung Jung,  A. Klamt,  Jing Kong,  D. S. Lambrecht,  
 WanZhen Liang,  N. J. Mayhall,  C. W. McCurdy,  J. B. Neaton,  
 C. Ochsenfeld,  J. A. Parkhill,  R. Peverati,  V. A. Rassolov,  Yihan Shao,  
 L. V. Slipchenko,  T. Stauch,  R. P. Steele,  J. E. Subotnik,  
 A. J. W. Thom,  A. Tkatchenko,  D. G. Truhlar,  T. Van Voorhis,  
 T. A. Wesolowski,  K. B. Whaley,  H. L. Woodcock III,  P. M. Zimmerman,  
 S. Faraji,  P. M. W. Gill,  M. Head-Gordon,  J. M. Herbert,  A. I. Krylov

 Additional authors for Version 5.4.1: 
 S. Kotaru,  Shaozhi Li,  Xiangyuan Li,  F. Matz,  A. Molle,  Haisheng Ren,  
 Yingli Su,  Hung-Yi Tsai,  C. Utku,  Fang Wang

 Contributors to earlier versions of Q-Chem not listed above: 
 R. D. Adamson,  B. Austin,  R. Baer,  J. Baker,  G. J. O. Beran,  
 K. Brandhorst,  S. T. Brown,  E. F. C. Byrd,  A. K. Chakraborty,  
 G. K. L. Chan,  Chun-Min Chang,  Yunqing Chen,  C.-L. Cheng,  
 Siu Hung Chien,  D. M. Chipman,  D. L. Crittenden,  H. Dachsel,  
 R. J. Doerksen,  A. D. Dutoi,  R. G. Edgar,  J. Fosso-Tande,  
 L. Fusti-Molnar,  D. Ghosh,  A. Ghysels,  A. Golubeva-Zadorozhnaya,  
 J. Gonthier,  M. S. Gordon,  S. R. Gwaltney,  G. Hawkins,  J. E. Herr,  
 A. Heyden,  S. Hirata,  E. G. Hohenstein,  G. Kedziora,  F. J. Keil,  
 C. Kelley,  Jihan Kim,  R. A. King,  R. Z. Khaliullin,  P. P. Korambath,  
 W. Kurlancheek,  A. Laurent,  A. M. Lee,  M. S. Lee,  S. V. Levchenko,  
 Ching Yeh Lin,  D. Liotard,  E. Livshits,  R. C. Lochan,  I. Lotan,  
 L. A. Martinez-Martinez,  P. E. Maslen,  N. Nair,  D. P. O'Neill,  
 D. Neuhauser,  E. Neuscamman,  C. M. Oana,  R. Olivares-Amaya,  R. Olson,  
 T. M. Perrine,  B. Peters,  P. A. Pieniazek,  A. Prociuk,  Y. M. Rhee,  
 J. Ritchie,  M. A. Rohrdanz,  E. Rosta,  N. J. Russ,  H. F. Schaefer III,  
 M. W. Schmidt,  N. E. Schultz,  S. Sharma,  N. Shenvi,  C. D. Sherrill,  
 A. C. Simmonett,  A. Sodt,  T. Stein,  D. Stuck,  K. S. Thanthiriwatte,  
 V. Vanovschi,  L. Vogt,  Tao Wang,  A. Warshel,  M. A. Watson,  
 C. F. Williams,  Q. Wu,  X. Xu,  Jun Yang,  W. Zhang,  Yan Zhao

 Please cite Q-Chem as follows:
 Y. Shao et al., Mol. Phys. 113, 184-215 (2015)
 DOI: 10.1080/00268976.2014.952696

 Q-Chem 5.4.1 for Intel X86 EM64T Linux

 Parts of Q-Chem use Armadillo 9.800.1 (Horizon Scraper).
 http://arma.sourceforge.net/

 Q-Chem begins on Tue Mar 21 11:25:36 2023  

 Host: cpu186.baobab
0

     Scratch files written to /scratch/fum/qchem55379//
 Processing $rem in /home/share/wesolowski/qc5.aug2021.FDE/config/preferences:
 Processing $rem in /home/fum/.qchemrc:

 Checking the input file for inconsistencies... 	...done.

--------------------------------------------------------------
User input:
--------------------------------------------------------------
$comment
generated from CCJob.Templates
$end

$rem
sym_ignore = true
method = adc(2)
ee_states = 10
basis = cc-pVDZ
mem_static = 1024
mem_total = 40000
adc_davidson_maxiter = 900
adc_davidson_conv = 6
adc_print = 3
adc_prop_es = true
adc_prop_es2es = true
adc_prop_tpa = true
molden_format = True
state_analysis = true
print_orbitals = 15
gen_scfman = false
fde_export_density = true
fde_details = 3
$end

$molecule
0 1
H -0.020931707681955736 -0.2488408096516737 0.06506866130775879
C -1.0775410108493277 -0.5240288633519463 -0.0023375524033926428
H -1.3030952884478313 -1.5925233482690735 -0.077725530496058
C -2.0443894008493313 0.39423286634804894 0.006635447896604693
H -1.8234009636478248 1.4629963292309311 0.08189297600395745
H -3.100519299181954 0.1145477716483263 -0.06085972399223427                     
$end
--------------------------------------------------------------
 ----------------------------------------------------------------
             Standard Nuclear Orientation (Angstroms)
    I     Atom           X                Y                Z
 ----------------------------------------------------------------
    1      H      -0.0209317077    -0.2488408097     0.0650686613
    2      C      -1.0775410108    -0.5240288634    -0.0023375524
    3      H      -1.3030952884    -1.5925233483    -0.0777255305
    4      C      -2.0443894008     0.3942328663     0.0066354479
    5      H      -1.8234009636     1.4629963292     0.0818929760
    6      H      -3.1005192992     0.1145477716    -0.0608597240
 ----------------------------------------------------------------
 Nuclear Repulsion Energy =          33.20992707 hartrees
 There are        8 alpha and        8 beta electrons
 Requested basis set is cc-pVDZ
 There are 24 shells and 48 basis functions
 Total memory of 40000 MB is distributed as follows: 
   MEM_STATIC is set to 1024 MB
   QALLOC/CCMAN JOB total memory use is  38976 MB
 Warning: actual memory use might exceed 40000 MB

 Total QAlloc Memory Limit  40000 MB
 Mega-Array Size      1001 MB
 MEM_STATIC part      1024 MB

                       Distance Matrix (Angstroms)
             H (  1)   C (  2)   H (  3)   C (  4)   H (  5)
   C (  2)  1.093936
   H (  3)  1.862744  1.094641
   C (  4)  2.123991  1.333447  2.122224
   H (  5)  2.485873  2.124069  3.103610  1.093963
   H (  6)  3.103509  2.122180  2.478933  1.094619  1.862719

 A cutoff of  1.0D-11 yielded    300 shell pairs
 There are      1220 function pairs (      1329 Cartesian)
 Smallest overlap matrix eigenvalue = 4.81E-03

 Scale SEOQF with 1.000000e-01/1.000000e-01/1.000000e+00

 Standard Electronic Orientation quadrupole field applied
 Nucleus-field energy     =     0.0000000022 hartrees
 Guess from superposition of atomic densities
 Warning:  Energy on first SCF cycle will be non-variational
 SAD guess density has 16.000000 electrons
 A restricted Hartree-Fock SCF calculation will be
 performed using Pulay DIIS extrapolation
 SCF converges when DIIS error is below 1.0E-08
 using 10 threads for integral computing
 -------------------------------------------------------
 OpenMP Integral computing Module                
 Release: version 1.0, May 2013, Q-Chem Inc. Pittsburgh 
 -------------------------------------------------------
 ---------------------------------------
  Cycle       Energy         DIIS Error
 ---------------------------------------
    1     -78.3977766980      9.93E-02
    2     -78.0175889522      7.13E-03
    3     -78.0380549997      1.83E-03
    4     -78.0395311242      5.64E-04
    5     -78.0396487391      5.81E-05
    6     -78.0396506025      9.29E-06
    7     -78.0396506638      1.95E-06
    8     -78.0396506666      1.67E-07
    9     -78.0396506666      1.72E-08
   10     -78.0396506666      3.51E-09 Convergence criterion met
 ---------------------------------------
 SCF time:  CPU 2.05 s  wall 2.43 s
 SCF   energy in the final basis set = -78.03965067
 Total energy in the final basis set = -78.03965067
Exporting Density Matrix to file 'Densmat_SCF.txt'.
Export successful
================================================================================
|                                                                              |
|                                 A D C  M A N                                 |
|                                                                              |
 ------------------------------------------------------------------------------ 
|                                                                              |
| Components:                                                                  |
|                                                                              |
| - libvmm - 1.3-trunk                                                         |
|   Authors:                                                                   |
|   Evgeny Epifanovsky, Ilya Kaliman                                           |
|                                                                              |
| - libtensor - 2.5-trunk                                                      |
|   Authors:                                                                   |
|   Evgeny Epifanovsky, Michael Wormit, Dmitry Zuev, Sam Manzer,               |
|   Ilya Kaliman                                                               |
|                                                                              |
| - libwfa - 1.1-trunk                                                         |
|   Authors:                                                                   |
|   Felix Plasser, Stefanie Mewes (Baeppler), Benjamin Thomitzni,              |
|   Michael Wormit, Feng Chen, Anna I. Krylov, Pavel Pokhilko                  |
|                                                                              |
| - libadc - 1.1-trunk                                                         |
|   Authors:                                                                   |
|   Michael Wormit, Adrian L. Dempwolff, Philipp H. P. Harbach,                |
|   Caroline Krauter, Dirk Rehn, Matthias Schneider, Jan Wenzel                |
|                                                                              |
| - adcman - 2.6-trunk                                                         |
|   Authors:                                                                   |
|   Michael Wormit, Adrian L. Dempwolff, Philipp H. P. Harbach,                |
|   Caroline Krauter, Daniel Lefrancois, Jan-Michael Mewes, Dirk Rehn,         |
|   Matthias Schneider, Jan Wenzel, Andreas Dreuw                              |
|                                                                              |
| Authors of earlier versions of ADCMAN:                                       |
| Andreas Dreuw, Jan Hendrik Starcke, Dirk Rehn, Michael Wormit                |
|                                                                              |
================================================================================

 Created directory /scratch/fum/qchem55379/plots
  Import QC data ...  CPU 0.00 s  wall 0.00 s

 Alpha MOs, Restricted
 -- Occupied --                  
-11.239 -11.237  -1.030  -0.786  -0.635  -0.582  -0.500  -0.374
  1 A     2 A     3 A     4 A     5 A     6 A     7 A     8 A                  
 -- Virtual --                   
  0.168   0.203   0.231   0.236   0.303   0.463   0.580   0.609
  9 A    10 A    11 A    12 A    13 A    14 A    15 A    16 A                  
  0.689   0.705   0.776   0.807   0.858   0.928   0.971   1.006
 17 A    18 A    19 A    20 A    21 A    22 A    23 A    24 A                  
  1.130   1.237   1.241   1.263   1.291   1.593   1.728   1.744
 25 A    26 A    27 A    28 A    29 A    30 A    31 A    32 A                  
  1.811   1.852   1.854   1.901   1.963   1.972   2.224   2.248
 33 A    34 A    35 A    36 A    37 A    38 A    39 A    40 A                  
  2.356   2.423   2.493   2.623   2.679   2.795   3.099   3.369
 41 A    42 A    43 A    44 A    45 A    46 A    47 A    48 A                  

 Beta MOs, Restricted
 -- Occupied --                  
-11.239 -11.237  -1.030  -0.786  -0.635  -0.582  -0.500  -0.374
  1 A     2 A     3 A     4 A     5 A     6 A     7 A     8 A                  
 -- Virtual --                   
  0.168   0.203   0.231   0.236   0.303   0.463   0.580   0.609
  9 A    10 A    11 A    12 A    13 A    14 A    15 A    16 A                  
  0.689   0.705   0.776   0.807   0.858   0.928   0.971   1.006
 17 A    18 A    19 A    20 A    21 A    22 A    23 A    24 A                  
  1.130   1.237   1.241   1.263   1.291   1.593   1.728   1.744
 25 A    26 A    27 A    28 A    29 A    30 A    31 A    32 A                  
  1.811   1.852   1.854   1.901   1.963   1.972   2.224   2.248
 33 A    34 A    35 A    36 A    37 A    38 A    39 A    40 A                  
  2.356   2.423   2.493   2.623   2.679   2.795   3.099   3.369
 41 A    42 A    43 A    44 A    45 A    46 A    47 A    48 A                  
  Import AO data ...  CPU 0.00 s  wall 0.00 s
  Using point group: C1
  Irreducible representations in point group: A
  Molecular orbitals: 
  Occupied MOs:
  Block   0:   1 (  A) A   2 (  A) A   3 (  A) A   4 (  A) A   5 (  A) A
                  -11.24      -11.24       -1.03     -0.7859      -0.635
               6 (  A) A   7 (  A) A   8 (  A) A
                 -0.5823     -0.4995     -0.3744
  Block   1:   1 (  A) B   2 (  A) B   3 (  A) B   4 (  A) B   5 (  A) B
                  -11.24      -11.24       -1.03     -0.7859      -0.635
               6 (  A) B   7 (  A) B   8 (  A) B
                 -0.5823     -0.4995     -0.3744
  Virtual MOs:
  Block   0:   9 (  A) A  10 (  A) A  11 (  A) A  12 (  A) A  13 (  A) A
                  0.1679      0.2026       0.231      0.2364       0.303
              14 (  A) A  15 (  A) A  16 (  A) A  17 (  A) A  18 (  A) A
                  0.4628      0.5798      0.6089      0.6887      0.7048
              19 (  A) A  20 (  A) A  21 (  A) A  22 (  A) A
                  0.7757      0.8074      0.8584       0.928
  Block   1:  23 (  A) A  24 (  A) A  25 (  A) A  26 (  A) A  27 (  A) A
                  0.9706       1.006        1.13       1.237       1.241
              28 (  A) A  29 (  A) A  30 (  A) A  31 (  A) A  32 (  A) A
                   1.263       1.291       1.593       1.728       1.744
              33 (  A) A  34 (  A) A  35 (  A) A  36 (  A) A
                   1.811       1.852       1.854       1.901
  Block   2:  37 (  A) A  38 (  A) A  39 (  A) A  40 (  A) A  41 (  A) A
                   1.963       1.972       2.224       2.248       2.356
              42 (  A) A  43 (  A) A  44 (  A) A  45 (  A) A  46 (  A) A
                   2.423       2.493       2.623       2.679       2.795
              47 (  A) A  48 (  A) A
                   3.099       3.369
  Block   3:   9 (  A) B  10 (  A) B  11 (  A) B  12 (  A) B  13 (  A) B
                  0.1679      0.2026       0.231      0.2364       0.303
              14 (  A) B  15 (  A) B  16 (  A) B  17 (  A) B  18 (  A) B
                  0.4628      0.5798      0.6089      0.6887      0.7048
              19 (  A) B  20 (  A) B  21 (  A) B  22 (  A) B
                  0.7757      0.8074      0.8584       0.928
  Block   4:  23 (  A) B  24 (  A) B  25 (  A) B  26 (  A) B  27 (  A) B
                  0.9706       1.006        1.13       1.237       1.241
              28 (  A) B  29 (  A) B  30 (  A) B  31 (  A) B  32 (  A) B
                   1.263       1.291       1.593       1.728       1.744
              33 (  A) B  34 (  A) B  35 (  A) B  36 (  A) B
                   1.811       1.852       1.854       1.901
  Block   5:  37 (  A) B  38 (  A) B  39 (  A) B  40 (  A) B  41 (  A) B
                   1.963       1.972       2.224       2.248       2.356
              42 (  A) B  43 (  A) B  44 (  A) B  45 (  A) B  46 (  A) B
                   2.423       2.493       2.623       2.679       2.795
              47 (  A) B  48 (  A) B
                   3.099       3.369
  Import MO data ...  CPU 0.01 s  wall 0.01 s
  Import HF data ...  CPU 0.32 s  wall 0.10 s
  Import 2e integrals ...  CPU 1.20 s  wall 0.22 s

--------------------------------------------------------------------------------
                                   HF Summary                                   
--------------------------------------------------------------------------------
  Energy:                                                  -78.0396506666 a.u.
  Dip. moment [a.u.]:                  [   0.000055,    0.000065,    0.000070]
  Total dipole [Debye]:                                               0.000280
  <r^2> [a.u.]:                        [ 175.802709,   35.296548,   11.680405]
  Total <r^2> [a.u.]:                                               222.779662
--------------------------------------------------------------------------------
  HF properties ...  CPU 0.03 s  wall 0.02 s
  MP(1) calculation ...  CPU 0.01 s  wall 0.02 s
  N^6 prerequesite intermediates ...  CPU 0.74 s  wall 0.13 s
  Difference density matrix of state mp2_gs printed to ASCII file 'State_mp2_gs_Difference.txt'
Exporting MP density matrix to file 'Densmat_MP.txt'.
Export successful
  Total density matrix of state mp2_gs printed to ASCII file 'State_mp2_gs_Total.txt'
Exporting MP density matrix to file 'Densmat_MP.txt'.
Export successful

--------------------------------------------------------------------------------
                                 MP(2) Summary                                  
--------------------------------------------------------------------------------
  MP energy contribution:                                   -0.2804886710 a.u.
  Total energy:                                            -78.3201393376 a.u.
  Dip. moment [a.u.]:                  [  -0.000044,   -0.000041,    0.000058]
  Total dipole [Debye]:                                               0.000212
  <r^2> [a.u.]:                        [ 175.842359,   35.332328,   11.507985]
  Total <r^2> [a.u.]:                                               222.682673

  Density matrix analysis:
  ------------------------
  NOs
    Occupation of frontier NOs:
       0.0455   1.9380
    Number of electrons: 16.000000
    Number of unpaired electrons: n_u =  0.40725, n_u,nl =  0.04580
    NO participation ratio (PR_NO): 13.896601
  
  
  Mulliken Population Analysis
  Atom      Charge (e)              h+              e-           Del q
  --------------------------------------------------------------------
   1 H        0.054966        0.013904       -0.011311        0.002593
   2 C       -0.109941        0.094594       -0.099790       -0.005195
   3 H        0.054981        0.013909       -0.011307        0.002602
   4 C       -0.109950        0.094594       -0.099790       -0.005196
   5 H        0.054973        0.013904       -0.011311        0.002593
   6 H        0.054971        0.013910       -0.011307        0.002603
  --------------------------------------------------------------------
  Sum:       -0.000000        0.244816       -0.244816       -0.000000
  
  Multipole moment analysis of the density matrix
    Molecular charge:                      -0.000000
    Number of electrons:                   16.000000
      Center of electronic charge [Ang]: [ -1.561219,  -0.065161,   0.002133]
    Total nuclear charge:                  16.000000
      Center of nuclear charge [Ang]:    [ -1.561221,  -0.065162,   0.002135]
    Dipole moment [D]:                     0.000212
      Cartesian components [D]:          [ -0.000112,  -0.000103,   0.000148]
    RMS size of the density [Ang]:         1.206519
      Cartesian components [Ang]:        [  0.800093,   0.783666,   0.448782]
  
  Exciton analysis of the difference density matrix
    <r_h> [Ang]:                  [ -1.561372,  -0.065322,   0.002106]
    <r_e> [Ang]:                  [ -1.561157,  -0.065094,   0.002132]
    |<r_e - r_h>| [Ang]:            0.000314
    Hole size [Ang]:                1.401654
      Cartesian components [Ang]: [  0.853003,   0.840244,   0.728705]
    Electron size [Ang]:            1.361761
      Cartesian components [Ang]: [  0.879567,   0.864272,   0.577746]
--------------------------------------------------------------------------------
  MP(2) calculation ...  CPU 0.39 s  wall 0.21 s
  Start ADC(2)-s ...  CPU 0.02 s  wall 0.01 s
  ADC(2) intermediates ...  CPU 0.04 s  wall 0.01 s
  Starting Davidson for singlet states of irrep A ... 
--------------------------------------------------------------------------------
   It NVec Conv  Avg. Norm  Max. Norm  Conv. states           Remark
--------------------------------------------------------------------------------
        10    0  1.329e-01  4.687e-01  0.4117 n n n n n n n n Guess.
    1   20    0  2.312e-02  1.125e-01  0.3261 n n n n n n n n 
    2   30    0  5.846e-03  2.461e-02  0.3213 n n n n n n n n 
    3   40    0  1.751e-03  1.049e-02  0.3209 n n n n n n n n 
    4   50    0  4.963e-04  3.451e-03  0.3209 n n n n n n n n 
    5   20    0  2.543e-04  1.665e-03  0.3209 n n n n n n n n Subspace collapsed.
    6   30    0  1.086e-04  7.730e-04  0.3209 n n n n n n n n 
    7   40    0  6.780e-05  5.842e-04  0.3209 n n n n n n n n 
    8   50    0  3.862e-05  3.328e-04  0.3209 n n n n n n n n 
    9   20    1  2.491e-05  2.259e-04  0.3209 n y n n n n n n Subspace collapsed.
   10   30    5  2.056e-05  1.927e-04  0.3209 n y y y y y n n 
   11   40    5  8.703e-06  8.058e-05  0.3209 n y y y y y n n 
   12   50    6  3.633e-06  3.157e-05  0.3209 y y y y y y n n 
   13   20    7  2.003e-06  1.717e-05  0.3209 y y y y y y n y Subspace collapsed.
   14   30    8  1.377e-06  1.230e-05  0.3209 y y y y y y n y 
   15   40    8  9.922e-07  9.328e-06  0.3209 y y y y y y n y 
   16   50    8  4.467e-07  3.851e-06  0.3209 y y y y y y n y 
   17   20    8  1.816e-07  1.475e-06  0.3209 y y y y y y n y Subspace collapsed.
   18   30    9  1.680e-07  1.439e-06  0.3209 y y y y y y n y 
   19   40   10  1.086e-07  9.282e-07  0.3209 y y y y y y y y Converged.
--------------------------------------------------------------------------------
  Davidson Summary: 
 ------------------------------------------------------------
  State  0: excitation energy =   0.3209 a.u.   (converged)
  State  1: excitation energy =   0.3290 a.u.   (converged)
  State  2: excitation energy =   0.3359 a.u.   (converged)
  State  3: excitation energy =   0.3579 a.u.   (converged)
  State  4: excitation energy =   0.3733 a.u.   (converged)
  State  5: excitation energy =   0.3866 a.u.   (converged)
  State  6: excitation energy =   0.4202 a.u.   (converged)
  State  7: excitation energy =   0.4435 a.u.   (converged)
  State  8: excitation energy =   0.4537 a.u.   (converged)
  State  9: excitation energy =   0.4585 a.u.   (converged)
 ------------------------------------------------------------

  Singlet states of irrep A ...  CPU 149.41 s  wall 48.47 s
  TDMs ...  CPU 2.77 s  wall 0.98 s
  SDMs ...  CPU 5.38 s  wall 1.72 s
  Starting TPA DIIS iterations ... 
------------------------------------ 
   It     Res. Norm  Remark
------------------------------------
                       Guess.
    1     4.397e+00  
    2     5.834e+00  
    3     1.086e+00  
    4     2.633e-01  
    5     6.571e-02  
    6     2.778e-02  
    7     8.477e-03  
    8     1.552e-03  
    9     5.828e-04  
   10     9.776e-05  
   11     3.154e-05  
   12     4.881e-06  
   13     1.645e-06  
   14     4.794e-07  Converged.
   ... Converged in 14 steps (norm: 4.79445e-07)
------------------------------------
  Starting TPA DIIS iterations ... 
------------------------------------ 
   It     Res. Norm  Remark
------------------------------------
                       Guess.
    1     4.187e+00  
    2     5.545e+00  
    3     1.037e+00  
    4     2.614e-01  
    5     6.544e-02  
    6     2.777e-02  
    7     8.334e-03  
    8     1.571e-03  
    9     5.918e-04  
   10     9.730e-05  
   11     3.185e-05  
   12     4.849e-06  
   13     1.672e-06  
   14     4.751e-07  Converged.
   ... Converged in 14 steps (norm: 4.7509e-07)
------------------------------------
  Starting TPA DIIS iterations ... 
------------------------------------ 
   It     Res. Norm  Remark
------------------------------------
                       Guess.
    1     6.855e-01  
    2     4.794e-01  
    3     1.687e-01  
    4     6.350e-02  
    5     1.873e-02  
    6     6.689e-03  
    7     1.073e-03  
    8     4.587e-04  
    9     1.265e-04  
   10     3.092e-05  
   11     5.286e-06  
   12     1.859e-06  
   13     9.717e-07  Converged.
   ... Converged in 13 steps (norm: 9.7169e-07)
------------------------------------
  Starting TPA DIIS iterations ... 
------------------------------------ 
   It     Res. Norm  Remark
------------------------------------
                       Guess.
    1     4.593e+00  
    2     6.185e+00  
    3     1.142e+00  
    4     2.833e-01  
    5     7.138e-02  
    6     3.038e-02  
    7     9.259e-03  
    8     1.693e-03  
    9     6.393e-04  
   10     1.077e-04  
   11     3.497e-05  
   12     5.444e-06  
   13     1.844e-06  
   14     5.361e-07  Converged.
   ... Converged in 14 steps (norm: 5.3611e-07)
------------------------------------
  Starting TPA DIIS iterations ... 
------------------------------------ 
   It     Res. Norm  Remark
------------------------------------
                       Guess.
    1     4.373e+00  
    2     5.879e+00  
    3     1.090e+00  
    4     2.811e-01  
    5     7.110e-02  
    6     3.039e-02  
    7     9.104e-03  
    8     1.715e-03  
    9     6.494e-04  
   10     1.072e-04  
   11     3.530e-05  
   12     5.406e-06  
   13     1.875e-06  
   14     5.311e-07  Converged.
   ... Converged in 14 steps (norm: 5.31061e-07)
------------------------------------
  Starting TPA DIIS iterations ... 
------------------------------------ 
   It     Res. Norm  Remark
------------------------------------
                       Guess.
    1     6.938e-01  
    2     4.912e-01  
    3     1.753e-01  
    4     6.918e-02  
    5     1.971e-02  
    6     7.109e-03  
    7     1.166e-03  
    8     5.140e-04  
    9     1.442e-04  
   10     3.426e-05  
   11     5.774e-06  
   12     2.085e-06  
   13     1.133e-06  
   14     4.375e-07  Converged.
   ... Converged in 14 steps (norm: 4.3751e-07)
------------------------------------
  Starting TPA DIIS iterations ... 
------------------------------------ 
   It     Res. Norm  Remark
------------------------------------
                       Guess.
    1     4.773e+00  
    2     6.512e+00  
    3     1.193e+00  
    4     3.021e-01  
    5     7.674e-02  
    6     3.285e-02  
    7     9.998e-03  
    8     1.827e-03  
    9     6.929e-04  
   10     1.171e-04  
   11     3.826e-05  
   12     5.985e-06  
   13     2.037e-06  
   14     5.906e-07  Converged.
   ... Converged in 14 steps (norm: 5.90599e-07)
------------------------------------
  Starting TPA DIIS iterations ... 
------------------------------------ 
   It     Res. Norm  Remark
------------------------------------
                       Guess.
    1     4.544e+00  
    2     6.189e+00  
    3     1.138e+00  
    4     2.996e-01  
    5     7.645e-02  
    6     3.287e-02  
    7     9.832e-03  
    8     1.852e-03  
    9     7.041e-04  
   10     1.166e-04  
   11     3.860e-05  
   12     5.941e-06  
   13     2.072e-06  
   14     5.849e-07  Converged.
   ... Converged in 14 steps (norm: 5.84896e-07)
------------------------------------
  Starting TPA DIIS iterations ... 
------------------------------------ 
   It     Res. Norm  Remark
------------------------------------
                       Guess.
    1     7.011e-01  
    2     5.018e-01  
    3     1.813e-01  
    4     7.463e-02  
    5     2.059e-02  
    6     7.504e-03  
    7     1.254e-03  
    8     5.683e-04  
    9     1.615e-04  
   10     3.700e-05  
   11     6.231e-06  
   12     2.305e-06  
   13     1.298e-06  
   14     4.935e-07  Converged.
   ... Converged in 14 steps (norm: 4.93498e-07)
------------------------------------
  Starting TPA DIIS iterations ... 
------------------------------------ 
   It     Res. Norm  Remark
------------------------------------
                       Guess.
    1     5.423e+00  
    2     7.722e+00  
    3     1.377e+00  
    4     3.743e-01  
    5     9.726e-02  
    6     4.241e-02  
    7     1.283e-02  
    8     2.339e-03  
    9     9.003e-04  
   10     1.536e-04  
   11     5.123e-05  
   12     8.125e-06  
   13     2.815e-06  
   14     8.073e-07  Converged.
   ... Converged in 14 steps (norm: 8.07319e-07)
------------------------------------
  Starting TPA DIIS iterations ... 
------------------------------------ 
   It     Res. Norm  Remark
------------------------------------
                       Guess.
    1     5.161e+00  
    2     7.338e+00  
    3     1.313e+00  
    4     3.705e-01  
    5     9.691e-02  
    6     4.249e-02  
    7     1.262e-02  
    8     2.376e-03  
    9     9.156e-04  
   10     1.530e-04  
   11     5.163e-05  
   12     8.054e-06  
   13     2.867e-06  
   14     7.993e-07  Converged.
   ... Converged in 14 steps (norm: 7.99251e-07)
------------------------------------
  Starting TPA DIIS iterations ... 
------------------------------------ 
   It     Res. Norm  Remark
------------------------------------
                       Guess.
    1     7.252e-01  
    2     5.380e-01  
    3     2.026e-01  
    4     9.603e-02  
    5     2.377e-02  
    6     9.019e-03  
    7     1.606e-03  
    8     7.862e-04  
    9     2.299e-04  
   10     4.386e-05  
   11     7.975e-06  
   12     3.198e-06  
   13     2.020e-06  
   14     7.278e-07  Converged.
   ... Converged in 14 steps (norm: 7.27822e-07)
------------------------------------
  Starting TPA DIIS iterations ... 
------------------------------------ 
   It     Res. Norm  Remark
------------------------------------
                       Guess.
    1     5.973e+00  
    2     8.779e+00  
    3     1.531e+00  
    4     4.400e-01  
    5     1.159e-01  
    6     5.121e-02  
    7     1.541e-02  
    8     2.804e-03  
    9     1.091e-03  
   10     1.873e-04  
   11     6.341e-05  
   12     1.014e-05  
   13     3.562e-06  
   14     1.015e-06  
   15     3.302e-07  Converged.
   ... Converged in 15 steps (norm: 3.3024e-07)
------------------------------------
  Starting TPA DIIS iterations ... 
------------------------------------ 
   It     Res. Norm  Remark
------------------------------------
                       Guess.
    1     5.683e+00  
    2     8.342e+00  
    3     1.460e+00  
    4     4.349e-01  
    5     1.155e-01  
    6     5.135e-02  
    7     1.517e-02  
    8     2.852e-03  
    9     1.110e-03  
   10     1.865e-04  
   11     6.383e-05  
   12     1.004e-05  
   13     3.630e-06  
   14     1.005e-06  
   15     3.307e-07  Converged.
   ... Converged in 15 steps (norm: 3.30696e-07)
------------------------------------
  Starting TPA DIIS iterations ... 
------------------------------------ 
   It     Res. Norm  Remark
------------------------------------
                       Guess.
    1     7.432e-01  
    2     5.667e-01  
    3     2.199e-01  
    4     1.160e-01  
    5     2.649e-02  
    6     1.040e-02  
    7     1.942e-03  
    8     9.854e-04  
    9     2.908e-04  
   10     4.660e-05  
   11     9.585e-06  
   12     4.055e-06  
   13     2.784e-06  
   14     9.644e-07  Converged.
   ... Converged in 14 steps (norm: 9.64432e-07)
------------------------------------
  Starting TPA DIIS iterations ... 
------------------------------------ 
   It     Res. Norm  Remark
------------------------------------
                       Guess.
    1     6.524e+00  
    2     9.869e+00  
    3     1.685e+00  
    4     5.097e-01  
    5     1.357e-01  
    6     6.065e-02  
    7     1.815e-02  
    8     3.295e-03  
    9     1.295e-03  
   10     2.234e-04  
   11     7.657e-05  
   12     1.231e-05  
   13     4.381e-06  
   14     1.247e-06  
   15     4.086e-07  Converged.
   ... Converged in 15 steps (norm: 4.08621e-07)
------------------------------------
  Starting TPA DIIS iterations ... 
------------------------------------ 
   It     Res. Norm  Remark
------------------------------------
                       Guess.
    1     6.206e+00  
    2     9.377e+00  
    3     1.606e+00  
    4     5.031e-01  
    5     1.352e-01  
    6     6.086e-02  
    7     1.787e-02  
    8     3.356e-03  
    9     1.318e-03  
   10     2.225e-04  
   11     7.699e-05  
   12     1.217e-05  
   13     4.464e-06  
   14     1.235e-06  
   15     4.093e-07  Converged.
   ... Converged in 15 steps (norm: 4.09286e-07)
------------------------------------
  Starting TPA DIIS iterations ... 
------------------------------------ 
   It     Res. Norm  Remark
------------------------------------
                       Guess.
    1     7.594e-01  
    2     5.938e-01  
    3     2.368e-01  
    4     1.376e-01  
    5     2.929e-02  
    6     1.187e-02  
    7     2.316e-03  
    8     1.185e-03  
    9     3.513e-04  
   10     4.801e-05  
   11     1.135e-05  
   12     4.989e-06  
   13     3.678e-06  
   14     1.237e-06  
   15     4.256e-07  Converged.
   ... Converged in 15 steps (norm: 4.25633e-07)
------------------------------------
  Starting TPA DIIS iterations ... 
------------------------------------ 
   It     Res. Norm  Remark
------------------------------------
                       Guess.
    1     8.345e+00  
    2     1.366e+01  
    3     2.185e+00  
    4     7.631e-01  
    5     2.077e-01  
    6     9.571e-02  
    7     2.814e-02  
    8     5.080e-03  
    9     2.050e-03  
   10     3.566e-04  
   11     1.248e-04  
   12     2.040e-05  
   13     7.400e-06  
   14     2.191e-06  
   15     7.046e-07  Converged.
   ... Converged in 15 steps (norm: 7.04585e-07)
------------------------------------
  Starting TPA DIIS iterations ... 
------------------------------------ 
   It     Res. Norm  Remark
------------------------------------
                       Guess.
    1     7.934e+00  
    2     1.298e+01  
    3     2.081e+00  
    4     7.504e-01  
    5     2.070e-01  
    6     9.623e-02  
    7     2.771e-02  
    8     5.188e-03  
    9     2.089e-03  
   10     3.552e-04  
   11     1.251e-04  
   12     2.013e-05  
   13     7.532e-06  
   14     2.172e-06  
   15     7.077e-07  Converged.
   ... Converged in 15 steps (norm: 7.07663e-07)
------------------------------------
  Starting TPA DIIS iterations ... 
------------------------------------ 
   It     Res. Norm  Remark
------------------------------------
                       Guess.
    1     8.039e-01  
    2     6.749e-01  
    3     2.896e-01  
    4     2.158e-01  
    5     3.916e-02  
    6     1.722e-02  
    7     3.777e-03  
    8     1.729e-03  
    9     5.369e-04  
   10     5.563e-05  
   11     1.832e-05  
   12     8.420e-06  
   13     7.362e-06  
   14     2.400e-06  
   15     8.089e-07  Converged.
   ... Converged in 15 steps (norm: 8.08934e-07)
------------------------------------
  Starting TPA DIIS iterations ... 
------------------------------------ 
   It     Res. Norm  Remark
------------------------------------
                       Guess.
    1     1.014e+01  
    2     1.767e+01  
    3     2.668e+00  
    4     1.041e+00  
    5     2.873e-01  
    6     1.354e-01  
    7     3.920e-02  
    8     7.045e-03  
    9     2.901e-03  
   10     5.058e-04  
   11     1.764e-04  
   12     2.963e-05  
   13     1.062e-05  
   14     3.392e-06  
   15     1.089e-06  
   16     2.317e-07  Converged.
   ... Converged in 16 steps (norm: 2.31703e-07)
------------------------------------
  Starting TPA DIIS iterations ... 
------------------------------------ 
   It     Res. Norm  Remark
------------------------------------
                       Guess.
    1     9.641e+00  
    2     1.678e+01  
    3     2.539e+00  
    4     1.021e+00  
    5     2.865e-01  
    6     1.364e-01  
    7     3.861e-02  
    8     7.210e-03  
    9     2.957e-03  
   10     5.036e-04  
   11     1.767e-04  
   12     2.920e-05  
   13     1.081e-05  
   14     3.355e-06  
   15     1.103e-06  
   16     2.581e-07  Converged.
   ... Converged in 16 steps (norm: 2.58077e-07)
------------------------------------
  Starting TPA DIIS iterations ... 
------------------------------------ 
   It     Res. Norm  Remark
------------------------------------
                       Guess.
    1     8.385e-01  
    2     7.458e-01  
    3     3.381e-01  
    4     2.959e-01  
    5     4.969e-02  
    6     2.291e-02  
    7     5.483e-03  
    8     2.028e-03  
    9     7.005e-04  
   10     7.292e-05  
   11     2.678e-05  
   12     1.205e-05  
   13     1.169e-05  
   14     3.978e-06  
   15     1.494e-06  
   16     1.225e-06  
   17     5.366e-07  Converged.
   ... Converged in 17 steps (norm: 5.36556e-07)
------------------------------------
  Starting TPA DIIS iterations ... 
------------------------------------ 
   It     Res. Norm  Remark
------------------------------------
                       Guess.
    1     1.114e+01  
    2     1.997e+01  
    3     2.929e+00  
    4     1.203e+00  
    5     3.343e-01  
    6     1.592e-01  
    7     4.573e-02  
    8     8.201e-03  
    9     3.408e-03  
   10     5.941e-04  
   11     2.057e-04  
   12     3.530e-05  
   13     1.253e-05  
   14     4.154e-06  
   15     1.388e-06  
   16     2.904e-07  Converged.
   ... Converged in 16 steps (norm: 2.90364e-07)
------------------------------------
  Starting TPA DIIS iterations ... 
------------------------------------ 
   It     Res. Norm  Remark
------------------------------------
                       Guess.
    1     1.058e+01  
    2     1.897e+01  
    3     2.787e+00  
    4     1.178e+00  
    5     3.334e-01  
    6     1.604e-01  
    7     4.505e-02  
    8     8.401e-03  
    9     3.474e-03  
   10     5.914e-04  
   11     2.061e-04  
   12     3.477e-05  
   13     1.275e-05  
   14     4.100e-06  
   15     1.413e-06  
   16     3.260e-07  Converged.
   ... Converged in 16 steps (norm: 3.25973e-07)
------------------------------------
  Starting TPA DIIS iterations ... 
------------------------------------ 
   It     Res. Norm  Remark
------------------------------------
                       Guess.
    1     8.548e-01  
    2     7.821e-01  
    3     3.636e-01  
    4     3.383e-01  
    5     5.574e-02  
    6     2.608e-02  
    7     6.497e-03  
    8     2.117e-03  
    9     7.852e-04  
   10     8.488e-05  
   11     3.201e-05  
   12     1.412e-05  
   13     1.427e-05  
   14     5.052e-06  
   15     2.093e-06  
   16     1.680e-06  
   17     7.776e-07  Converged.
   ... Converged in 17 steps (norm: 7.77641e-07)
------------------------------------
  Starting TPA DIIS iterations ... 
------------------------------------ 
   It     Res. Norm  Remark
------------------------------------
                       Guess.
    1     1.165e+01  
    2     2.120e+01  
    3     3.063e+00  
    4     1.290e+00  
    5     3.595e-01  
    6     1.721e-01  
    7     4.923e-02  
    8     8.821e-03  
    9     3.681e-03  
   10     6.416e-04  
   11     2.211e-04  
   12     3.842e-05  
   13     1.358e-05  
   14     4.577e-06  
   15     1.575e-06  
   16     3.236e-07  Converged.
   ... Converged in 16 steps (norm: 3.23598e-07)
------------------------------------
  Starting TPA DIIS iterations ... 
------------------------------------ 
   It     Res. Norm  Remark
------------------------------------
                       Guess.
    1     1.107e+01  
    2     2.014e+01  
    3     2.915e+00  
    4     1.262e+00  
    5     3.585e-01  
    6     1.734e-01  
    7     4.850e-02  
    8     9.040e-03  
    9     3.753e-03  
   10     6.385e-04  
   11     2.217e-04  
   12     3.783e-05  
   13     1.381e-05  
   14     4.512e-06  
   15     1.606e-06  
   16     3.637e-07  Converged.
   ... Converged in 16 steps (norm: 3.63725e-07)
------------------------------------
  Starting TPA DIIS iterations ... 
------------------------------------ 
   It     Res. Norm  Remark
------------------------------------
                       Guess.
    1     8.627e-01  
    2     8.003e-01  
    3     3.765e-01  
    4     3.594e-01  
    5     5.893e-02  
    6     2.770e-02  
    7     7.039e-03  
    8     2.150e-03  
    9     8.282e-04  
   10     9.144e-05  
   11     3.487e-05  
   12     1.522e-05  
   13     1.568e-05  
   14     5.672e-06  
   15     2.478e-06  
   16     1.951e-06  
   17     9.230e-07  Converged.
   ... Converged in 17 steps (norm: 9.23014e-07)
------------------------------------
  Two-photon absorbption ...  CPU 166.24 s  wall 45.16 s
  Transition density matrix of state singlet_A_1 printed to ASCII file 'State_singlet_A_1_Transition.txt'
  Transition density matrix of state singlet_A_2 printed to ASCII file 'State_singlet_A_2_Transition.txt'
  Transition density matrix of state singlet_A_3 printed to ASCII file 'State_singlet_A_3_Transition.txt'
  Transition density matrix of state singlet_A_4 printed to ASCII file 'State_singlet_A_4_Transition.txt'
  Transition density matrix of state singlet_A_5 printed to ASCII file 'State_singlet_A_5_Transition.txt'
  Transition density matrix of state singlet_A_6 printed to ASCII file 'State_singlet_A_6_Transition.txt'
  Transition density matrix of state singlet_A_7 printed to ASCII file 'State_singlet_A_7_Transition.txt'
  Transition density matrix of state singlet_A_8 printed to ASCII file 'State_singlet_A_8_Transition.txt'
  Transition density matrix of state singlet_A_9 printed to ASCII file 'State_singlet_A_9_Transition.txt'
  Transition density matrix of state singlet_A_10 printed to ASCII file 'State_singlet_A_10_Transition.txt'
  Transition properties ...  CPU 0.46 s  wall 0.58 s
  Difference density matrix of state singlet_A_1 printed to ASCII file 'State_singlet_A_1_Difference.txt'
  Total density matrix of state singlet_A_1 printed to ASCII file 'State_singlet_A_1_Total.txt'
  Difference density matrix of state singlet_A_2 printed to ASCII file 'State_singlet_A_2_Difference.txt'
  Total density matrix of state singlet_A_2 printed to ASCII file 'State_singlet_A_2_Total.txt'
  Difference density matrix of state singlet_A_3 printed to ASCII file 'State_singlet_A_3_Difference.txt'
  Total density matrix of state singlet_A_3 printed to ASCII file 'State_singlet_A_3_Total.txt'
  Difference density matrix of state singlet_A_4 printed to ASCII file 'State_singlet_A_4_Difference.txt'
  Total density matrix of state singlet_A_4 printed to ASCII file 'State_singlet_A_4_Total.txt'
  Difference density matrix of state singlet_A_5 printed to ASCII file 'State_singlet_A_5_Difference.txt'
  Total density matrix of state singlet_A_5 printed to ASCII file 'State_singlet_A_5_Total.txt'
  Difference density matrix of state singlet_A_6 printed to ASCII file 'State_singlet_A_6_Difference.txt'
  Total density matrix of state singlet_A_6 printed to ASCII file 'State_singlet_A_6_Total.txt'
  Difference density matrix of state singlet_A_7 printed to ASCII file 'State_singlet_A_7_Difference.txt'
  Total density matrix of state singlet_A_7 printed to ASCII file 'State_singlet_A_7_Total.txt'
  Difference density matrix of state singlet_A_8 printed to ASCII file 'State_singlet_A_8_Difference.txt'
  Total density matrix of state singlet_A_8 printed to ASCII file 'State_singlet_A_8_Total.txt'
  Difference density matrix of state singlet_A_9 printed to ASCII file 'State_singlet_A_9_Difference.txt'
  Total density matrix of state singlet_A_9 printed to ASCII file 'State_singlet_A_9_Total.txt'
  Difference density matrix of state singlet_A_10 printed to ASCII file 'State_singlet_A_10_Difference.txt'
  Total density matrix of state singlet_A_10 printed to ASCII file 'State_singlet_A_10_Total.txt'
  Properties ...  CPU 0.68 s  wall 0.95 s
  ISR TDMS ...  CPU 29.61 s  wall 9.52 s
  ISR transition properties ...  CPU 0.48 s  wall 0.23 s
  Sum-over-states TPA ...  CPU 0.00 s  wall 0.00 s

--------------------------------------------------------------------------------
                   State-averaged natural transition orbitals
--------------------------------------------------------------------------------
--------------------------------------------------------------------------------
  SA-NTO decomposition ...  CPU 0.01 s  wall 0.03 s

--------------------------------------------------------------------------------
                             Excited State Summary
--------------------------------------------------------------------------------
--------------------------------------------------------------------------------

  Excited state 1 (singlet, A)                                     [converged]
  ----------------------------------------------------------------------------
  Term symbol:  2 (1) A                                     R^2 =  1.96265e-10

  Total energy:                                            -77.9992509929 a.u.
  Excitation energy:                                               8.731816 eV

  Osc. strength:                                                      0.446208
  Trans. dip. moment [a.u.]:           [   1.047180,   -0.994548,   -0.009708]
  <i|r^2|0> [a.u.]:                    [   6.179863,   -0.245926,    0.000145]
  Two-photon absorption cross-section (SoS) [a.u.]:                   0.000133
  Two-photon absorption matrix (SoS) [a.u.]:
                                       |    0.004092    0.000205    0.000185 |
                                       |    0.000205   -0.004053   -0.000134 |
                                       |    0.000185   -0.000134    0.000021 |
  Two-photon absorption cross-section [a.u.]:                         0.000350
  Two-photon absorption matrix [a.u.]:
                                       |    0.006595    0.000352    0.000019 |
                                       |    0.000352   -0.006581   -0.000482 |
                                       |    0.000019   -0.000482   -0.000042 |

  Dip. moment [a.u.]:                  [  -0.000159,   -0.000163,    0.000059]
  Total dipole [Debye]:                                               0.000598
  <r^2> [a.u.]:                        [ 176.588346,   36.018581,   11.918961]
  Total <r^2> [a.u.]:                                               224.525888

  V1^2 = 0.9713, V2^2 = 0.0287

  Important amplitudes:
      occ i     occ j     vir a      vir b          v   
    -----------------------------------------------------
     8 (A) A              9 (A) A                 0.6809
     6 (A) A             14 (A) A                -0.0617
     4 (A) A             10 (A) A                 0.0614
     7 (A) A             16 (A) A                -0.0575
     5 (A) A             13 (A) A                -0.0527
     6 (A) A             23 (A) A                -0.0485
     8 (A) A             20 (A) A                 0.0348
     6 (A) A             19 (A) A                -0.0302
     3 (A) A             12 (A) A                -0.0285
     5 (A) A             22 (A) A                 0.0218
     4 (A) A             24 (A) A                 0.0188
     3 (A) A             26 (A) A                 0.0186
     7 (A) A             11 (A) A                -0.0186
     8 (A) A   8 (A) B   17 (A) A   20 (A) B     -0.0184
     8 (A) A   8 (A) B    9 (A) A   28 (A) B     -0.0168
     6 (A) A             26 (A) A                 0.0163
     7 (A) A             21 (A) A                -0.0152
     3 (A) A             14 (A) A                -0.0143
     6 (A) A             12 (A) A                 0.0136
     3 (A) A   4 (A) B    9 (A) A    9 (A) B     -0.0129
     3 (A) A             19 (A) A                -0.0121
     8 (A) A   8 (A) B   18 (A) A   19 (A) B      0.0111
     7 (A) A             32 (A) A                -0.0097
     7 (A) A             36 (A) A                 0.0086
     3 (A) A             23 (A) A                -0.0082
     8 (A) A   8 (A) B   25 (A) A   29 (A) B     -0.0076
     6 (A) A             35 (A) A                 0.0072
     6 (A) A             40 (A) A                 0.0067
     3 (A) A   6 (A) B    9 (A) A   28 (A) B     -0.0065
     5 (A) A   8 (A) B   11 (A) A    9 (A) B      0.0062
     7 (A) A   8 (A) B   13 (A) A   20 (A) B     -0.0060
     5 (A) A   8 (A) B   11 (A) A   20 (A) B     -0.0060
     5 (A) A   7 (A) B    9 (A) A    9 (A) B      0.0060
     6 (A) A   8 (A) A   19 (A) A   28 (A) A     -0.0060
     5 (A) A             27 (A) A                -0.0060
     5 (A) A   8 (A) B   16 (A) A    9 (A) B     -0.0059
     3 (A) A   5 (A) B    9 (A) A   25 (A) B     -0.0058
     7 (A) A   8 (A) B   22 (A) A   20 (A) B      0.0057
     3 (A) A             40 (A) A                 0.0056
     8 (A) A   8 (A) B   19 (A) A   30 (A) B      0.0056
    -----------------------------------------------------

  Density matrix analysis:
  ------------------------
  NOs
    Occupation of frontier NOs:
       0.9491   1.0219
    Number of electrons: 16.000000
    Number of unpaired electrons: n_u =  2.31678, n_u,nl =  2.03329
    NO participation ratio (PR_NO):  2.874068
  
  
  Mulliken Population Analysis
  Atom      Charge (e)              h+              e-           Del q
  --------------------------------------------------------------------
   1 H        0.062987        0.020432       -0.012410        0.008022
   2 C       -0.125979        0.490666       -0.506704       -0.016038
   3 H        0.062999        0.020444       -0.012426        0.008017
   4 C       -0.125991        0.490665       -0.506705       -0.016040
   5 H        0.062997        0.020434       -0.012410        0.008024
   6 H        0.062987        0.020443       -0.012427        0.008016
  --------------------------------------------------------------------
  Sum:       -0.000000        1.063083       -1.063083       -0.000000
  
  Multipole moment analysis of the density matrix
    Molecular charge:                      0.000000
    Number of electrons:                   16.000000
      Center of electronic charge [Ang]: [ -1.561215,  -0.065157,   0.002133]
    Total nuclear charge:                  16.000000
      Center of nuclear charge [Ang]:    [ -1.561221,  -0.065162,   0.002135]
    Dipole moment [D]:                     0.000598
      Cartesian components [D]:          [ -0.000403,  -0.000415,   0.000150]
    RMS size of the density [Ang]:         1.219820
      Cartesian components [Ang]:        [  0.808219,   0.791293,   0.456726]
  
  Exciton analysis of the difference density matrix
    <r_h> [Ang]:                  [ -1.561084,  -0.065021,   0.002117]
    <r_e> [Ang]:                  [ -1.561027,  -0.064960,   0.002117]
    |<r_e - r_h>| [Ang]:            0.000084
    Hole size [Ang]:                1.287297
      Cartesian components [Ang]: [  0.730184,   0.714790,   0.782968]
    Electron size [Ang]:            1.463846
      Cartesian components [Ang]: [  0.854312,   0.831685,   0.849291]

  Transition density matrix analysis:
  -----------------------------------
  
  CT numbers (Mulliken)
    omega =     0.9532
    <Phe> =    -0.1603
  
  Exciton analysis of the transition density matrix
    Trans. dipole moment [D]:             1.835436
      Cartesian components [D]:         [  1.330833,  -1.263945,  -0.012338]
    <r_h> [Ang]:                        [ -1.561053,  -0.064991,   0.002126]
    <r_e> [Ang]:                        [ -1.561039,  -0.064973,   0.002110]
    |<r_e - r_h>| [Ang]:                  0.000027
    Hole size [Ang]:                      1.214402
      Cartesian components [Ang]:       [  0.649921,   0.637059,   0.804072]
    Electron size [Ang]:                  1.486740
      Cartesian components [Ang]:       [  0.864777,   0.840557,   0.869494]
    RMS electron-hole separation [Ang]:   1.937164
      Cartesian components [Ang]:       [  1.106770,   1.076278,   1.170166]
    Covariance(r_h, r_e) [Ang^2]:        -0.033717
    Correlation coefficient:             -0.018675
    Center-of-mass size [Ang]:            0.951017
      Cartesian components [Ang]:       [  0.528094,   0.516330,   0.599127]

  Decomposition into state-averaged NTOs
    H- 0 -> L+ 0:  0.6697 ( 89.7%)
    H- 2 -> L+ 5:  0.0830 (  1.4%)
                   omega =  95.3%
  ----------------------------------------------------------------------------


  Excited state 2 (singlet, A)                                     [converged]
  ----------------------------------------------------------------------------
  Term symbol:  3 (1) A                                     R^2 =  2.77854e-11

  Total energy:                                            -77.9911441620 a.u.
  Excitation energy:                                               8.952414 eV

  Osc. strength:                                                      0.000003
  Trans. dip. moment [a.u.]:           [   0.000671,   -0.000217,   -0.003358]
  <i|r^2|0> [a.u.]:                    [   0.069894,    0.086781,   -0.152745]
  Two-photon absorption cross-section (SoS) [a.u.]:                   4.567402
  Two-photon absorption matrix (SoS) [a.u.]:
                                       |    0.049924    0.057418   -0.514547 |
                                       |    0.057418    0.065563   -0.541116 |
                                       |   -0.514547   -0.541116   -0.115485 |
  Two-photon absorption cross-section [a.u.]:                         0.172006
  Two-photon absorption matrix [a.u.]:
                                       |   -0.008907   -0.011104    0.099906 |
                                       |   -0.011104   -0.013501    0.104950 |
                                       |    0.099906    0.104950    0.022413 |

  Dip. moment [a.u.]:                  [   0.002886,    0.003136,    0.000470]
  Total dipole [Debye]:                                               0.010899
  <r^2> [a.u.]:                        [ 174.943139,   34.366443,   13.214679]
  Total <r^2> [a.u.]:                                               222.524260

  V1^2 = 0.9541, V2^2 = 0.0459

  Important amplitudes:
      occ i     occ j     vir a      vir b          v   
    -----------------------------------------------------
     7 (A) A              9 (A) A                 0.6685
     8 (A) A             11 (A) A                -0.1513
     7 (A) A             20 (A) A                 0.0756
     5 (A) A   8 (A) B    9 (A) A    9 (A) B      0.0315
     8 (A) A             16 (A) A                 0.0281
     8 (A) A             21 (A) A                -0.0178
     5 (A) A             28 (A) A                 0.0150
     4 (A) A   7 (A) B    9 (A) A   19 (A) B      0.0136
     5 (A) A   7 (A) B    9 (A) A   16 (A) B      0.0134
     7 (A) A   8 (A) B   20 (A) A   17 (A) B     -0.0106
     7 (A) A   8 (A) A    9 (A) A   28 (A) A      0.0098
     5 (A) A   8 (A) B    9 (A) A   20 (A) B      0.0094
     4 (A) A   6 (A) B    9 (A) A   16 (A) B      0.0091
     5 (A) A   6 (A) A    9 (A) A   23 (A) A      0.0090
     5 (A) A   6 (A) A    9 (A) A   14 (A) A      0.0089
     5 (A) A   6 (A) B    9 (A) A   19 (A) B      0.0086
     8 (A) A   7 (A) B    9 (A) A   28 (A) B     -0.0085
     6 (A) A   7 (A) B    9 (A) A   18 (A) B     -0.0085
     4 (A) A   5 (A) A    9 (A) A   10 (A) A      0.0085
     5 (A) A   6 (A) B    9 (A) A   23 (A) B      0.0080
     3 (A) A   7 (A) B    9 (A) A   18 (A) B      0.0080
     5 (A) A   7 (A) A    9 (A) A   16 (A) A      0.0078
     4 (A) A   8 (A) B    9 (A) A   25 (A) B      0.0076
     4 (A) A   7 (A) B   19 (A) A    9 (A) B      0.0075
     7 (A) A   8 (A) B   17 (A) A   20 (A) B     -0.0074
     5 (A) A   5 (A) B    9 (A) A   13 (A) B      0.0073
     7 (A) A   8 (A) B   19 (A) A   18 (A) B      0.0071
     8 (A) A             10 (A) A                 0.0070
     4 (A) A   5 (A) B    9 (A) A   18 (A) B     -0.0069
     5 (A) A   8 (A) A    9 (A) A   20 (A) A      0.0068
     7 (A) A   7 (A) B   20 (A) A   22 (A) B      0.0066
     7 (A) A   8 (A) B   17 (A) A    9 (A) B     -0.0065
     5 (A) A   6 (A) B    9 (A) A   14 (A) B      0.0063
     5 (A) A   7 (A) B   11 (A) A   20 (A) B     -0.0062
     4 (A) A   5 (A) B   10 (A) A    9 (A) B     -0.0061
     4 (A) A   7 (A) A    9 (A) A   19 (A) A      0.0061
     5 (A) A             38 (A) A                 0.0060
     4 (A) A   6 (A) B   16 (A) A    9 (A) B      0.0058
     4 (A) A   8 (A) A    9 (A) A   25 (A) A      0.0057
     6 (A) A   7 (A) A   19 (A) A   28 (A) A     -0.0056
    -----------------------------------------------------

  Density matrix analysis:
  ------------------------
  NOs
    Occupation of frontier NOs:
       0.9559   1.0554
    Number of electrons: 16.000000
    Number of unpaired electrons: n_u =  2.35842, n_u,nl =  2.06497
    NO participation ratio (PR_NO):  3.045944
  
  
  Mulliken Population Analysis
  Atom      Charge (e)              h+              e-           Del q
  --------------------------------------------------------------------
   1 H        0.155753        0.124439       -0.023651        0.100787
   2 C       -0.310083        0.272571       -0.472713       -0.200142
   3 H        0.154324        0.125334       -0.025992        0.099342
   4 C       -0.310090        0.272588       -0.472728       -0.200140
   5 H        0.155750        0.124431       -0.023655        0.100776
   6 H        0.154348        0.125363       -0.025987        0.099377
  --------------------------------------------------------------------
  Sum:       -0.000000        1.044726       -1.044726       -0.000000
  
  Multipole moment analysis of the density matrix
    Molecular charge:                      -0.000000
    Number of electrons:                   16.000000
      Center of electronic charge [Ang]: [ -1.561316,  -0.065266,   0.002120]
    Total nuclear charge:                  16.000000
      Center of nuclear charge [Ang]:    [ -1.561221,  -0.065162,   0.002135]
    Dipole moment [D]:                     0.010899
      Cartesian components [D]:          [  0.007335,   0.007972,   0.001196]
    RMS size of the density [Ang]:         1.205238
      Cartesian components [Ang]:        [  0.790006,   0.772796,   0.480912]
  
  Exciton analysis of the difference density matrix
    <r_h> [Ang]:                  [ -1.562717,  -0.066680,   0.001979]
    <r_e> [Ang]:                  [ -1.564201,  -0.068289,   0.001770]
    |<r_e - r_h>| [Ang]:            0.002199
    Hole size [Ang]:                1.496145
      Cartesian components [Ang]: [  1.013881,   1.001247,   0.456070]
    Electron size [Ang]:            1.480248
      Cartesian components [Ang]: [  0.884470,   0.862196,   0.815760]

  Transition density matrix analysis:
  -----------------------------------
  
  CT numbers (Mulliken)
    omega =     0.9214
    <Phe> =    -0.0114
  
  Exciton analysis of the transition density matrix
    Trans. dipole moment [D]:             0.004361
      Cartesian components [D]:         [  0.000853,  -0.000276,  -0.004268]
    <r_h> [Ang]:                        [ -1.562833,  -0.066792,   0.001976]
    <r_e> [Ang]:                        [ -1.564250,  -0.068348,   0.001755]
    |<r_e - r_h>| [Ang]:                  0.002116
    Hole size [Ang]:                      1.527060
      Cartesian components [Ang]:       [  1.038669,   1.025999,   0.447668]
    Electron size [Ang]:                  1.475666
      Cartesian components [Ang]:       [  0.873427,   0.850378,   0.831608]
    RMS electron-hole separation [Ang]:   2.103595
      Cartesian components [Ang]:       [  1.341082,   1.317607,   0.943674]
    Covariance(r_h, r_e) [Ang^2]:         0.042198
    Correlation coefficient:              0.018726
    Center-of-mass size [Ang]:            1.071669
      Cartesian components [Ang]:       [  0.686461,   0.673711,   0.472609]

  Decomposition into state-averaged NTOs
    H- 1 -> L+ 0:  0.6607 ( 87.3%)
    H- 0 -> L+ 2: -0.1512 (  4.6%)
                   omega =  92.1%
  ----------------------------------------------------------------------------


  Excited state 3 (singlet, A)                                     [converged]
  ----------------------------------------------------------------------------
  Term symbol:  4 (1) A                                     R^2 =  2.45670e-11

  Total energy:                                            -77.9841910941 a.u.
  Excitation energy:                                               9.141617 eV

  Osc. strength:                                                      0.023576
  Trans. dip. moment [a.u.]:           [  -0.015396,   -0.019674,    0.323482]
  <i|r^2|0> [a.u.]:                    [  -0.090081,   -0.004284,   -0.003870]
  Two-photon absorption cross-section (SoS) [a.u.]:                   0.009346
  Two-photon absorption matrix (SoS) [a.u.]:
                                       |   -0.001113   -0.002507    0.023372 |
                                       |   -0.002507   -0.004318    0.024389 |
                                       |    0.023372    0.024389    0.004657 |
  Two-photon absorption cross-section [a.u.]:                         0.007003
  Two-photon absorption matrix [a.u.]:
                                       |   -0.001363   -0.002092    0.020225 |
                                       |   -0.002092   -0.003776    0.021093 |
                                       |    0.020225    0.021093    0.004177 |

  Dip. moment [a.u.]:                  [   0.021476,    0.022608,    0.002314]
  Total dipole [Debye]:                                               0.079476
  <r^2> [a.u.]:                        [ 181.492936,   41.012608,   11.057549]
  Total <r^2> [a.u.]:                                               233.563093

  V1^2 = 0.9580, V2^2 = 0.0420

  Important amplitudes:
      occ i     occ j     vir a      vir b          v   
    -----------------------------------------------------
     8 (A) A             10 (A) A                -0.6887
     8 (A) A             24 (A) A                -0.0508
     8 (A) A             18 (A) A                 0.0332
     4 (A) A              9 (A) A                -0.0247
     8 (A) A   8 (A) B    9 (A) A   12 (A) B      0.0223
     8 (A) A   8 (A) B   10 (A) A   17 (A) B     -0.0172
     5 (A) A   8 (A) B   11 (A) A   10 (A) B     -0.0169
     8 (A) A             15 (A) A                -0.0149
     7 (A) A   8 (A) B   13 (A) A   10 (A) B     -0.0143
     4 (A) A   8 (A) B   12 (A) A   10 (A) B      0.0113
     6 (A) A   8 (A) A   10 (A) A   15 (A) A      0.0112
     7 (A) A   8 (A) B   22 (A) A   10 (A) B      0.0109
     6 (A) A   8 (A) B   15 (A) A   10 (A) B     -0.0109
     4 (A) A   8 (A) A   10 (A) A   12 (A) A     -0.0108
     7 (A) A   8 (A) A   10 (A) A   22 (A) A     -0.0099
     7 (A) A   8 (A) A   10 (A) A   13 (A) A      0.0098
     5 (A) A   8 (A) A   10 (A) A   11 (A) A      0.0097
     5 (A) A   8 (A) B   21 (A) A   10 (A) B     -0.0094
     6 (A) A   8 (A) B   10 (A) A   10 (A) B      0.0090
     6 (A) A   8 (A) A   10 (A) A   18 (A) A      0.0086
     7 (A) A   8 (A) A   12 (A) A   16 (A) A     -0.0084
     3 (A) A   4 (A) B   10 (A) A    9 (A) B      0.0080
     5 (A) A   8 (A) A   10 (A) A   21 (A) A      0.0079
     7 (A) A              9 (A) A                 0.0076
     4 (A) A   8 (A) B   19 (A) A   10 (A) B      0.0076
     8 (A) A   8 (A) B    9 (A) A   23 (A) B     -0.0075
     8 (A) A   8 (A) B   10 (A) A   28 (A) B      0.0074
     5 (A) A   8 (A) B   10 (A) A   11 (A) B     -0.0072
     7 (A) A   8 (A) B   16 (A) A   12 (A) B      0.0072
     3 (A) A   8 (A) A   10 (A) A   24 (A) A      0.0072
     3 (A) A   8 (A) B   10 (A) A   10 (A) B     -0.0071
     8 (A) A   8 (A) B    9 (A) A   19 (A) B      0.0070
     3 (A) A   8 (A) B   10 (A) A   18 (A) B      0.0068
     6 (A) A   8 (A) B   18 (A) A   10 (A) B     -0.0065
     3 (A) A   6 (A) B   10 (A) A   28 (A) B      0.0062
     7 (A) A   8 (A) B   12 (A) A   11 (A) B     -0.0059
     6 (A) A             28 (A) A                -0.0058
     5 (A) A   8 (A) A   10 (A) A   16 (A) A     -0.0057
     3 (A) A   5 (A) B   10 (A) A   25 (A) B      0.0056
     6 (A) A   8 (A) A   11 (A) A   16 (A) A      0.0055
    -----------------------------------------------------

  Density matrix analysis:
  ------------------------
  NOs
    Occupation of frontier NOs:
       0.9813   0.9845
    Number of electrons: 16.000000
    Number of unpaired electrons: n_u =  2.28887, n_u,nl =  2.02509
    NO participation ratio (PR_NO):  2.701764
  
  
  Mulliken Population Analysis
  Atom      Charge (e)              h+              e-           Del q
  --------------------------------------------------------------------
   1 H       -0.151492        0.054460       -0.260918       -0.206458
   2 C        0.310086        0.537962       -0.117935        0.420027
   3 H       -0.158593        0.054260       -0.267834       -0.213574
   4 C        0.310077        0.537958       -0.117930        0.420027
   5 H       -0.151475        0.054462       -0.260911       -0.206448
   6 H       -0.158603        0.054260       -0.267834       -0.213574
  --------------------------------------------------------------------
  Sum:       -0.000000        1.293362       -1.293362        0.000000
  
  Multipole moment analysis of the density matrix
    Molecular charge:                      -0.000000
    Number of electrons:                   16.000000
      Center of electronic charge [Ang]: [ -1.561931,  -0.065910,   0.002059]
    Total nuclear charge:                  16.000000
      Center of nuclear charge [Ang]:    [ -1.561221,  -0.065162,   0.002135]
    Dipole moment [D]:                     0.079476
      Cartesian components [D]:          [  0.054587,   0.057464,   0.005880]
    RMS size of the density [Ang]:         1.282105
      Cartesian components [Ang]:        [  0.858383,   0.844659,   0.439912]
  
  Exciton analysis of the difference density matrix
    <r_h> [Ang]:                  [ -1.561414,  -0.065369,   0.002094]
    <r_e> [Ang]:                  [ -1.570219,  -0.074636,   0.001172]
    |<r_e - r_h>| [Ang]:            0.012816
    Hole size [Ang]:                1.412926
      Cartesian components [Ang]: [  0.836580,   0.822714,   0.787170]
    Electron size [Ang]:            2.079239
      Cartesian components [Ang]: [  1.376848,   1.380366,   0.722575]

  Transition density matrix analysis:
  -----------------------------------
  
  CT numbers (Mulliken)
    omega =     0.9250
    <Phe> =    -0.0109
  
  Exciton analysis of the transition density matrix
    Trans. dipole moment [D]:             0.412329
      Cartesian components [D]:         [ -0.019567,  -0.025003,   0.411105]
    <r_h> [Ang]:                        [ -1.560629,  -0.064546,   0.002165]
    <r_e> [Ang]:                        [ -1.573319,  -0.077900,   0.000842]
    |<r_e - r_h>| [Ang]:                  0.018470
    Hole size [Ang]:                      1.212796
      Cartesian components [Ang]:       [  0.636354,   0.623813,   0.822669]
    Electron size [Ang]:                  2.301611
      Cartesian components [Ang]:       [  1.523186,   1.529383,   0.798940]
    RMS electron-hole separation [Ang]:   2.591556
      Cartesian components [Ang]:       [  1.643173,   1.644616,   1.145155]
    Covariance(r_h, r_e) [Ang^2]:         0.026235
    Correlation coefficient:              0.009399
    Center-of-mass size [Ang]:            1.305829
      Cartesian components [Ang]:       [  0.829191,   0.829417,   0.574195]

  Decomposition into state-averaged NTOs
    H- 0 -> L+ 1: -0.6793 ( 92.3%)
                   omega =  92.5%
  ----------------------------------------------------------------------------


  Excited state 4 (singlet, A)                                     [converged]
  ----------------------------------------------------------------------------
  Term symbol:  5 (1) A                                     R^2 =  2.64199e-11

  Total energy:                                            -77.9622639187 a.u.
  Excitation energy:                                               9.738285 eV

  Osc. strength:                                                      0.000003
  Trans. dip. moment [a.u.]:           [   0.000309,    0.000067,   -0.003311]
  <i|r^2|0> [a.u.]:                    [  -0.011948,   -0.018189,    0.032005]
  Two-photon absorption cross-section (SoS) [a.u.]:                 134.667503
  Two-photon absorption matrix (SoS) [a.u.]:
                                       |   -0.270687   -0.311767    2.794268 |
                                       |   -0.311767   -0.356408    2.937946 |
                                       |    2.794268    2.937946    0.627104 |
  Two-photon absorption cross-section [a.u.]:                        80.031437
  Two-photon absorption matrix [a.u.]:
                                       |   -0.209279   -0.240373    2.154001 |
                                       |   -0.240373   -0.274145    2.264972 |
                                       |    2.154001    2.264972    0.483437 |

  Dip. moment [a.u.]:                  [  -0.026422,   -0.027808,   -0.003036]
  Total dipole [Debye]:                                               0.097803
  <r^2> [a.u.]:                        [ 181.319810,   41.003225,   10.786881]
  Total <r^2> [a.u.]:                                               233.109916

  V1^2 = 0.9633, V2^2 = 0.0367

  Important amplitudes:
      occ i     occ j     vir a      vir b          v   
    -----------------------------------------------------
     8 (A) A             11 (A) A                 0.6688
     7 (A) A              9 (A) A                 0.1534
     8 (A) A             21 (A) A                 0.0779
     8 (A) A             16 (A) A                -0.0674
     8 (A) A   8 (A) B    9 (A) A   13 (A) B     -0.0167
     5 (A) A   8 (A) B   11 (A) A   11 (A) B      0.0157
     7 (A) A             20 (A) A                 0.0140
     8 (A) A   8 (A) B   11 (A) A   17 (A) B      0.0137
     7 (A) A   8 (A) B   13 (A) A   11 (A) B      0.0127
     4 (A) A   8 (A) B   12 (A) A   11 (A) B     -0.0111
     8 (A) A   8 (A) B    9 (A) A   22 (A) B      0.0110
     5 (A) A   8 (A) A   11 (A) A   21 (A) A     -0.0109
     7 (A) A   8 (A) A   11 (A) A   22 (A) A      0.0095
     6 (A) A   8 (A) B   10 (A) A   11 (A) B     -0.0091
     6 (A) A   8 (A) B   15 (A) A   11 (A) B      0.0089
     7 (A) A   8 (A) B   22 (A) A   11 (A) B     -0.0089
     3 (A) A   4 (A) B   11 (A) A    9 (A) B     -0.0083
     3 (A) A   8 (A) B   11 (A) A   18 (A) B     -0.0080
     6 (A) A   8 (A) A   11 (A) A   15 (A) A     -0.0079
     7 (A) A   8 (A) A   13 (A) A   16 (A) A      0.0079
     7 (A) A   8 (A) A   11 (A) A   13 (A) A     -0.0075
     4 (A) A   8 (A) B   19 (A) A   11 (A) B     -0.0070
     5 (A) A   8 (A) B   21 (A) A   11 (A) B      0.0069
     5 (A) A   8 (A) B    9 (A) A    9 (A) B      0.0069
     4 (A) A   8 (A) A   11 (A) A   12 (A) A      0.0062
     3 (A) A   6 (A) B   11 (A) A   28 (A) B     -0.0060
     6 (A) A   8 (A) A   11 (A) A   18 (A) A     -0.0059
     6 (A) A   8 (A) B   18 (A) A   11 (A) B      0.0058
     7 (A) A   8 (A) B   16 (A) A   13 (A) B     -0.0057
     3 (A) A   8 (A) B   11 (A) A   30 (A) B     -0.0056
     5 (A) A   8 (A) B   10 (A) A   10 (A) B      0.0055
     7 (A) A   8 (A) B   12 (A) A   10 (A) B      0.0055
     8 (A) A   8 (A) B   20 (A) A   22 (A) B      0.0055
     6 (A) A   8 (A) B   11 (A) A   10 (A) B     -0.0055
     3 (A) A   5 (A) B   11 (A) A   25 (A) B     -0.0054
     3 (A) A   8 (A) A   11 (A) A   18 (A) A     -0.0054
     3 (A) A   8 (A) A   11 (A) A   24 (A) A     -0.0053
     5 (A) A   8 (A) A   11 (A) A   16 (A) A      0.0049
     6 (A) A   8 (A) A   10 (A) A   16 (A) A     -0.0047
     8 (A) A   8 (A) B   11 (A) A   28 (A) B     -0.0043
    -----------------------------------------------------

  Density matrix analysis:
  ------------------------
  NOs
    Occupation of frontier NOs:
       0.9387   1.0295
    Number of electrons: 16.000000
    Number of unpaired electrons: n_u =  2.32235, n_u,nl =  2.05105
    NO participation ratio (PR_NO):  2.932667
  
  
  Mulliken Population Analysis
  Atom      Charge (e)              h+              e-           Del q
  --------------------------------------------------------------------
   1 H       -0.130367        0.046063       -0.231396       -0.185333
   2 C        0.251099        0.495265       -0.134225        0.361040
   3 H       -0.120726        0.045958       -0.221665       -0.175708
   4 C        0.251087        0.495267       -0.134229        0.361038
   5 H       -0.130626        0.046052       -0.231651       -0.185599
   6 H       -0.120467        0.045970       -0.221407       -0.175438
  --------------------------------------------------------------------
  Sum:       -0.000000        1.174574       -1.174574       -0.000000
  
  Multipole moment analysis of the density matrix
    Molecular charge:                      0.000000
    Number of electrons:                   16.000000
      Center of electronic charge [Ang]: [ -1.560347,  -0.064243,   0.002236]
    Total nuclear charge:                  16.000000
      Center of nuclear charge [Ang]:    [ -1.561221,  -0.065162,   0.002135]
    Dipole moment [D]:                     0.097803
      Cartesian components [D]:          [ -0.067158,  -0.070681,  -0.007716]
    RMS size of the density [Ang]:         1.281025
      Cartesian components [Ang]:        [  0.859499,   0.844691,   0.434494]
  
  Exciton analysis of the difference density matrix
    <r_h> [Ang]:                  [ -1.560374,  -0.064270,   0.002208]
    <r_e> [Ang]:                  [ -1.548490,  -0.051760,   0.003601]
    |<r_e - r_h>| [Ang]:            0.017311
    Hole size [Ang]:                1.394933
      Cartesian components [Ang]: [  0.819578,   0.806327,   0.789916]
    Electron size [Ang]:            2.114278
      Cartesian components [Ang]: [  1.419340,   1.415488,   0.672341]

  Transition density matrix analysis:
  -----------------------------------
  
  CT numbers (Mulliken)
    omega =     0.9293
    <Phe> =    -0.0146
  
  Exciton analysis of the transition density matrix
    Trans. dipole moment [D]:             0.004227
      Cartesian components [D]:         [  0.000393,   0.000085,  -0.004207]
    <r_h> [Ang]:                        [ -1.561141,  -0.065078,   0.002110]
    <r_e> [Ang]:                        [ -1.546141,  -0.049285,   0.003873]
    |<r_e - r_h>| [Ang]:                  0.021852
    Hole size [Ang]:                      1.229179
      Cartesian components [Ang]:       [  0.661993,   0.649545,   0.806683]
    Electron size [Ang]:                  2.247833
      Cartesian components [Ang]:       [  1.508833,   1.506026,   0.712783]
    RMS electron-hole separation [Ang]:   2.550913
      Cartesian components [Ang]:       [  1.638885,   1.632010,   1.075991]
    Covariance(r_h, r_e) [Ang^2]:         0.028476
    Correlation coefficient:              0.010306
    Center-of-mass size [Ang]:            1.286525
      Cartesian components [Ang]:       [  0.828236,   0.824142,   0.538480]

  Decomposition into state-averaged NTOs
    H- 0 -> L+ 2:  0.6641 ( 88.2%)
    H- 1 -> L+ 0:  0.1514 (  4.6%)
                   omega =  92.9%
  ----------------------------------------------------------------------------


  Excited state 5 (singlet, A)                                     [converged]
  ----------------------------------------------------------------------------
  Term symbol:  6 (1) A                                     R^2 =  5.25994e-11

  Total energy:                                            -77.9468228644 a.u.
  Excitation energy:                                              10.158458 eV

  Osc. strength:                                                      0.000000
  Trans. dip. moment [a.u.]:           [  -0.000053,    0.000002,    0.000002]
  <i|r^2|0> [a.u.]:                    [   0.080973,   -0.097011,    0.015794]
  Two-photon absorption cross-section (SoS) [a.u.]:                 223.508917
  Two-photon absorption matrix (SoS) [a.u.]:
                                       |    0.367980    0.056043   -3.824022 |
                                       |    0.056043   -0.437559    3.625793 |
                                       |   -3.824022    3.625793    0.071064 |
  Two-photon absorption cross-section [a.u.]:                       115.473317
  Two-photon absorption matrix [a.u.]:
                                       |    0.265059    0.040660   -2.748608 |
                                       |    0.040660   -0.313903    2.606141 |
                                       |   -2.748608    2.606141    0.050953 |

  Dip. moment [a.u.]:                  [  -0.002864,   -0.003083,   -0.000321]
  Total dipole [Debye]:                                               0.010727
  <r^2> [a.u.]:                        [ 180.332960,   39.750453,   11.600241]
  Total <r^2> [a.u.]:                                               231.683654

  V1^2 = 0.9554, V2^2 = 0.0446

  Important amplitudes:
      occ i     occ j     vir a      vir b          v   
    -----------------------------------------------------
     8 (A) A             12 (A) A                -0.5698
     6 (A) A              9 (A) A                -0.3819
     8 (A) A             19 (A) A                -0.0525
     6 (A) A             20 (A) A                -0.0520
     8 (A) A             23 (A) A                 0.0293
     8 (A) A   8 (A) B    9 (A) A   10 (A) B      0.0205
     8 (A) A             26 (A) A                 0.0184
     3 (A) A              9 (A) A                -0.0158
     4 (A) A   8 (A) B    9 (A) A    9 (A) B     -0.0158
     5 (A) A   8 (A) B   11 (A) A   12 (A) B     -0.0149
     8 (A) A   8 (A) B   12 (A) A   17 (A) B     -0.0133
     7 (A) A   8 (A) B   13 (A) A   12 (A) B     -0.0130
     4 (A) A   8 (A) B   12 (A) A   12 (A) B      0.0124
     5 (A) A   8 (A) A   11 (A) A   12 (A) A     -0.0109
     6 (A) A   8 (A) B   15 (A) A   12 (A) B     -0.0102
     7 (A) A   8 (A) B   22 (A) A   12 (A) B      0.0094
[...]
    16   -1.434000910824e-03
    17   -1.732418406551e-03
    18    5.788317829166e-05
    19   -2.909599997439e-03
    20    1.188482520872e-02
    21    9.324696628317e-01
    22   -4.493700623579e-04
    23    1.376809324321e-02
    24    8.112396935011e-04
    25    7.035034918382e-02
    26   -5.224025859329e-02
    27   -1.383664143218e+00
    28    1.008055122531e-01
    29   -9.380991986983e-02
    30   -8.641358236789e-04
    31    3.881203779717e-01
    32   -3.623189548496e-01
    33   -3.395964118726e-03
    34    1.506744935839e-02
    35   -1.422113177331e-03
    36   -1.742085690677e-03
    37    2.143029937414e-04
    38   -2.900981326048e-03
    39    1.112605616355e-02
    40    9.230998250931e-01
    41    5.667446552211e-04
    42   -1.368847633738e-02
    43   -8.014074642957e-04
    44    1.188525596345e-02
    45    9.324741208678e-01
    46    1.377959268515e-02
    47    2.557212937389e-04
    48    6.748255062096e-04
Sym=X
Ene= 0.231048
Spin=Alpha
Occup=0
     1    2.983969733442e-02
     2    1.173445105760e+00
     3   -1.303290334348e-02
     4   -3.525667385458e-03
     5   -8.391855737698e-04
     6    2.877215224066e-04
     7   -1.973024953376e-04
     8   -8.107848293603e-03
     9   -1.553415751623e-01
    10   -1.618679026990e-01
    11   -1.725146291372e-02
    12   -5.335167739567e-01
    13   -5.545895050230e-01
    14   -5.917506998920e-02
    15    4.657503625186e-05
    16    6.680467210806e-05
    17   -8.389533853332e-05
    18    1.385732799938e-03
    19    5.200231212800e-05
    20   -2.991563277911e-02
    21   -1.163340680675e+00
    22   -2.840067246639e-03
    23   -1.303343525898e-02
    24   -9.248658210478e-04
    25    4.079982078301e-04
    26   -3.245490393689e-04
    27   -1.001263143554e-02
    28   -1.537393978069e-01
    29   -1.633934972951e-01
    30   -1.724201028467e-02
    31   -5.265252711600e-01
    32   -5.611922557175e-01
    33   -5.914066339052e-02
    34    7.156664590975e-05
    35   -8.217747737263e-05
    36    6.832877998273e-05
    37   -1.381616406653e-03
    38   -1.032601570208e-04
    39    2.987250201619e-02
    40    1.174812886835e+00
    41   -2.868736399325e-03
    42   -1.320725829195e-02
    43   -9.355687593469e-04
    44   -2.988309812741e-02
    45   -1.161908199271e+00
    46   -1.286082006111e-02
    47   -3.487704360776e-03
    48   -8.270609748150e-04
Sym=X
Ene= 0.236440
Spin=Alpha
Occup=0
     1    1.940183954851e-02
     2    1.077279783610e+00
     3   -1.600522785632e-02
     4   -9.180130934384e-03
     5   -1.324355143184e-03
     6    8.712319478652e-02
     7   -8.232867152121e-02
     8   -1.545022933222e+00
     9   -5.916505944838e-02
    10    5.562742356309e-02
    11    5.026890582975e-04
    12   -2.450542574752e-01
    13    2.267091517334e-01
    14    1.848761495933e-03
    15    2.128294055871e-02
    16   -2.518606627842e-03
    17   -2.863691091524e-03
    18    4.043991377485e-04
    19   -1.242259066986e-02
    20    1.919416287707e-02
    21    1.067073257588e+00
    22    8.437660513441e-03
    23    1.620840011457e-02
    24    1.383709384883e-03
    25   -8.712150878184e-02
    26    8.232500569780e-02
    27    1.545002208792e+00
    28   -5.881330671643e-02
    29    5.599817858374e-02
    30    5.979239271118e-04
    31   -2.397886770454e-01
    32    2.322562999191e-01
    33    2.662693181642e-03
    34   -2.128245116085e-02
    35    2.491162949814e-03
    36    2.891953323490e-03
    37   -8.239651540903e-04
    38    1.240078623276e-02
    39   -1.937126949869e-02
    40   -1.075640903484e+00
    41    8.353266990925e-03
    42    1.642450841846e-02
    43    1.395924780691e-03
    44   -1.922336932960e-02
    45   -1.068683429789e+00
    46   -1.578428941410e-02
    47   -9.254675665820e-03
    48   -1.314232882320e-03
Sym=X
Ene= 0.302964
Spin=Alpha
Occup=0
     1   -2.120399600419e-02
     2    1.655443823749e+00
     3   -2.341527855981e-02
     4    4.516869592869e-04
     5   -1.099493723495e-03
     6   -2.898834677600e-04
     7   -1.045277034845e-04
     8    1.060809973315e-02
     9   -1.355294206955e-01
    10   -1.427401752649e-01
    11   -1.513864136465e-02
    12   -1.129182504559e+00
    13   -1.179250954972e+00
    14   -1.254921100648e-01
    15   -1.475501700661e-04
    16   -1.724564225204e-03
    17    1.995816248921e-03
    18   -3.408455539091e-02
    19   -1.632821559014e-03
    20    2.094008109339e-02
    21   -1.660215604966e+00
    22    1.558749723420e-03
    23   -2.354003435204e-02
    24   -1.345922192776e-03
    25    2.916055653673e-04
    26    9.934982119953e-05
    27   -1.064857588802e-02
    28    1.357068598092e-01
    29    1.425803290054e-01
    30    1.512423822015e-02
    31    1.120689271170e+00
    32    1.187308749467e+00
    33    1.255267210662e-01
    34    2.131900466329e-04
    35   -1.758098531392e-03
    36    1.955060230443e-03
    37   -3.407223617611e-02
    38   -1.851277368074e-03
    39    2.119952794289e-02
    40   -1.655436371239e+00
    41   -1.646500570924e-03
    42    2.334962771673e-02
    43    1.331898710264e-03
    44   -2.093585745953e-02
    45    1.660242868568e+00
    46    2.360114265875e-02
    47   -3.556255682375e-04
    48    1.110618959846e-03
Sym=X
Ene= 0.462775
Spin=Alpha
Occup=0
     1   -1.137998769817e-01
     2   -7.005685942683e-01
     3   -1.500950768035e-02
     4   -1.042802623844e-02
     5   -1.351301098859e-03
     6    6.251467027030e-02
     7    1.658817983062e-02
     8   -3.641097839439e+00
     9    1.040195832162e-01
    10   -9.942687883511e-02
    11   -1.017320856211e-03
    12    2.432658521428e+00
    13   -2.311674077238e+00
    14   -2.260636510680e-02
    15    5.296978388096e-02
    16   -3.271579888693e-03
    17   -4.531850960002e-03
    18   -1.222919799988e-03
    19    2.011208288037e-02
    20   -1.150377871927e-01
    21   -6.970042932509e-01
    22    9.418959477034e-03
    23    1.541621029205e-02
    24    1.384618868042e-03
    25   -6.251574117925e-02
    26   -1.658144395782e-02
    27    3.641104018396e+00
    28    1.046759270178e-01
    29   -9.875832638582e-02
    30   -9.766101425656e-04
    31    2.433930041298e+00
    32   -2.310282414269e+00
    33   -2.259883502831e-02
    34   -5.296491763431e-02
    35    3.254883150025e-03
    36    4.540907461095e-03
    37    9.326023597435e-04
    38   -2.013279749194e-02
    39    1.137339057214e-01
    40    7.006293183527e-01
    41    9.658281424298e-03
    42    1.551057489092e-02
    43    1.399057095023e-03
    44    1.150414387595e-01
    45    6.969970607683e-01
    46   -1.492548146171e-02
    47   -1.018134536937e-02
    48   -1.332247219800e-03
Sym=X
Ene= 0.579806
Spin=Alpha
Occup=0
     1    2.327684590246e-01
     2    5.177950544846e-02
     3   -2.255652038415e-02
     4    2.739295987685e-02
     5    5.705975972684e-04
     6   -6.252461069745e-03
     7   -1.690092762201e-01
     8   -4.173078398580e-01
     9    3.047680648464e-01
    10   -2.910292150460e-01
    11   -2.929206799627e-03
    12   -7.456517679816e-01
    13    7.131916254637e-01
    14    7.270964079902e-03
    15   -1.981900222281e-03
    16    3.594822315509e-03
    17    3.346660021613e-03
    18   -4.096086597271e-03
    19    5.973779931870e-02
    20    2.427408847573e-01
    21    4.387100798571e-02
    22   -2.764040386997e-02
    23    2.019063168412e-02
    24   -1.087692782596e-04
    25   -6.260002402662e-03
    26   -1.690130554291e-01
    27   -4.169682396499e-01
    28   -3.063623680206e-01
    29    2.893261097499e-01
    30    2.744715419838e-03
    31    7.510318329140e-01
    32   -7.080069643051e-01
    33   -6.729467037148e-03
    34   -1.983144976563e-03
    35    3.701703006037e-03
    36    3.224816073155e-03
    37   -1.995300536825e-03
    38    5.984527735489e-02
    39    2.327154265583e-01
    40    5.191763202062e-02
    41    2.852731146116e-02
    42   -2.112450727422e-02
    43    9.176838292531e-05
    44    2.427726516949e-01
    45    4.393884179533e-02
    46    2.158286931134e-02
    47   -2.656188971547e-02
    48   -5.700222139242e-04
Sym=X
Ene= 0.608873
Spin=Alpha
Occup=0
     1   -5.232797830380e-01
     2    2.439066330673e-01
     3   -5.935945191617e-02
     4    3.654998428915e-02
     5   -6.447930804650e-04
     6   -1.182551018415e-04
     7   -1.116237231073e-04
     8    9.234765739353e-03
     9   -3.789821761214e-02
    10   -3.535538715387e-02
    11   -3.952372533821e-03
    12    2.696619593258e-01
    13    2.667056445304e-01
    14    2.908933979339e-02
    15    4.615844006182e-04
    16   -7.653184081605e-03
    17    8.548205111128e-03
    18   -1.485659018422e-01
    19   -7.943705738066e-03
    20    5.153860991254e-01
    21   -2.463748542200e-01
    22    4.057587536427e-02
    23   -5.765472850064e-02
    24   -1.530684172312e-03
    25   -1.259978915509e-04
    26   -8.254077460595e-05
    27    8.844557167465e-03
    28   -3.337755213649e-02
    29   -3.965045341269e-02
    30   -4.001651524693e-03
    31    2.525186950746e-01
    32    2.830113391545e-01
    33    2.919829352067e-02
    34    2.217850133075e-04
    35    7.532196056039e-03
    36   -8.678835422993e-03
    37    1.486082859315e-01
    38    7.254452893848e-03
    39   -5.234079484116e-01
    40    2.439900594358e-01
    41    3.954204345919e-02
    42   -5.739536606958e-02
    43   -1.573771782050e-03
    44    5.152988102148e-01
    45   -2.463663398124e-01
    46   -5.967303108639e-02
    47    3.756429532074e-02
    48   -5.925521052267e-04
Sym=X
Ene= 0.688652
Spin=Alpha
Occup=0
     1    8.252202172010e-05
     2    6.820309341419e-06
     3    9.177950217890e-04
     4    1.150066439283e-03
     5   -1.885993388171e-02
     6    5.197625959264e-06
     7    4.074748599215e-05
     8    2.381549803331e-05
     9    3.220647203132e-02
    10    4.053833093840e-02
    11   -6.706332938425e-01
    12   -2.953910669539e-02
    13   -3.693048721728e-02
    14    6.126555247245e-01
    15   -1.348700854074e-03
    16    8.260516122699e-02
    17   -7.835881818596e-02
    18   -8.699121373826e-03
    19   -1.201183221781e-03
    20    7.852808488145e-05
    21    2.946382364516e-05
    22    8.933078143507e-04
    23    1.121505454180e-03
    24   -1.873282911294e-02
    25    2.190762742937e-06
    26    7.605738166379e-05
    27   -1.102648660291e-04
    28    3.221427283596e-02
    29    4.048489691064e-02
    30   -6.706352366572e-01
    31   -2.952954358082e-02
    32   -3.688109485566e-02
    33    6.126566144580e-01
    34    1.306188603696e-03
    35   -8.259342451884e-02
    36    7.837162889540e-02
    37    8.706540491365e-03
    38    1.217156206531e-03
    39    1.917388661132e-05
    40   -7.833943796876e-05
    41    9.035118370764e-04
    42    1.156775189327e-03
    43   -1.885541499065e-02
    44    2.450377679287e-05
    45   -1.020129657663e-04
    46    8.797408765940e-04
    47    1.129212906964e-03
    48   -1.873738581422e-02
Sym=X
Ene= 0.704764
Spin=Alpha
Occup=0
     1   -4.858403008317e-01
     2    1.620006701750e-01
     3   -7.790146495878e-02
     4   -4.430874008608e-02
     5   -6.427204641292e-03
     6   -4.595654199201e-02
     7   -3.013063097748e-01
     8    4.636802046741e-01
     9    1.952612235938e-01
    10   -1.867510380780e-01
    11   -1.980885490495e-03
    12   -5.791568107315e-02
    13    5.472316552607e-02
    14    5.385677248750e-04
    15    1.911440218579e-01
    16   -2.044652041730e-02
    17   -2.408619355967e-02
    18    4.277020555419e-03
    19   -7.659589280787e-02
    20   -4.900305895114e-01
    21    1.656987932588e-01
    22    4.038054949787e-02
    23    8.045844438446e-02
    24    6.794183652148e-03
    25   -4.595120766959e-02
    26   -3.013068469353e-01
    27    4.634042316974e-01
    28   -1.965322736408e-01
    29    1.854160710607e-01
    30    1.680288279510e-03
    31    5.728996376607e-02
    32   -5.502392594756e-02
    33   -4.088844204817e-04
    34    1.911475849313e-01
    35   -2.049347645027e-02
    36   -2.401308390853e-02
    37    3.223773697163e-03
    38   -7.664010262061e-02
    39   -4.858542260477e-01
    40    1.621131101763e-01
    41   -4.029204333985e-02
    42   -8.003374601425e-02
    43   -6.766472440884e-03
    44   -4.899969334063e-01
    45    1.654624665975e-01
    46    7.831935384088e-02
    47    4.441673147103e-02
    48    6.444665578296e-03
Sym=X
Ene= 0.775737
Spin=Alpha
Occup=0
     1    5.390281947628e-01
     2   -4.817572274397e-01
     3    1.081685677221e-01
     4    2.616916567303e-02
     5    6.780366147967e-03
     6    8.893637604081e-02
     7   -2.266828781513e-01
     8   -5.667648127772e-01
     9    1.028768854517e-01
    10   -9.897515279284e-02
    11   -9.519414127499e-04
    12    2.952468884979e-01
    13   -2.783743556607e-01
    14   -2.774129860076e-03
    15   -2.032315218998e-01
    16    1.751622364779e-02
    17    2.173259023745e-02
    18    5.485011257420e-04
    19    7.696858625929e-03
    20    5.384346277954e-01
    21   -4.796553638828e-01
    22   -2.122296827048e-02
    23   -1.084699432346e-01
    24   -7.572546414770e-03
    25   -8.893741228425e-02
    26    2.266859131964e-01
    27    5.668142422947e-01
    28    1.041989976574e-01
    29   -9.759469022899e-02
    30   -9.371824808516e-04
    31    2.930070716830e-01
    32   -2.806593255426e-01
    33   -2.724327593364e-03
    34    2.032359750792e-01
    35   -1.740010817935e-02
    36   -2.182601348243e-02
    37    9.522446695424e-04
    38   -7.619326544944e-03
    39   -5.389666433440e-01
    40    4.818653282474e-01
    41   -2.064389160295e-02
    42   -1.093029027461e-01
    43   -7.591718425970e-03
    44   -5.385452961817e-01
    45    4.795291539992e-01
    46    1.073055392190e-01
    47    2.671014135950e-02
    48    6.764852279120e-03
Sym=X
Ene= 0.807406
Spin=Alpha
Occup=0
     1    4.160136872840e-05
     2   -1.787687566189e-05
     3    1.513977762202e-03
     4    1.889960132571e-03
     5   -3.136117163851e-02
     6    9.418545048211e-06
     7   -4.564860085382e-05
     8    2.416745957277e-05
     9    3.677197924644e-02
    10    4.614594356476e-02
    11   -7.642419278428e-01
    12   -5.405606597807e-02
    13   -6.794060726903e-02
    14    1.124364177453e+00
    15    1.023290339734e-03
    16   -6.538851784749e-02
    17    6.202051751078e-02
    18    6.880247466976e-03
    19    9.529276474986e-04
    20    4.277701610286e-05
    21   -8.205520082159e-05
    22    1.513317932151e-03
    23    1.888586503433e-03
    24   -3.149598507302e-02
    25   -6.395373722258e-06
    26   -1.248086715055e-05
    27    5.141832857860e-06
    28   -3.666167823247e-02
    29   -4.616654196394e-02
    30    7.642475649056e-01
    31    5.399552078731e-02
    32    6.785856689999e-02
    33   -1.124372212979e+00
    34    1.081053011841e-03
    35   -6.537071818108e-02
    36    6.203589339799e-02
    37    6.896485011772e-03
    38    9.690320441017e-04
    39   -4.040593547222e-05
    40    9.819650639401e-05
    41   -1.500150424010e-03
    42   -1.921035612686e-03
    43    3.134847504242e-02
    44   -3.835602409837e-05
    45    3.410600974408e-05
    46   -1.491983648569e-03
    47   -1.911633387796e-03
    48    3.150369740240e-02
Sym=X
Ene= 0.858423
Spin=Alpha
Occup=0
     1    1.456798379643e-02
     2   -1.075919888843e+00
     3    1.463576312536e-01
     4    5.574445052213e-02
     5    1.039671031848e-02
     6    1.125386380544e-04
     7    1.637415851905e-03
     8   -5.727642126937e-04
     9   -4.121755649893e-01
    10   -4.325969083148e-01
    11   -4.596456479525e-02
    12    9.396677826502e-01
    13    9.835612159814e-01
    14    1.046248543775e-01
    15   -6.943327971215e-04
    16    1.178088797516e-02
    17   -1.332975797770e-02
    18    2.304058222931e-01
    19    1.112818955913e-02
    20   -1.403171907952e-02
    21    1.075504062791e+00
    22    4.889314155406e-02
    23    1.488880993316e-01
    24    1.134760640270e-02
    25    1.030745257195e-04
    26    1.627029506654e-03
    27   -5.973263944847e-04
    28   -4.112197087858e-01
    29   -4.335356643430e-01
    30   -4.590394774770e-02
    31    9.348823650876e-01
    32    9.881732221787e-01
    33    1.045171181487e-01
    34   -2.460705940059e-04
    35   -1.177413249975e-02
    36    1.336655133188e-02
    37   -2.303456334258e-01
    38   -1.242919008569e-02
    39    1.451805683060e-02
    40   -1.075835995543e+00
    41    4.822112918675e-02
    42    1.489231195109e-01
    43    1.132101544426e-02
    44   -1.407237774395e-02
    45    1.075603183143e+00
    46    1.462981689499e-01
    47    5.640117669524e-02
    48    1.041971543881e-02
Sym=X
Ene= 0.928008
Spin=Alpha
Occup=0
     1   -1.406014199293e-01
     2    1.224061793612e+00
     3   -1.818714598799e-01
     4    6.746062991696e-03
     5   -8.343041505659e-03
     6   -1.152357739742e-04
     7   -2.133747511534e-03
     8   -2.697550041254e-03
     9    4.713418113349e-01
    10    5.010511776121e-01
    11    5.291623380364e-02
    12   -1.374218202353e+00
    13   -1.462648584843e+00
    14   -1.543879334649e-01
    15    3.645108601682e-05
    16   -6.277115334610e-03
    17    7.416970387947e-03
    18   -1.257719570746e-01
    19   -3.623955492410e-03
    20    1.428757720601e-01
    21   -1.238332735684e+00
    22    1.411827179190e-02
    23   -1.829498398293e-01
    24   -1.036526089125e-02
    25    1.103182493021e-04
    26    1.980166247687e-03
    27    2.961717231047e-03
    28   -4.765903816756e-01
    29   -4.960546064561e-01
    30   -5.284499944062e-02
    31    1.391261632571e+00
    32    1.446405603931e+00
    33    1.541651506975e-01
    34    2.251859391671e-04
    35   -6.579684101220e-03
    36    7.128261806513e-03
    37   -1.254808172013e-01
    38   -9.244043711646e-03
    39    1.405759996668e-01
    40   -1.224112053138e+00
    41   -1.603495934731e-02
    42    1.811925077499e-01
    43    1.017595780903e-02
    44   -1.429051815361e-01
    45    1.238236839815e+00
    46    1.835218207070e-01
    47   -4.754239896500e-03
    48    8.519291354558e-03
Sym=X
Ene= 0.970587
Spin=Alpha
Occup=0
     1   -5.895299674649e-02
     2    9.077202749669e-01
     3   -8.905453576660e-02
     4   -9.640818752484e-02
     5   -1.010057714861e-02
     6    2.706846028790e-02
     7    2.529085616848e-01
     8    5.139287898130e-01
     9    4.861817225673e-01
    10   -4.555415401603e-01
    11   -4.128565652078e-03
    12   -1.488579845616e+00
    13    1.386116577169e+00
    14    1.211354205361e-02
    15   -5.792012723125e-02
    16   -1.245160491366e-02
    17   -9.109562719676e-03
    18    1.402619872872e-02
    19   -2.964166756441e-01
    20   -6.052969347709e-02
    21    8.856969373912e-01
    22    9.233994258494e-02
    23    9.086923281947e-02
    24    9.926866070653e-03
    25   -2.706785237383e-02
    26   -2.528471989123e-01
    27   -5.140266801609e-01
    28    4.799939010672e-01
    29   -4.620428313174e-01
    30   -4.895127015020e-03
    31   -1.461009560976e+00
    32    1.415122817705e+00
    33    1.540169295274e-02
    34    5.791776901983e-02
    35    1.232803365939e-02
    36    9.248792886487e-03
    37   -1.634806021948e-02
    38    2.962859729614e-01
    39    5.897575148877e-02
    40   -9.076701946510e-01
    41    9.177310939654e-02
    42    9.380784282892e-02
    43    1.009085220942e-02
    44    6.051374551034e-02
    45   -8.856914892772e-01
    46   -8.608316127873e-02
    47   -9.681629751692e-02
    48   -9.964516757373e-03
[5D]

======= END OF MOLDEN-FORMATTED INPUT FILE =======


        *************************************************************
        *                                                           *
        *  Thank you very much for using Q-Chem.  Have a nice day.  *
        *                                                           *
        *************************************************************


