                  Welcome to Q-Chem
     A Quantum Leap Into The Future Of Chemistry


 Q-Chem 5.4 (devel), Q-Chem, Inc., Pleasanton, CA (2021)

 E. Epifanovsky,  A. T. B. Gilbert,  Xintian Feng,  Joonho Lee,  Yuezhi Mao,  
 N. Mardirossian,  P. Pokhilko,  A. White,  M. Wormit,  M. P. Coons,  
 A. L. Dempwolff,  Zhengting Gan,  D. Hait,  P. R. Horn,  L. D. Jacobson,  
 I. Kaliman,  J. Kussmann,  A. W. Lange,  Ka Un Lao,  D. S. Levine,  Jie Liu,  
 S. C. McKenzie,  A. F. Morrison,  K. Nanda,  F. Plasser,  D. R. Rehn,  
 M. L. Vidal,  Zhi-Qiang You,  Ying Zhu,  B. Alam,  B. Albrecht,  
 A. Aldossary,  E. Alguire,  J. H. Andersen,  D. Barton,  K. Begam,  A. Behn,  
 Y. A. Bernard,  E. J. Berquist,  H. Burton,  A. Carreras,  K. Carter-Fenk,  
 R. Chakraborty,  A. D. Chien,  K. D. Closser,  V. Cofer-Shabica,  
 S. Dasgupta,  Jia Deng,  M. de Wergifosse,  M. Diedenhofen,  Hainam Do,  
 S. Ehlert,  Po-Tung Fang,  S. Fatehi,  Qingguo Feng,  T. Friedhoff,  
 J. Gayvert,  Qinghui Ge,  G. Gidofalvi,  M. Goldey,  J. Gomes,  
 C. Gonzalez-Espinoza,  S. Gulania,  A. Gunina,  M. W. D. Hanson-Heine,  
 P. H. P. Harbach,  A. W. Hauser,  M. F. Herbst,  M. Hernandez Vera,  
 M. Hodecker,  Z. C. Holden,  S. Houck,  Xunkun Huang,  Kerwin Hui,  
 B. C. Huynh,  M. Ivanov,  Hyunjun Ji,  Hanjie Jiang,  B. Kaduk,  S. Kaehler,  
 K. Khistyaev,  Jaehoon Kim,  P. Klunzinger,  Z. Koczor-Benda,  
 Joong Hoon Koh,  D. Kosenkov,  L. Koulias,  T. Kowalczyk,  C. M. Krauter,  
 K. Kue,  A. Kunitsa,  T. Kus,  A. Landau,  K. V. Lawler,  D. Lefrancois,  
 S. Lehtola,  Rain Li,  Yi-Pei Li,  Jiashu Liang,  M. Liebenthal,  
 Hung-Hsuan Lin,  You-Sheng Lin,  Fenglai Liu,  Kuan-Yu Liu,  
 M. Loipersberger,  A. Luenser,  A. Manjanath,  P. Manohar,  E. Mansoor,  
 S. F. Manzer,  Shan-Ping Mao,  A. V. Marenich,  T. Markovich,  S. Mason,  
 S. A. Maurer,  P. F. McLaughlin,  M. F. S. J. Menger,  J.-M. Mewes,  
 S. A. Mewes,  P. Morgante,  J. W. Mullinax,  K. J. Oosterbaan,  G. Paran,  
 Alexander C. Paul,  Suranjan K. Paul,  F. Pavosevic,  Zheng Pei,  S. Prager,  
 E. I. Proynov,  E. Ramos,  B. Rana,  A. E. Rask,  A. Rettig,  R. M. Richard,  
 F. Rob,  E. Rossomme,  T. Scheele,  M. Scheurer,  M. Schneider,  
 N. Sergueev,  S. M. Sharada,  W. Skomorowski,  D. W. Small,  C. J. Stein,  
 Yu-Chuan Su,  E. J. Sundstrom,  Zhen Tao,  J. Thirman,  T. Tsuchimochi,  
 N. M. Tubman,  S. P. Veccham,  O. Vydrov,  J. Wenzel,  J. Witte,  A. Yamada,  
 Kun Yao,  S. Yeganeh,  S. R. Yost,  A. Zech,  Igor Ying Zhang,  Xing Zhang,  
 Yu Zhang,  D. Zuev,  A. Aspuru-Guzik,  A. T. Bell,  N. A. Besley,  
 K. B. Bravaya,  B. R. Brooks,  D. Casanova,  Jeng-Da Chai,  S. Coriani,  
 C. J. Cramer,  A. E. DePrince, III,  R. A. DiStasio Jr.,  A. Dreuw,  
 B. D. Dunietz,  T. R. Furlani,  W. A. Goddard III,  S. Grimme,  
 S. Hammes-Schiffer,  T. Head-Gordon,  W. J. Hehre,  Chao-Ping Hsu,  
 T.-C. Jagau,  Yousung Jung,  A. Klamt,  Jing Kong,  D. S. Lambrecht,  
 WanZhen Liang,  N. J. Mayhall,  C. W. McCurdy,  J. B. Neaton,  
 C. Ochsenfeld,  J. A. Parkhill,  R. Peverati,  V. A. Rassolov,  Yihan Shao,  
 L. V. Slipchenko,  T. Stauch,  R. P. Steele,  J. E. Subotnik,  
 A. J. W. Thom,  A. Tkatchenko,  D. G. Truhlar,  T. Van Voorhis,  
 T. A. Wesolowski,  K. B. Whaley,  H. L. Woodcock III,  P. M. Zimmerman,  
 S. Faraji,  P. M. W. Gill,  M. Head-Gordon,  J. M. Herbert,  A. I. Krylov

 Additional authors for Version 5.4.1: 
 S. Kotaru,  Shaozhi Li,  Xiangyuan Li,  F. Matz,  A. Molle,  Haisheng Ren,  
 Yingli Su,  Hung-Yi Tsai,  C. Utku,  Fang Wang

 Contributors to earlier versions of Q-Chem not listed above: 
 R. D. Adamson,  B. Austin,  R. Baer,  J. Baker,  G. J. O. Beran,  
 K. Brandhorst,  S. T. Brown,  E. F. C. Byrd,  A. K. Chakraborty,  
 G. K. L. Chan,  Chun-Min Chang,  Yunqing Chen,  C.-L. Cheng,  
 Siu Hung Chien,  D. M. Chipman,  D. L. Crittenden,  H. Dachsel,  
 R. J. Doerksen,  A. D. Dutoi,  R. G. Edgar,  J. Fosso-Tande,  
 L. Fusti-Molnar,  D. Ghosh,  A. Ghysels,  A. Golubeva-Zadorozhnaya,  
 J. Gonthier,  M. S. Gordon,  S. R. Gwaltney,  G. Hawkins,  J. E. Herr,  
 A. Heyden,  S. Hirata,  E. G. Hohenstein,  G. Kedziora,  F. J. Keil,  
 C. Kelley,  Jihan Kim,  R. A. King,  R. Z. Khaliullin,  P. P. Korambath,  
 W. Kurlancheek,  A. Laurent,  A. M. Lee,  M. S. Lee,  S. V. Levchenko,  
 Ching Yeh Lin,  D. Liotard,  E. Livshits,  R. C. Lochan,  I. Lotan,  
 L. A. Martinez-Martinez,  P. E. Maslen,  N. Nair,  D. P. O'Neill,  
 D. Neuhauser,  E. Neuscamman,  C. M. Oana,  R. Olivares-Amaya,  R. Olson,  
 T. M. Perrine,  B. Peters,  P. A. Pieniazek,  A. Prociuk,  Y. M. Rhee,  
 J. Ritchie,  M. A. Rohrdanz,  E. Rosta,  N. J. Russ,  H. F. Schaefer III,  
 M. W. Schmidt,  N. E. Schultz,  S. Sharma,  N. Shenvi,  C. D. Sherrill,  
 A. C. Simmonett,  A. Sodt,  T. Stein,  D. Stuck,  K. S. Thanthiriwatte,  
 V. Vanovschi,  L. Vogt,  Tao Wang,  A. Warshel,  M. A. Watson,  
 C. F. Williams,  Q. Wu,  X. Xu,  Jun Yang,  W. Zhang,  Yan Zhao

 Please cite Q-Chem as follows:
 Y. Shao et al., Mol. Phys. 113, 184-215 (2015)
 DOI: 10.1080/00268976.2014.952696

 Q-Chem 5.4.1 for Intel X86 EM64T Linux

 Parts of Q-Chem use Armadillo 9.800.1 (Horizon Scraper).
 http://arma.sourceforge.net/

 Q-Chem begins on Thu Nov 17 15:39:40 2022  

 Host: cpu198.baobab
0

     Scratch files written to /scratch/fum/qchem8495//
 Processing $rem in /home/share/wesolowski/qc5.aug2021.FDE/config/preferences:
 Processing $rem in /home/fum/.qchemrc:

 Checking the input file for inconsistencies... 	...done.

--------------------------------------------------------------
User input:
--------------------------------------------------------------
$comment
generated from CCJob.Templates
$end

$rem
sym_ignore = true
method = adc(2)
ee_states = 10
basis = cc-pVDZ
mem_static = 1024
mem_total = 40000
adc_davidson_maxiter = 900
adc_davidson_conv = 6
adc_print = 3
adc_prop_es = true
adc_prop_es2es = true
adc_prop_tpa = true
molden_format = True
state_analysis = true
print_orbitals = 15
gen_scfman = false
fde_export_density = true
fde_details = 3
$end

$molecule
0 1
H -0.0348278765 -0.2442097827 0.0636489606
C -1.0765972949 -0.5242748755 -0.0023551776
H -1.313264467 -1.5767591607 -0.0657276926
C -2.043634118 0.3926884087 0.0061254933
H -1.8137616575 1.4459188338 0.0804456828
H -3.085977293 0.114931858 -0.0593381042                     
$end
--------------------------------------------------------------
 ----------------------------------------------------------------
             Standard Nuclear Orientation (Angstroms)
    I     Atom           X                Y                Z
 ----------------------------------------------------------------
    1      H      -0.0348278765    -0.2442097827     0.0636489606
    2      C      -1.0765972949    -0.5242748755    -0.0023551776
    3      H      -1.3132644670    -1.5767591607    -0.0657276926
    4      C      -2.0436341180     0.3926884087     0.0061254933
    5      H      -1.8137616575     1.4459188338     0.0804456828
    6      H      -3.0859772930     0.1149318580    -0.0593381042
 ----------------------------------------------------------------
 Nuclear Repulsion Energy =          33.42577653 hartrees
 There are        8 alpha and        8 beta electrons
 Requested basis set is cc-pVDZ
 There are 24 shells and 48 basis functions
 Total memory of 40000 MB is distributed as follows: 
   MEM_STATIC is set to 1024 MB
   QALLOC/CCMAN JOB total memory use is  38976 MB
 Warning: actual memory use might exceed 40000 MB

 Total QAlloc Memory Limit  40000 MB
 Mega-Array Size      1001 MB
 MEM_STATIC part      1024 MB

                       Distance Matrix (Angstroms)
             H (  1)   C (  2)   H (  3)   C (  4)   H (  5)
   C (  2)  1.080776
   H (  3)  1.851169  1.080625
   C (  4)  2.108139  1.332687  2.101744
   H (  5)  2.453859  2.105215  3.067319  1.080583
   H (  6)  3.074674  2.109370  2.450382  1.080700  1.846510

 A cutoff of  1.0D-11 yielded    300 shell pairs
 There are      1220 function pairs (      1329 Cartesian)
 Smallest overlap matrix eigenvalue = 4.80E-03

 Scale SEOQF with 1.000000e-01/1.000000e-01/1.000000e+00

 Standard Electronic Orientation quadrupole field applied
 Nucleus-field energy     =     0.0000000022 hartrees
 Guess from superposition of atomic densities
 Warning:  Energy on first SCF cycle will be non-variational
 SAD guess density has 16.000000 electrons
 A restricted Hartree-Fock SCF calculation will be
 performed using Pulay DIIS extrapolation
 SCF converges when DIIS error is below 1.0E-08
 using 10 threads for integral computing
 -------------------------------------------------------
 OpenMP Integral computing Module                
 Release: version 1.0, May 2013, Q-Chem Inc. Pittsburgh 
 -------------------------------------------------------
 ---------------------------------------
  Cycle       Energy         DIIS Error
 ---------------------------------------
    1     -78.4392709836      1.01E-01
    2     -78.0176800954      7.21E-03
    3     -78.0383137666      1.84E-03
    4     -78.0397967504      5.73E-04
    5     -78.0399183888      5.79E-05
    6     -78.0399202648      9.27E-06
    7     -78.0399203252      2.11E-06
    8     -78.0399203280      7.41E-07
    9     -78.0399203282      9.37E-08
   10     -78.0399203282      9.55E-09 Convergence criterion met
 ---------------------------------------
 SCF time:  CPU 1.43 s  wall 2.07 s
 SCF   energy in the final basis set = -78.03992033
 Total energy in the final basis set = -78.03992033
Exporting Density Matrix to file 'Densmat_SCF.txt'.
Export successful
================================================================================
|                                                                              |
|                                 A D C  M A N                                 |
|                                                                              |
 ------------------------------------------------------------------------------ 
|                                                                              |
| Components:                                                                  |
|                                                                              |
| - libvmm - 1.3-trunk                                                         |
|   Authors:                                                                   |
|   Evgeny Epifanovsky, Ilya Kaliman                                           |
|                                                                              |
| - libtensor - 2.5-trunk                                                      |
|   Authors:                                                                   |
|   Evgeny Epifanovsky, Michael Wormit, Dmitry Zuev, Sam Manzer,               |
|   Ilya Kaliman                                                               |
|                                                                              |
| - libwfa - 1.1-trunk                                                         |
|   Authors:                                                                   |
|   Felix Plasser, Stefanie Mewes (Baeppler), Benjamin Thomitzni,              |
|   Michael Wormit, Feng Chen, Anna I. Krylov, Pavel Pokhilko                  |
|                                                                              |
| - libadc - 1.1-trunk                                                         |
|   Authors:                                                                   |
|   Michael Wormit, Adrian L. Dempwolff, Philipp H. P. Harbach,                |
|   Caroline Krauter, Dirk Rehn, Matthias Schneider, Jan Wenzel                |
|                                                                              |
| - adcman - 2.6-trunk                                                         |
|   Authors:                                                                   |
|   Michael Wormit, Adrian L. Dempwolff, Philipp H. P. Harbach,                |
|   Caroline Krauter, Daniel Lefrancois, Jan-Michael Mewes, Dirk Rehn,         |
|   Matthias Schneider, Jan Wenzel, Andreas Dreuw                              |
|                                                                              |
| Authors of earlier versions of ADCMAN:                                       |
| Andreas Dreuw, Jan Hendrik Starcke, Dirk Rehn, Michael Wormit                |
|                                                                              |
================================================================================

 Created directory /scratch/fum/qchem8495/plots
  Import QC data ...  CPU 0.00 s  wall 0.00 s

 Alpha MOs, Restricted
 -- Occupied --                  
-11.235 -11.233  -1.032  -0.790  -0.641  -0.582  -0.505  -0.374
  1 A     2 A     3 A     4 A     5 A     6 A     7 A     8 A                  
 -- Virtual --                   
  0.168   0.204   0.233   0.239   0.303   0.462   0.578   0.615
  9 A    10 A    11 A    12 A    13 A    14 A    15 A    16 A                  
  0.689   0.709   0.785   0.808   0.862   0.936   0.972   1.010
 17 A    18 A    19 A    20 A    21 A    22 A    23 A    24 A                  
  1.130   1.235   1.254   1.266   1.294   1.601   1.727   1.750
 25 A    26 A    27 A    28 A    29 A    30 A    31 A    32 A                  
  1.819   1.859   1.867   1.922   1.977   1.979   2.222   2.258
 33 A    34 A    35 A    36 A    37 A    38 A    39 A    40 A                  
  2.376   2.454   2.506   2.634   2.721   2.822   3.140   3.399
 41 A    42 A    43 A    44 A    45 A    46 A    47 A    48 A                  

 Beta MOs, Restricted
 -- Occupied --                  
-11.235 -11.233  -1.032  -0.790  -0.641  -0.582  -0.505  -0.374
  1 A     2 A     3 A     4 A     5 A     6 A     7 A     8 A                  
 -- Virtual --                   
  0.168   0.204   0.233   0.239   0.303   0.462   0.578   0.615
  9 A    10 A    11 A    12 A    13 A    14 A    15 A    16 A                  
  0.689   0.709   0.785   0.808   0.862   0.936   0.972   1.010
 17 A    18 A    19 A    20 A    21 A    22 A    23 A    24 A                  
  1.130   1.235   1.254   1.266   1.294   1.601   1.727   1.750
 25 A    26 A    27 A    28 A    29 A    30 A    31 A    32 A                  
  1.819   1.859   1.867   1.922   1.977   1.979   2.222   2.258
 33 A    34 A    35 A    36 A    37 A    38 A    39 A    40 A                  
  2.376   2.454   2.506   2.634   2.721   2.822   3.140   3.399
 41 A    42 A    43 A    44 A    45 A    46 A    47 A    48 A                  
  Import AO data ...  CPU 0.00 s  wall 0.02 s
  Using point group: C1
  Irreducible representations in point group: A
  Molecular orbitals: 
  Occupied MOs:
  Block   0:   1 (  A) A   2 (  A) A   3 (  A) A   4 (  A) A   5 (  A) A
                  -11.24      -11.23      -1.032     -0.7899     -0.6412
               6 (  A) A   7 (  A) A   8 (  A) A
                  -0.582     -0.5046      -0.374
  Block   1:   1 (  A) B   2 (  A) B   3 (  A) B   4 (  A) B   5 (  A) B
                  -11.24      -11.23      -1.032     -0.7899     -0.6412
               6 (  A) B   7 (  A) B   8 (  A) B
                  -0.582     -0.5046      -0.374
  Virtual MOs:
  Block   0:   9 (  A) A  10 (  A) A  11 (  A) A  12 (  A) A  13 (  A) A
                  0.1684      0.2037       0.233      0.2394      0.3033
              14 (  A) A  15 (  A) A  16 (  A) A  17 (  A) A  18 (  A) A
                  0.4621      0.5775      0.6151      0.6892       0.709
              19 (  A) A  20 (  A) A  21 (  A) A  22 (  A) A
                  0.7846       0.808      0.8623       0.936
  Block   1:  23 (  A) A  24 (  A) A  25 (  A) A  26 (  A) A  27 (  A) A
                  0.9725        1.01        1.13       1.235       1.254
              28 (  A) A  29 (  A) A  30 (  A) A  31 (  A) A  32 (  A) A
                   1.266       1.294       1.601       1.727        1.75
              33 (  A) A  34 (  A) A  35 (  A) A  36 (  A) A
                   1.819       1.859       1.867       1.922
  Block   2:  37 (  A) A  38 (  A) A  39 (  A) A  40 (  A) A  41 (  A) A
                   1.977       1.979       2.222       2.258       2.376
              42 (  A) A  43 (  A) A  44 (  A) A  45 (  A) A  46 (  A) A
                   2.454       2.506       2.634       2.721       2.822
              47 (  A) A  48 (  A) A
                    3.14       3.399
  Block   3:   9 (  A) B  10 (  A) B  11 (  A) B  12 (  A) B  13 (  A) B
                  0.1684      0.2037       0.233      0.2394      0.3033
              14 (  A) B  15 (  A) B  16 (  A) B  17 (  A) B  18 (  A) B
                  0.4621      0.5775      0.6151      0.6892       0.709
              19 (  A) B  20 (  A) B  21 (  A) B  22 (  A) B
                  0.7846       0.808      0.8623       0.936
  Block   4:  23 (  A) B  24 (  A) B  25 (  A) B  26 (  A) B  27 (  A) B
                  0.9725        1.01        1.13       1.235       1.254
              28 (  A) B  29 (  A) B  30 (  A) B  31 (  A) B  32 (  A) B
                   1.266       1.294       1.601       1.727        1.75
              33 (  A) B  34 (  A) B  35 (  A) B  36 (  A) B
                   1.819       1.859       1.867       1.922
  Block   5:  37 (  A) B  38 (  A) B  39 (  A) B  40 (  A) B  41 (  A) B
                   1.977       1.979       2.222       2.258       2.376
              42 (  A) B  43 (  A) B  44 (  A) B  45 (  A) B  46 (  A) B
                   2.454       2.506       2.634       2.721       2.822
              47 (  A) B  48 (  A) B
                    3.14       3.399
  Import MO data ...  CPU 0.01 s  wall 0.02 s
  Import HF data ...  CPU 0.08 s  wall 0.04 s
  Import 2e integrals ...  CPU 0.74 s  wall 0.13 s

--------------------------------------------------------------------------------
                                   HF Summary                                   
--------------------------------------------------------------------------------
  Energy:                                                  -78.0399203282 a.u.
  Dip. moment [a.u.]:                  [  -0.000829,    0.000396,    0.003191]
  Total dipole [Debye]:                                               0.008439
  <r^2> [a.u.]:                        [ 175.319386,   34.917233,   11.621274]
  Total <r^2> [a.u.]:                                               221.857893
--------------------------------------------------------------------------------
  HF properties ...  CPU 0.01 s  wall 0.01 s
  MP(1) calculation ...  CPU 0.01 s  wall 0.01 s
  N^6 prerequesite intermediates ...  CPU 0.50 s  wall 0.08 s
  Difference density matrix of state mp2_gs printed to ASCII file 'State_mp2_gs_Difference.txt'
Exporting MP density matrix to file 'Densmat_MP.txt'.
Export successful
  Total density matrix of state mp2_gs printed to ASCII file 'State_mp2_gs_Total.txt'
Exporting MP density matrix to file 'Densmat_MP.txt'.
Export successful

--------------------------------------------------------------------------------
                                 MP(2) Summary                                  
--------------------------------------------------------------------------------
  MP energy contribution:                                   -0.2796957578 a.u.
  Total energy:                                            -78.3196160860 a.u.
  Dip. moment [a.u.]:                  [  -0.000801,    0.000310,    0.003146]
  Total dipole [Debye]:                                               0.008289
  <r^2> [a.u.]:                        [ 175.366201,   34.957985,   11.453091]
  Total <r^2> [a.u.]:                                               221.777277

  Density matrix analysis:
  ------------------------
  NOs
    Occupation of frontier NOs:
       0.0453   1.9383
    Number of electrons: 16.000000
    Number of unpaired electrons: n_u =  0.40338, n_u,nl =  0.04507
    NO participation ratio (PR_NO): 13.856914
  
  
  Mulliken Population Analysis
  Atom      Charge (e)              h+              e-           Del q
  --------------------------------------------------------------------
   1 H        0.050915        0.014035       -0.011200        0.002835
   2 C       -0.100481        0.093179       -0.098829       -0.005649
   3 H        0.050379        0.014084       -0.011188        0.002896
   4 C       -0.101497        0.092990       -0.098900       -0.005910
   5 H        0.050130        0.014121       -0.011184        0.002937
   6 H        0.050554        0.014083       -0.011191        0.002891
  --------------------------------------------------------------------
  Sum:        0.000000        0.242492       -0.242492       -0.000000
  
  Multipole moment analysis of the density matrix
    Molecular charge:                      0.000000
    Number of electrons:                   16.000000
      Center of electronic charge [Ang]: [ -1.560550,  -0.065613,   0.002499]
    Total nuclear charge:                  16.000000
      Center of nuclear charge [Ang]:    [ -1.560576,  -0.065602,   0.002603]
    Dipole moment [D]:                     0.008289
      Cartesian components [D]:          [ -0.002036,   0.000787,   0.007996]
    RMS size of the density [Ang]:         1.200779
      Cartesian components [Ang]:        [  0.796182,   0.779437,   0.447709]
  
  Exciton analysis of the difference density matrix
    <r_h> [Ang]:                  [ -1.560422,  -0.065751,   0.001984]
    <r_e> [Ang]:                  [ -1.560482,  -0.065564,   0.002081]
    |<r_e - r_h>| [Ang]:            0.000220
    Hole size [Ang]:                1.393627
      Cartesian components [Ang]: [  0.846660,   0.834025,   0.727850]
    Electron size [Ang]:            1.359757
      Cartesian components [Ang]: [  0.877900,   0.861791,   0.579265]
--------------------------------------------------------------------------------
  MP(2) calculation ...  CPU 0.12 s  wall 0.11 s
  Start ADC(2)-s ...  CPU 0.01 s  wall 0.01 s
  ADC(2) intermediates ...  CPU 0.02 s  wall 0.01 s
  Starting Davidson for singlet states of irrep A ... 
--------------------------------------------------------------------------------
   It NVec Conv  Avg. Norm  Max. Norm  Conv. states           Remark
--------------------------------------------------------------------------------
        10    0  1.330e-01  4.687e-01  0.4119 n n n n n n n n Guess.
    1   20    0  2.304e-02  1.109e-01  0.3262 n n n n n n n n 
    2   30    0  5.867e-03  2.531e-02  0.3215 n n n n n n n n 
    3   40    0  2.013e-03  1.264e-02  0.3211 n n n n n n n n 
    4   50    0  5.543e-04  3.489e-03  0.3211 n n n n n n n n 
    5   20    0  2.626e-04  1.759e-03  0.3211 n n n n n n n n Subspace collapsed.
    6   30    0  1.516e-04  1.205e-03  0.3211 n n n n n n n n 
    7   40    0  1.301e-04  1.011e-03  0.3211 n n n n n n n n 
    8   50    0  1.206e-04  1.136e-03  0.3211 n n n n n n n n 
    9   20    1  5.838e-05  5.484e-04  0.3211 n y n n n n n n Subspace collapsed.
   10   30    2  5.297e-05  4.942e-04  0.3211 n y y n n n n n 
   11   40    5  2.845e-05  2.715e-04  0.3211 n y y y y y n n 
   12   50    6  3.032e-05  2.987e-04  0.3211 y y y y y y n n 
   13   20    6  1.852e-05  1.827e-04  0.3211 y y y y y y n n Subspace collapsed.
   14   30    6  2.712e-05  2.686e-04  0.3211 y y y y y y n n 
   15   40    6  2.343e-05  2.331e-04  0.3211 y y y y y y n n 
   16   50    6  2.586e-05  2.579e-04  0.3211 y y y y y y n n 
   17   20    6  1.233e-05  1.230e-04  0.3211 y y y y y y n n Subspace collapsed.
   18   30    7  1.181e-05  1.179e-04  0.3211 y y y y y y y n 
   19   40    7  6.078e-06  6.068e-05  0.3211 y y y y y y y n 
   20   50    7  8.153e-06  8.143e-05  0.3211 y y y y y y y n 
   21   20    8  3.935e-06  3.931e-05  0.3211 y y y y y y y y Subspace collapsed.
   22   30    8  6.612e-06  6.606e-05  0.3211 y y y y y y y y 
   23   32    8  6.024e-06  6.019e-05  0.3211 y y y y y y y y 
   24   34    8  5.807e-06  5.802e-05  0.3211 y y y y y y y y 
   25   43    8  6.545e-06  6.542e-05  0.3211 y y y y y y y y 
   26   44    8  6.546e-06  6.543e-05  0.3211 y y y y y y y y 
   27   44    8  6.546e-06  6.543e-05  0.3211 y y y y y y y y 
   28   50    8  6.516e-06  6.514e-05  0.3211 y y y y y y y y 
   29   16    9  3.379e-06  3.378e-05  0.3211 y y y y y y y y Subspace collapsed.
   30   22    9  2.459e-06  2.458e-05  0.3211 y y y y y y y y 
   31   28    9  1.853e-06  1.852e-05  0.3211 y y y y y y y y 
   32   34    9  2.119e-06  2.118e-05  0.3211 y y y y y y y y 
   33   34    9  2.119e-06  2.118e-05  0.3211 y y y y y y y y 
   34   44    9  2.280e-06  2.279e-05  0.3211 y y y y y y y y 
   35   48    9  1.716e-06  1.716e-05  0.3211 y y y y y y y y 
   36   50    9  7.370e-07  7.370e-06  0.3211 y y y y y y y y 
   37   14    9  3.522e-07  3.522e-06  0.3211 y y y y y y y y Subspace collapsed.
   38   18    9  2.671e-07  2.671e-06  0.3211 y y y y y y y y 
   39   22    9  1.640e-07  1.640e-06  0.3211 y y y y y y y y 
   40   26   10  9.001e-08  9.001e-07  0.3211 y y y y y y y y Converged.
--------------------------------------------------------------------------------
  Davidson Summary: 
 ------------------------------------------------------------
  State  0: excitation energy =   0.3211 a.u.   (converged)
  State  1: excitation energy =   0.3328 a.u.   (converged)
  State  2: excitation energy =   0.3370 a.u.   (converged)
  State  3: excitation energy =   0.3614 a.u.   (converged)
  State  4: excitation energy =   0.3753 a.u.   (converged)
  State  5: excitation energy =   0.3872 a.u.   (converged)
  State  6: excitation energy =   0.4248 a.u.   (converged)
  State  7: excitation energy =   0.4471 a.u.   (converged)
  State  8: excitation energy =   0.4563 a.u.   (converged)
  State  9: excitation energy =   0.4648 a.u.   (converged)
 ------------------------------------------------------------

  Singlet states of irrep A ...  CPU 91.62 s  wall 32.67 s
  TDMs ...  CPU 0.66 s  wall 0.27 s
  SDMs ...  CPU 1.59 s  wall 0.53 s
  Starting TPA DIIS iterations ... 
------------------------------------ 
   It     Res. Norm  Remark
------------------------------------
                       Guess.
    1     4.406e+00  
    2     5.841e+00  
    3     1.077e+00  
    4     2.567e-01  
    5     6.576e-02  
    6     2.675e-02  
    7     8.237e-03  
    8     1.439e-03  
    9     5.323e-04  
   10     9.224e-05  
   11     2.888e-05  
   12     6.080e-06  
   13     2.413e-06  
   14     1.169e-06  
   15     2.777e-07  Converged.
   ... Converged in 15 steps (norm: 2.77688e-07)
------------------------------------
  Starting TPA DIIS iterations ... 
------------------------------------ 
   It     Res. Norm  Remark
------------------------------------
                       Guess.
    1     4.184e+00  
    2     5.540e+00  
    3     1.029e+00  
    4     2.553e-01  
    5     6.534e-02  
    6     2.672e-02  
    7     8.114e-03  
    8     1.460e-03  
    9     5.380e-04  
   10     9.359e-05  
   11     2.932e-05  
   12     6.535e-06  
   13     2.238e-06  
   14     1.397e-06  
   15     2.814e-07  Converged.
   ... Converged in 15 steps (norm: 2.81397e-07)
------------------------------------
  Starting TPA DIIS iterations ... 
------------------------------------ 
   It     Res. Norm  Remark
------------------------------------
                       Guess.
    1     6.883e-01  
    2     4.847e-01  
    3     1.712e-01  
    4     7.238e-02  
    5     1.802e-02  
    6     6.429e-03  
    7     1.033e-03  
    8     4.475e-04  
    9     1.234e-04  
   10     3.018e-05  
   11     4.898e-06  
   12     1.566e-06  
   13     8.749e-07  Converged.
   ... Converged in 13 steps (norm: 8.749e-07)
------------------------------------
  Starting TPA DIIS iterations ... 
------------------------------------ 
   It     Res. Norm  Remark
------------------------------------
                       Guess.
    1     4.695e+00  
    2     6.361e+00  
    3     1.159e+00  
    4     2.854e-01  
    5     7.414e-02  
    6     3.042e-02  
    7     9.348e-03  
    8     1.630e-03  
    9     6.076e-04  
   10     1.062e-04  
   11     3.360e-05  
   12     7.355e-06  
   13     2.957e-06  
   14     1.460e-06  
   15     3.341e-07  Converged.
   ... Converged in 15 steps (norm: 3.34124e-07)
------------------------------------
  Starting TPA DIIS iterations ... 
------------------------------------ 
   It     Res. Norm  Remark
------------------------------------
                       Guess.
    1     4.457e+00  
    2     6.032e+00  
    3     1.107e+00  
    4     2.837e-01  
    5     7.368e-02  
    6     3.040e-02  
    7     9.211e-03  
    8     1.657e-03  
    9     6.147e-04  
   10     1.080e-04  
   11     3.421e-05  
   12     7.976e-06  
   13     2.786e-06  
   14     1.782e-06  
   15     3.559e-07  Converged.
   ... Converged in 15 steps (norm: 3.55861e-07)
------------------------------------
  Starting TPA DIIS iterations ... 
------------------------------------ 
   It     Res. Norm  Remark
------------------------------------
                       Guess.
    1     7.005e-01  
    2     5.025e-01  
    3     1.812e-01  
    4     8.214e-02  
    5     1.938e-02  
    6     7.060e-03  
    7     1.168e-03  
    8     5.280e-04  
    9     1.494e-04  
   10     3.467e-05  
   11     5.535e-06  
   12     1.846e-06  
   13     1.086e-06  
   14     3.314e-07  Converged.
   ... Converged in 14 steps (norm: 3.31403e-07)
------------------------------------
  Starting TPA DIIS iterations ... 
------------------------------------ 
   It     Res. Norm  Remark
------------------------------------
                       Guess.
    1     4.808e+00  
    2     6.566e+00  
    3     1.191e+00  
    4     2.970e-01  
    5     7.751e-02  
    6     3.190e-02  
    7     9.796e-03  
    8     1.707e-03  
    9     6.380e-04  
   10     1.119e-04  
   11     3.554e-05  
   12     7.896e-06  
   13     3.189e-06  
   14     1.585e-06  
   15     3.577e-07  Converged.
   ... Converged in 15 steps (norm: 3.57698e-07)
------------------------------------
  Starting TPA DIIS iterations ... 
------------------------------------ 
   It     Res. Norm  Remark
------------------------------------
                       Guess.
    1     4.564e+00  
    2     6.227e+00  
    3     1.137e+00  
    4     2.951e-01  
    5     7.704e-02  
    6     3.190e-02  
    7     9.654e-03  
    8     1.736e-03  
    9     6.458e-04  
   10     1.138e-04  
   11     3.622e-05  
   12     8.592e-06  
   13     3.026e-06  
   14     1.950e-06  
   15     3.887e-07  Converged.
   ... Converged in 15 steps (norm: 3.88711e-07)
------------------------------------
  Starting TPA DIIS iterations ... 
------------------------------------ 
   It     Res. Norm  Remark
------------------------------------
                       Guess.
    1     7.051e-01  
    2     5.093e-01  
    3     1.851e-01  
    4     8.612e-02  
    5     1.992e-02  
    6     7.315e-03  
    7     1.223e-03  
    8     5.615e-04  
    9     1.602e-04  
   10     3.613e-05  
   11     5.784e-06  
   12     1.962e-06  
   13     1.177e-06  
   14     3.544e-07  Converged.
   ... Converged in 14 steps (norm: 3.544e-07)
------------------------------------
  Starting TPA DIIS iterations ... 
------------------------------------ 
   It     Res. Norm  Remark
------------------------------------
                       Guess.
    1     5.549e+00  
    2     7.948e+00  
    3     1.398e+00  
    4     3.772e-01  
    5     1.009e-01  
    6     4.229e-02  
    7     1.290e-02  
    8     2.239e-03  
    9     8.509e-04  
   10     1.519e-04  
   11     4.952e-05  
   12     1.206e-05  
   13     4.974e-06  
   14     2.585e-06  
   15     5.349e-07  Converged.
   ... Converged in 15 steps (norm: 5.34869e-07)
------------------------------------
  Starting TPA DIIS iterations ... 
------------------------------------ 
   It     Res. Norm  Remark
------------------------------------
                       Guess.
    1     5.266e+00  
    2     7.536e+00  
    3     1.334e+00  
    4     3.741e-01  
    5     1.003e-01  
    6     4.235e-02  
    7     1.272e-02  
    8     2.285e-03  
    9     8.634e-04  
   10     1.554e-04  
   11     5.092e-05  
   12     1.341e-05  
   13     5.014e-06  
   14     3.328e-06  
   15     6.627e-07  Converged.
   ... Converged in 15 steps (norm: 6.62694e-07)
------------------------------------
  Starting TPA DIIS iterations ... 
------------------------------------ 
   It     Res. Norm  Remark
------------------------------------
                       Guess.
    1     7.322e-01  
    2     5.515e-01  
    3     2.099e-01  
    4     1.141e-01  
    5     2.346e-02  
    6     9.085e-03  
    7     1.619e-03  
    8     7.994e-04  
    9     2.357e-04  
   10     4.174e-05  
   11     7.442e-06  
   12     2.809e-06  
   13     1.870e-06  
   14     5.219e-07  Converged.
   ... Converged in 14 steps (norm: 5.21851e-07)
------------------------------------
  Starting TPA DIIS iterations ... 
------------------------------------ 
   It     Res. Norm  Remark
------------------------------------
                       Guess.
    1     6.060e+00  
    2     8.934e+00  
    3     1.540e+00  
    4     4.366e-01  
    5     1.182e-01  
    6     5.008e-02  
    7     1.521e-02  
    8     2.632e-03  
    9     1.010e-03  
   10     1.824e-04  
   11     6.040e-05  
   12     1.558e-05  
   13     6.481e-06  
   14     3.474e-06  
   15     6.840e-07  Converged.
   ... Converged in 15 steps (norm: 6.83991e-07)
------------------------------------
  Starting TPA DIIS iterations ... 
------------------------------------ 
   It     Res. Norm  Remark
------------------------------------
                       Guess.
    1     5.749e+00  
    2     8.470e+00  
    3     1.470e+00  
    4     4.325e-01  
    5     1.176e-01  
    6     5.020e-02  
    7     1.500e-02  
    8     2.691e-03  
    9     1.027e-03  
   10     1.871e-04  
   11     6.257e-05  
   12     1.759e-05  
   13     6.874e-06  
   14     4.583e-06  
   15     9.194e-07  Converged.
   ... Converged in 15 steps (norm: 9.19447e-07)
------------------------------------
  Starting TPA DIIS iterations ... 
------------------------------------ 
   It     Res. Norm  Remark
------------------------------------
                       Guess.
    1     7.487e-01  
    2     5.787e-01  
    3     2.264e-01  
    4     1.350e-01  
    5     2.599e-02  
    6     1.040e-02  
    7     1.930e-03  
    8     9.708e-04  
    9     2.892e-04  
   10     4.278e-05  
   11     8.645e-06  
   12     3.465e-06  
   13     2.438e-06  
   14     6.527e-07  Converged.
   ... Converged in 14 steps (norm: 6.52723e-07)
------------------------------------
  Starting TPA DIIS iterations ... 
------------------------------------ 
   It     Res. Norm  Remark
------------------------------------
                       Guess.
    1     6.560e+00  
    2     9.923e+00  
    3     1.679e+00  
    4     4.978e-01  
    5     1.360e-01  
    6     5.817e-02  
    7     1.758e-02  
    8     3.035e-03  
    9     1.175e-03  
   10     2.142e-04  
   11     7.197e-05  
   12     1.959e-05  
   13     8.174e-06  
   14     4.520e-06  
   15     8.568e-07  Converged.
   ... Converged in 15 steps (norm: 8.56754e-07)
------------------------------------
  Starting TPA DIIS iterations ... 
------------------------------------ 
   It     Res. Norm  Remark
------------------------------------
                       Guess.
    1     6.222e+00  
    2     9.407e+00  
    3     1.601e+00  
    4     4.926e-01  
    5     1.353e-01  
    6     5.836e-02  
    7     1.734e-02  
    8     3.109e-03  
    9     1.197e-03  
   10     2.206e-04  
   11     7.515e-05  
   12     2.241e-05  
   13     9.155e-06  
   14     6.078e-06  
   15     1.233e-06  
   16     8.299e-07  Converged.
   ... Converged in 16 steps (norm: 8.29876e-07)
------------------------------------
  Starting TPA DIIS iterations ... 
------------------------------------ 
   It     Res. Norm  Remark
------------------------------------
                       Guess.
    1     7.635e-01  
    2     6.041e-01  
    3     2.422e-01  
    4     1.564e-01  
    5     2.855e-02  
    6     1.176e-02  
    7     2.262e-03  
    8     1.134e-03  
    9     3.405e-04  
   10     4.306e-05  
   11     9.896e-06  
   12     4.150e-06  
   13     3.057e-06  
   14     7.916e-07  Converged.
   ... Converged in 14 steps (norm: 7.91643e-07)
------------------------------------
  Starting TPA DIIS iterations ... 
------------------------------------ 
   It     Res. Norm  Remark
------------------------------------
                       Guess.
    1     8.670e+00  
    2     1.434e+01  
    3     2.253e+00  
    4     7.835e-01  
    5     2.193e-01  
    6     9.676e-02  
    7     2.866e-02  
    8     4.908e-03  
    9     1.960e-03  
   10     3.696e-04  
   11     1.297e-04  
   12     4.312e-05  
   13     1.759e-05  
   14     1.134e-05  
   15     1.973e-06  
   16     1.624e-06  
   17     4.355e-07  Converged.
   ... Converged in 17 steps (norm: 4.35543e-07)
------------------------------------
  Starting TPA DIIS iterations ... 
------------------------------------ 
   It     Res. Norm  Remark
------------------------------------
                       Guess.
    1     8.221e+00  
    2     1.360e+01  
    3     2.147e+00  
    4     7.724e-01  
    5     2.184e-01  
    6     9.735e-02  
    7     2.831e-02  
    8     5.067e-03  
    9     2.013e-03  
   10     3.863e-04  
   11     1.411e-04  
   12     5.153e-05  
   13     2.512e-05  
   14     1.573e-05  
   15     3.434e-06  
   16     1.858e-06  
   17     4.690e-07  Converged.
   ... Converged in 17 steps (norm: 4.69025e-07)
------------------------------------
  Starting TPA DIIS iterations ... 
------------------------------------ 
   It     Res. Norm  Remark
------------------------------------
                       Guess.
    1     8.146e-01  
    2     7.012e-01  
    3     3.054e-01  
    4     2.516e-01  
    5     4.012e-02  
    6     1.805e-02  
    7     3.925e-03  
    8     1.650e-03  
    9     5.380e-04  
   10     5.113e-05  
   11     1.603e-05  
   12     7.349e-06  
   13     6.182e-06  
   14     1.474e-06  
   15     6.595e-07  Converged.
   ... Converged in 15 steps (norm: 6.59518e-07)
------------------------------------
  Starting TPA DIIS iterations ... 
------------------------------------ 
   It     Res. Norm  Remark
------------------------------------
                       Guess.
    1     1.049e+01  
    2     1.844e+01  
    3     2.735e+00  
    4     1.058e+00  
    5     3.001e-01  
    6     1.350e-01  
    7     3.940e-02  
    8     6.710e-03  
    9     2.735e-03  
   10     5.281e-04  
   11     1.894e-04  
   12     7.294e-05  
   13     2.866e-05  
   14     2.128e-05  
   15     3.535e-06  
   16     3.236e-06  
   17     7.164e-07  Converged.
   ... Converged in 17 steps (norm: 7.16393e-07)
------------------------------------
  Starting TPA DIIS iterations ... 
------------------------------------ 
   It     Res. Norm  Remark
------------------------------------
                       Guess.
    1     9.946e+00  
    2     1.748e+01  
    3     2.606e+00  
    4     1.040e+00  
    5     2.990e-01  
    6     1.361e-01  
    7     3.894e-02  
    8     6.973e-03  
    9     2.830e-03  
   10     5.588e-04  
   11     2.147e-04  
   12     8.923e-05  
   13     4.881e-05  
   14     2.890e-05  
   15     6.632e-06  
   16     2.987e-06  
   17     8.003e-07  Converged.
   ... Converged in 17 steps (norm: 8.00287e-07)
------------------------------------
  Starting TPA DIIS iterations ... 
------------------------------------ 
   It     Res. Norm  Remark
------------------------------------
                       Guess.
    1     8.491e-01  
    2     7.757e-01  
    3     3.560e-01  
    4     3.302e-01  
    5     5.088e-02  
    6     2.378e-02  
    7     5.598e-03  
    8     1.860e-03  
    9     6.891e-04  
   10     6.888e-05  
   11     2.229e-05  
   12     1.041e-05  
   13     9.426e-06  
   14     2.149e-06  
   15     1.052e-06  
   16     2.691e-07  Converged.
   ... Converged in 16 steps (norm: 2.69073e-07)
------------------------------------
  Starting TPA DIIS iterations ... 
------------------------------------ 
   It     Res. Norm  Remark
------------------------------------
                       Guess.
    1     1.143e+01  
    2     2.064e+01  
    3     2.980e+00  
    4     1.207e+00  
    5     3.444e-01  
    6     1.563e-01  
    7     4.529e-02  
    8     7.694e-03  
    9     3.164e-03  
   10     6.179e-04  
   11     2.234e-04  
   12     9.207e-05  
   13     3.561e-05  
   14     2.816e-05  
   15     4.617e-06  
   16     4.337e-06  
   17     8.837e-07  Converged.
   ... Converged in 17 steps (norm: 8.83676e-07)
------------------------------------
  Starting TPA DIIS iterations ... 
------------------------------------ 
   It     Res. Norm  Remark
------------------------------------
                       Guess.
    1     1.084e+01  
    2     1.956e+01  
    3     2.838e+00  
    4     1.185e+00  
    5     3.432e-01  
    6     1.576e-01  
    7     4.476e-02  
    8     8.024e-03  
    9     3.289e-03  
   10     6.577e-04  
   11     2.590e-04  
   12     1.135e-04  
   13     6.467e-05  
   14     3.746e-05  
   15     8.642e-06  
   16     3.640e-06  
   17     9.708e-07  Converged.
   ... Converged in 17 steps (norm: 9.70751e-07)
------------------------------------
  Starting TPA DIIS iterations ... 
------------------------------------ 
   It     Res. Norm  Remark
------------------------------------
                       Guess.
    1     8.645e-01  
    2     8.117e-01  
    3     3.810e-01  
    4     3.669e-01  
    5     5.662e-02  
    6     2.669e-02  
    7     6.511e-03  
    8     1.917e-03  
    9     7.627e-04  
   10     7.971e-05  
   11     2.579e-05  
   12     1.214e-05  
   13     1.133e-05  
   14     2.511e-06  
   15     1.308e-06  
   16     3.426e-07  Converged.
   ... Converged in 16 steps (norm: 3.42553e-07)
------------------------------------
  Starting TPA DIIS iterations ... 
------------------------------------ 
   It     Res. Norm  Remark
------------------------------------
                       Guess.
    1     1.241e+01  
    2     2.299e+01  
    3     3.231e+00  
    4     1.366e+00  
    5     3.923e-01  
    6     1.795e-01  
    7     5.166e-02  
    8     8.758e-03  
    9     3.631e-03  
   10     7.171e-04  
   11     2.615e-04  
   12     1.149e-04  
   13     4.397e-05  
   14     3.664e-05  
   15     6.005e-06  
   16     5.706e-06  
   17     1.089e-06  
   18     4.493e-07  Converged.
   ... Converged in 18 steps (norm: 4.49253e-07)
------------------------------------
  Starting TPA DIIS iterations ... 
------------------------------------ 
   It     Res. Norm  Remark
------------------------------------
                       Guess.
    1     1.176e+01  
    2     2.180e+01  
    3     3.077e+00  
    4     1.340e+00  
    5     3.910e-01  
    6     1.812e-01  
    7     5.107e-02  
    8     9.165e-03  
    9     3.792e-03  
   10     7.678e-04  
   11     3.101e-04  
   12     1.423e-04  
   13     8.355e-05  
   14     4.756e-05  
   15     1.091e-05  
   16     4.431e-06  
   17     1.149e-06  
   18     4.581e-07  Converged.
   ... Converged in 18 steps (norm: 4.58095e-07)
------------------------------------
  Starting TPA DIIS iterations ... 
------------------------------------ 
   It     Res. Norm  Remark
------------------------------------
                       Guess.
    1     8.794e-01  
    2     8.480e-01  
    3     4.062e-01  
    4     4.018e-01  
    5     6.271e-02  
    6     2.961e-02  
    7     7.485e-03  
    8     1.960e-03  
    9     8.372e-04  
   10     9.143e-05  
   11     2.964e-05  
   12     1.409e-05  
   13     1.355e-05  
   14     2.891e-06  
   15     1.622e-06  
   16     4.438e-07  Converged.
   ... Converged in 16 steps (norm: 4.43835e-07)
------------------------------------
  Two-photon absorbption ...  CPU 70.12 s  wall 18.14 s
  Transition density matrix of state singlet_A_1 printed to ASCII file 'State_singlet_A_1_Transition.txt'
  Transition density matrix of state singlet_A_2 printed to ASCII file 'State_singlet_A_2_Transition.txt'
  Transition density matrix of state singlet_A_3 printed to ASCII file 'State_singlet_A_3_Transition.txt'
  Transition density matrix of state singlet_A_4 printed to ASCII file 'State_singlet_A_4_Transition.txt'
  Transition density matrix of state singlet_A_5 printed to ASCII file 'State_singlet_A_5_Transition.txt'
  Transition density matrix of state singlet_A_6 printed to ASCII file 'State_singlet_A_6_Transition.txt'
  Transition density matrix of state singlet_A_7 printed to ASCII file 'State_singlet_A_7_Transition.txt'
  Transition density matrix of state singlet_A_8 printed to ASCII file 'State_singlet_A_8_Transition.txt'
  Transition density matrix of state singlet_A_9 printed to ASCII file 'State_singlet_A_9_Transition.txt'
  Transition density matrix of state singlet_A_10 printed to ASCII file 'State_singlet_A_10_Transition.txt'
  Transition properties ...  CPU 0.16 s  wall 0.75 s
  Difference density matrix of state singlet_A_1 printed to ASCII file 'State_singlet_A_1_Difference.txt'
  Total density matrix of state singlet_A_1 printed to ASCII file 'State_singlet_A_1_Total.txt'
  Difference density matrix of state singlet_A_2 printed to ASCII file 'State_singlet_A_2_Difference.txt'
  Total density matrix of state singlet_A_2 printed to ASCII file 'State_singlet_A_2_Total.txt'
  Difference density matrix of state singlet_A_3 printed to ASCII file 'State_singlet_A_3_Difference.txt'
  Total density matrix of state singlet_A_3 printed to ASCII file 'State_singlet_A_3_Total.txt'
  Difference density matrix of state singlet_A_4 printed to ASCII file 'State_singlet_A_4_Difference.txt'
  Total density matrix of state singlet_A_4 printed to ASCII file 'State_singlet_A_4_Total.txt'
  Difference density matrix of state singlet_A_5 printed to ASCII file 'State_singlet_A_5_Difference.txt'
  Total density matrix of state singlet_A_5 printed to ASCII file 'State_singlet_A_5_Total.txt'
  Difference density matrix of state singlet_A_6 printed to ASCII file 'State_singlet_A_6_Difference.txt'
  Total density matrix of state singlet_A_6 printed to ASCII file 'State_singlet_A_6_Total.txt'
  Difference density matrix of state singlet_A_7 printed to ASCII file 'State_singlet_A_7_Difference.txt'
  Total density matrix of state singlet_A_7 printed to ASCII file 'State_singlet_A_7_Total.txt'
  Difference density matrix of state singlet_A_8 printed to ASCII file 'State_singlet_A_8_Difference.txt'
  Total density matrix of state singlet_A_8 printed to ASCII file 'State_singlet_A_8_Total.txt'
  Difference density matrix of state singlet_A_9 printed to ASCII file 'State_singlet_A_9_Difference.txt'
  Total density matrix of state singlet_A_9 printed to ASCII file 'State_singlet_A_9_Total.txt'
  Difference density matrix of state singlet_A_10 printed to ASCII file 'State_singlet_A_10_Difference.txt'
  Total density matrix of state singlet_A_10 printed to ASCII file 'State_singlet_A_10_Total.txt'
  Properties ...  CPU 0.30 s  wall 0.56 s
  ISR TDMS ...  CPU 8.85 s  wall 3.15 s
  ISR transition properties ...  CPU 0.17 s  wall 0.08 s
  Sum-over-states TPA ...  CPU 0.00 s  wall 0.00 s

--------------------------------------------------------------------------------
                   State-averaged natural transition orbitals
--------------------------------------------------------------------------------
--------------------------------------------------------------------------------
  SA-NTO decomposition ...  CPU 0.01 s  wall 0.02 s

--------------------------------------------------------------------------------
                             Excited State Summary
--------------------------------------------------------------------------------
--------------------------------------------------------------------------------

  Excited state 1 (singlet, A)                                     [converged]
  ----------------------------------------------------------------------------
  Term symbol:  2 (1) A                                     R^2 =  4.77451e-14

  Total energy:                                            -77.9985629285 a.u.
  Excitation energy:                                               8.736301 eV

  Osc. strength:                                                      0.444719
  Trans. dip. moment [a.u.]:           [  -1.044747,    0.993072,    0.009790]
  <i|r^2|0> [a.u.]:                    [  -6.162714,    0.243196,    0.005764]
  Two-photon absorption cross-section (SoS) [a.u.]:                   0.000451
  Two-photon absorption matrix (SoS) [a.u.]:
                                       |   -0.004830    0.000776    0.002561 |
                                       |    0.000776   -0.002286   -0.001581 |
                                       |    0.002561   -0.001581   -0.003290 |
  Two-photon absorption cross-section [a.u.]:                         0.007591
  Two-photon absorption matrix [a.u.]:
                                       |    0.002469    0.004190   -0.014874 |
                                       |    0.004190    0.007721   -0.025535 |
                                       |   -0.014874   -0.025535   -0.006639 |

  Dip. moment [a.u.]:                  [  -0.000759,    0.000181,    0.003929]
  Total dipole [Debye]:                                               0.010181
  <r^2> [a.u.]:                        [ 176.117326,   35.644059,   11.865675]
  Total <r^2> [a.u.]:                                               223.627060

  V1^2 = 0.9714, V2^2 = 0.0286

  Important amplitudes:
      occ i     occ j     vir a      vir b          v   
    -----------------------------------------------------
     8 (A) A              9 (A) A                 0.6806
     6 (A) A             14 (A) A                 0.0622
     4 (A) A             10 (A) A                 0.0606
     7 (A) A             16 (A) A                -0.0569
     5 (A) A             13 (A) A                 0.0513
     6 (A) A             23 (A) A                 0.0485
     8 (A) A             20 (A) A                 0.0349
     6 (A) A             19 (A) A                 0.0308
     3 (A) A             12 (A) A                -0.0281
     7 (A) A              9 (A) A                -0.0253
     5 (A) A             22 (A) A                -0.0215
     7 (A) A             11 (A) A                -0.0209
     4 (A) A             24 (A) A                 0.0187
     3 (A) A             26 (A) A                 0.0185
     8 (A) A   8 (A) B   17 (A) A   20 (A) B     -0.0184
     8 (A) A   8 (A) B    9 (A) A   28 (A) B      0.0166
     6 (A) A             26 (A) A                 0.0163
     7 (A) A             21 (A) A                -0.0148
     3 (A) A             14 (A) A                 0.0139
     6 (A) A             12 (A) A                 0.0132
     3 (A) A   4 (A) B    9 (A) A    9 (A) B     -0.0129
     3 (A) A             19 (A) A                 0.0119
     8 (A) A   8 (A) B   18 (A) A   19 (A) B     -0.0113
     7 (A) A             32 (A) A                -0.0096
     7 (A) A             36 (A) A                -0.0086
     3 (A) A             23 (A) A                 0.0080
     8 (A) A   8 (A) B   25 (A) A   29 (A) B     -0.0076
     6 (A) A             35 (A) A                 0.0072
     6 (A) A             40 (A) A                 0.0068
     3 (A) A   6 (A) B    9 (A) A   28 (A) B      0.0064
     6 (A) A   8 (A) A   19 (A) A   28 (A) A     -0.0060
     5 (A) A   7 (A) B    9 (A) A    9 (A) B      0.0060
     5 (A) A   8 (A) B   11 (A) A   20 (A) B     -0.0059
     7 (A) A   8 (A) B   13 (A) A   20 (A) B      0.0059
     5 (A) A   8 (A) B   16 (A) A    9 (A) B     -0.0059
     5 (A) A   8 (A) B   11 (A) A    9 (A) B      0.0059
     3 (A) A   5 (A) B    9 (A) A   25 (A) B     -0.0058
     3 (A) A             40 (A) A                 0.0057
     7 (A) A   8 (A) B   22 (A) A   20 (A) B     -0.0057
     6 (A) A   8 (A) A    9 (A) A   18 (A) A     -0.0057
    -----------------------------------------------------

  Density matrix analysis:
  ------------------------
  NOs
    Occupation of frontier NOs:
       0.9496   1.0216
    Number of electrons: 16.000000
    Number of unpaired electrons: n_u =  2.31342, n_u,nl =  2.03263
    NO participation ratio (PR_NO):  2.863522
  
  
  Mulliken Population Analysis
  Atom      Charge (e)              h+              e-           Del q
  --------------------------------------------------------------------
   1 H        0.058835        0.020466       -0.012547        0.007919
   2 C       -0.116054        0.490453       -0.506025       -0.015573
   3 H        0.058126        0.020342       -0.012595        0.007747
   4 C       -0.117411        0.490299       -0.506213       -0.015914
   5 H        0.057991        0.020407       -0.012546        0.007861
   6 H        0.058513        0.020468       -0.012509        0.007959
  --------------------------------------------------------------------
  Sum:        0.000000        1.062435       -1.062435       -0.000000
  
  Multipole moment analysis of the density matrix
    Molecular charge:                      0.000000
    Number of electrons:                   16.000000
      Center of electronic charge [Ang]: [ -1.560551,  -0.065608,   0.002473]
    Total nuclear charge:                  16.000000
      Center of nuclear charge [Ang]:    [ -1.560576,  -0.065602,   0.002603]
    Dipole moment [D]:                     0.010181
      Cartesian components [D]:          [ -0.001930,   0.000460,   0.009985]
    RMS size of the density [Ang]:         1.214184
      Cartesian components [Ang]:        [  0.804393,   0.787102,   0.455702]
  
  Exciton analysis of the difference density matrix
    <r_h> [Ang]:                  [ -1.560154,  -0.065695,   0.000914]
    <r_e> [Ang]:                  [ -1.560175,  -0.065631,   0.000524]
    |<r_e - r_h>| [Ang]:            0.000396
    Hole size [Ang]:                1.285809
      Cartesian components [Ang]: [  0.728938,   0.713229,   0.783107]
    Electron size [Ang]:            1.463147
      Cartesian components [Ang]: [  0.853968,   0.830382,   0.849708]

  Transition density matrix analysis:
  -----------------------------------
  
  CT numbers (Mulliken)
    omega =     0.9535
    <Phe> =    -0.1605
  
  Exciton analysis of the transition density matrix
    Trans. dipole moment [D]:             1.831902
      Cartesian components [D]:         [ -1.327741,   1.262068,   0.012442]
    <r_h> [Ang]:                        [ -1.560033,  -0.065847,   0.001236]
    <r_e> [Ang]:                        [ -1.560191,  -0.065614,   0.000279]
    |<r_e - r_h>| [Ang]:                  0.000997
    Hole size [Ang]:                      1.214748
      Cartesian components [Ang]:       [  0.650310,   0.637362,   0.804039]
    Electron size [Ang]:                  1.485924
      Cartesian components [Ang]:       [  0.864371,   0.839235,   0.869781]
    RMS electron-hole separation [Ang]:   1.936963
      Cartesian components [Ang]:       [  1.107055,   1.075523,   1.170259]
    Covariance(r_h, r_e) [Ang^2]:        -0.034121
    Correlation coefficient:             -0.018903
    Center-of-mass size [Ang]:            0.950703
      Cartesian components [Ang]:       [  0.527852,   0.515834,   0.599269]

  Decomposition into state-averaged NTOs
    H- 0 -> L+ 0: -0.6695 ( 89.6%)
    H- 2 -> L+ 5:  0.0836 (  1.4%)
                   omega =  95.3%
  ----------------------------------------------------------------------------


  Excited state 2 (singlet, A)                                     [converged]
  ----------------------------------------------------------------------------
  Term symbol:  3 (1) A                                     R^2 =  5.71321e-14

  Total energy:                                            -77.9868370578 a.u.
  Excitation energy:                                               9.055378 eV

  Osc. strength:                                                      0.000800
  Trans. dip. moment [a.u.]:           [  -0.041877,    0.043050,   -0.001087]
  <i|r^2|0> [a.u.]:                    [  -0.189016,    0.097663,   -0.144973]
  Two-photon absorption cross-section (SoS) [a.u.]:                   4.900980
  Two-photon absorption matrix (SoS) [a.u.]:
                                       |    0.042621    0.056367   -0.542673 |
                                       |    0.056367    0.069852   -0.552402 |
                                       |   -0.542673   -0.552402   -0.113623 |
  Two-photon absorption cross-section [a.u.]:                         0.077498
  Two-photon absorption matrix [a.u.]:
                                       |   -0.026785   -0.007610    0.057895 |
                                       |   -0.007610    0.012831    0.075756 |
                                       |    0.057895    0.075756    0.013960 |

  Dip. moment [a.u.]:                  [  -0.005463,    0.008521,    0.007449]
  Total dipole [Debye]:                                               0.031944
  <r^2> [a.u.]:                        [ 174.511326,   33.976077,   13.167103]
  Total <r^2> [a.u.]:                                               221.654506

  V1^2 = 0.9542, V2^2 = 0.0458

  Important amplitudes:
      occ i     occ j     vir a      vir b          v   
    -----------------------------------------------------
     7 (A) A              9 (A) A                 0.6688
     8 (A) A             11 (A) A                -0.1482
     7 (A) A             20 (A) A                 0.0758
     5 (A) A   8 (A) B    9 (A) A    9 (A) B      0.0316
     8 (A) A             16 (A) A                 0.0273
     8 (A) A              9 (A) A                 0.0248
     8 (A) A             21 (A) A                -0.0176
     5 (A) A             28 (A) A                -0.0149
     4 (A) A   7 (A) B    9 (A) A   19 (A) B     -0.0135
     5 (A) A   7 (A) B    9 (A) A   16 (A) B      0.0134
     7 (A) A   8 (A) B   20 (A) A   17 (A) B     -0.0105
     7 (A) A   8 (A) A    9 (A) A   28 (A) A     -0.0097
     5 (A) A   8 (A) B    9 (A) A   20 (A) B      0.0095
     4 (A) A   6 (A) B    9 (A) A   16 (A) B      0.0091
     5 (A) A   6 (A) A    9 (A) A   23 (A) A     -0.0091
     5 (A) A   6 (A) A    9 (A) A   14 (A) A     -0.0089
     5 (A) A   6 (A) B    9 (A) A   19 (A) B     -0.0087
     4 (A) A   5 (A) A    9 (A) A   10 (A) A      0.0084
     8 (A) A   7 (A) B    9 (A) A   28 (A) B      0.0084
     6 (A) A   7 (A) B    9 (A) A   18 (A) B     -0.0083
     5 (A) A   6 (A) B    9 (A) A   23 (A) B     -0.0080
     3 (A) A   7 (A) B    9 (A) A   18 (A) B      0.0080
     5 (A) A   7 (A) A    9 (A) A   16 (A) A      0.0079
     4 (A) A   8 (A) B    9 (A) A   25 (A) B      0.0077
     7 (A) A   8 (A) B   17 (A) A   20 (A) B     -0.0074
     4 (A) A   7 (A) B   19 (A) A    9 (A) B     -0.0074
     5 (A) A   5 (A) B    9 (A) A   13 (A) B     -0.0072
     7 (A) A   8 (A) B   19 (A) A   18 (A) B     -0.0072
     5 (A) A   8 (A) A    9 (A) A   20 (A) A      0.0069
     4 (A) A   5 (A) B    9 (A) A   18 (A) B     -0.0068
     7 (A) A   7 (A) B   20 (A) A   22 (A) B     -0.0065
     7 (A) A   8 (A) B   17 (A) A    9 (A) B     -0.0065
     5 (A) A   6 (A) B    9 (A) A   14 (A) B     -0.0063
     4 (A) A   7 (A) A    9 (A) A   19 (A) A     -0.0061
     4 (A) A   5 (A) B   10 (A) A    9 (A) B     -0.0061
     5 (A) A             38 (A) A                 0.0060
     5 (A) A   7 (A) B   11 (A) A   20 (A) B     -0.0060
     4 (A) A   7 (A) B    9 (A) A   14 (A) B      0.0060
     4 (A) A   8 (A) A    9 (A) A   25 (A) A      0.0057
     6 (A) A   7 (A) A   19 (A) A   28 (A) A     -0.0056
    -----------------------------------------------------

  Density matrix analysis:
  ------------------------
  NOs
    Occupation of frontier NOs:
       0.9580   1.0536
    Number of electrons: 16.000000
    Number of unpaired electrons: n_u =  2.35521, n_u,nl =  2.06266
    NO participation ratio (PR_NO):  3.026911
  
  
  Mulliken Population Analysis
  Atom      Charge (e)              h+              e-           Del q
  --------------------------------------------------------------------
   1 H        0.148686        0.121565       -0.023794        0.097771
   2 C       -0.301332        0.271059       -0.471909       -0.200850
   3 H        0.151781        0.126597       -0.025196        0.101401
   4 C       -0.302203        0.273455       -0.474160       -0.200705
   5 H        0.154017        0.127713       -0.023826        0.103887
   6 H        0.149051        0.123384       -0.024886        0.098497
  --------------------------------------------------------------------
  Sum:        0.000000        1.043772       -1.043772       -0.000000
  
  Multipole moment analysis of the density matrix
    Molecular charge:                      0.000000
    Number of electrons:                   16.000000
      Center of electronic charge [Ang]: [ -1.560396,  -0.065884,   0.002357]
    Total nuclear charge:                  16.000000
      Center of nuclear charge [Ang]:    [ -1.560576,  -0.065602,   0.002603]
    Dipole moment [D]:                     0.031944
      Cartesian components [D]:          [ -0.013887,   0.021659,   0.018933]
    RMS size of the density [Ang]:         1.200070
      Cartesian components [Ang]:        [  0.787036,   0.768311,   0.480044]
  
  Exciton analysis of the difference density matrix
    <r_h> [Ang]:                  [ -1.565007,  -0.062473,   0.002978]
    <r_e> [Ang]:                  [ -1.562643,  -0.066636,   0.000796]
    |<r_e - r_h>| [Ang]:            0.005261
    Hole size [Ang]:                1.485929
      Cartesian components [Ang]: [  0.999427,   1.001073,   0.454956]
    Electron size [Ang]:            1.477130
      Cartesian components [Ang]: [  0.881418,   0.859173,   0.816601]

  Transition density matrix analysis:
  -----------------------------------
  
  CT numbers (Mulliken)
    omega =     0.9218
    <Phe> =    -0.0124
  
  Exciton analysis of the transition density matrix
    Trans. dipole moment [D]:             0.076339
      Cartesian components [D]:         [ -0.053220,   0.054712,  -0.001381]
    <r_h> [Ang]:                        [ -1.565700,  -0.061864,   0.003398]
    <r_e> [Ang]:                        [ -1.562152,  -0.067194,   0.000303]
    |<r_e - r_h>| [Ang]:                  0.007112
    Hole size [Ang]:                      1.514387
      Cartesian components [Ang]:       [  1.021959,   1.025317,   0.444626]
    Electron size [Ang]:                  1.474250
      Cartesian components [Ang]:       [  0.872096,   0.848545,   0.832365]
    RMS electron-hole separation [Ang]:   2.093712
      Cartesian components [Ang]:       [  1.327670,   1.315999,   0.942903]
    Covariance(r_h, r_e) [Ang^2]:         0.041601
    Correlation coefficient:              0.018634
    Center-of-mass size [Ang]:            1.066535
      Cartesian components [Ang]:       [  0.679561,   0.672827,   0.472226]

  Decomposition into state-averaged NTOs
    H- 1 -> L+ 0: -0.6612 ( 87.4%)
    H- 0 -> L+ 2:  0.1482 (  4.4%)
                   omega =  92.2%
  ----------------------------------------------------------------------------


  Excited state 3 (singlet, A)                                     [converged]
  ----------------------------------------------------------------------------
  Term symbol:  4 (1) A                                     R^2 =  7.26359e-14

  Total energy:                                            -77.9825688434 a.u.
  Excitation energy:                                               9.171522 eV

  Osc. strength:                                                      0.025227
  Trans. dip. moment [a.u.]:           [  -0.019334,   -0.015269,    0.334162]
  <i|r^2|0> [a.u.]:                    [  -0.133981,    0.021601,   -0.005100]
  Two-photon absorption cross-section (SoS) [a.u.]:                   0.188624
  Two-photon absorption matrix (SoS) [a.u.]:
                                       |   -0.154443   -0.008310    0.004315 |
                                       |   -0.008310    0.145875    0.014256 |
                                       |    0.004315    0.014256   -0.027883 |
  Two-photon absorption cross-section [a.u.]:                         0.103837
  Two-photon absorption matrix [a.u.]:
                                       |   -0.123759   -0.002097    0.008007 |
                                       |   -0.002097    0.095080    0.008802 |
                                       |    0.008007    0.008802   -0.016730 |

  Dip. moment [a.u.]:                  [   0.002120,    0.008216,   -0.003745]
  Total dipole [Debye]:                                               0.023575
  <r^2> [a.u.]:                        [ 180.878825,   40.607886,   11.020756]
  Total <r^2> [a.u.]:                                               232.507467

  V1^2 = 0.9587, V2^2 = 0.0413

  Important amplitudes:
      occ i     occ j     vir a      vir b          v   
    -----------------------------------------------------
     8 (A) A             10 (A) A                -0.6891
     8 (A) A             24 (A) A                -0.0507
     8 (A) A             18 (A) A                 0.0312
     4 (A) A              9 (A) A                -0.0238
     8 (A) A   8 (A) B    9 (A) A   12 (A) B      0.0219
     8 (A) A   8 (A) B   10 (A) A   17 (A) B     -0.0173
     8 (A) A             15 (A) A                -0.0169
     5 (A) A   8 (A) B   11 (A) A   10 (A) B     -0.0165
     7 (A) A   8 (A) B   13 (A) A   10 (A) B      0.0141
     4 (A) A   8 (A) B   12 (A) A   10 (A) B      0.0111
     6 (A) A   8 (A) A   10 (A) A   15 (A) A      0.0110
     7 (A) A   8 (A) B   22 (A) A   10 (A) B     -0.0108
     6 (A) A   8 (A) B   15 (A) A   10 (A) B     -0.0108
     4 (A) A   8 (A) A   10 (A) A   12 (A) A     -0.0106
     7 (A) A   8 (A) A   10 (A) A   22 (A) A      0.0099
     7 (A) A   8 (A) A   10 (A) A   13 (A) A     -0.0097
     5 (A) A   8 (A) B   21 (A) A   10 (A) B     -0.0094
     5 (A) A   8 (A) A   10 (A) A   11 (A) A      0.0094
     6 (A) A   8 (A) A   10 (A) A   18 (A) A      0.0088
     6 (A) A   8 (A) B   10 (A) A   10 (A) B      0.0087
     7 (A) A   8 (A) A   12 (A) A   16 (A) A     -0.0082
     5 (A) A   8 (A) A   10 (A) A   21 (A) A      0.0080
     3 (A) A   4 (A) B   10 (A) A    9 (A) B      0.0079
     4 (A) A   8 (A) B   19 (A) A   10 (A) B     -0.0075
     8 (A) A   8 (A) B    9 (A) A   23 (A) B      0.0075
     8 (A) A   8 (A) B   10 (A) A   28 (A) B     -0.0072
     3 (A) A   8 (A) B   10 (A) A   10 (A) B     -0.0072
     5 (A) A   8 (A) B   10 (A) A   11 (A) B     -0.0071
     3 (A) A   8 (A) A   10 (A) A   24 (A) A      0.0071
     7 (A) A   8 (A) B   16 (A) A   12 (A) B      0.0070
     3 (A) A   8 (A) B   10 (A) A   18 (A) B      0.0069
     8 (A) A   8 (A) B    9 (A) A   19 (A) B     -0.0068
     6 (A) A   8 (A) B   18 (A) A   10 (A) B     -0.0067
     3 (A) A   6 (A) B   10 (A) A   28 (A) B     -0.0062
     7 (A) A   8 (A) B   12 (A) A   11 (A) B     -0.0057
     6 (A) A             28 (A) A                 0.0056
     3 (A) A   5 (A) B   10 (A) A   25 (A) B      0.0056
     5 (A) A   8 (A) A   10 (A) A   16 (A) A     -0.0056
     3 (A) A   8 (A) A   10 (A) A   18 (A) A      0.0056
     4 (A) A   8 (A) A   10 (A) A   23 (A) A     -0.0055
    -----------------------------------------------------

  Density matrix analysis:
  ------------------------
  NOs
    Occupation of frontier NOs:
       0.9814   0.9850
    Number of electrons: 16.000000
    Number of unpaired electrons: n_u =  2.28521, n_u,nl =  2.02440
    NO participation ratio (PR_NO):  2.691798
  
  
  Mulliken Population Analysis
  Atom      Charge (e)              h+              e-           Del q
  --------------------------------------------------------------------
   1 H       -0.162738        0.053890       -0.267542       -0.213653
   2 C        0.328067        0.538693       -0.110145        0.428548
   3 H       -0.165707        0.053756       -0.269842       -0.216087
   4 C        0.327016        0.537794       -0.109281        0.428513
   5 H       -0.163161        0.053945       -0.267236       -0.213292
   6 H       -0.163477        0.053890       -0.267920       -0.214030
  --------------------------------------------------------------------
  Sum:        0.000000        1.291967       -1.291967       -0.000000
  
  Multipole moment analysis of the density matrix
    Molecular charge:                      0.000000
    Number of electrons:                   16.000000
      Center of electronic charge [Ang]: [ -1.560646,  -0.065874,   0.002727]
    Total nuclear charge:                  16.000000
      Center of nuclear charge [Ang]:    [ -1.560576,  -0.065602,   0.002603]
    Dipole moment [D]:                     0.023575
      Cartesian components [D]:          [  0.005390,   0.020883,  -0.009520]
    RMS size of the density [Ang]:         1.276453
      Cartesian components [Ang]:        [  0.854450,   0.840459,   0.439176]
  
  Exciton analysis of the difference density matrix
    <r_h> [Ang]:                  [ -1.560193,  -0.065887,   0.001623]
    <r_e> [Ang]:                  [ -1.561390,  -0.069125,   0.004445]
    |<r_e - r_h>| [Ang]:            0.004459
    Hole size [Ang]:                1.410249
      Cartesian components [Ang]: [  0.834025,   0.819734,   0.788189]
    Electron size [Ang]:            2.076135
      Cartesian components [Ang]: [  1.373572,   1.376996,   0.726305]

  Transition density matrix analysis:
  -----------------------------------
  
  CT numbers (Mulliken)
    omega =     0.9259
    <Phe> =    -0.0109
  
  Exciton analysis of the transition density matrix
    Trans. dipole moment [D]:             0.425831
      Cartesian components [D]:         [ -0.024572,  -0.019405,   0.424678]
    <r_h> [Ang]:                        [ -1.559790,  -0.065710,   0.000787]
    <r_e> [Ang]:                        [ -1.561578,  -0.070366,   0.005178]
    |<r_e - r_h>| [Ang]:                  0.006645
    Hole size [Ang]:                      1.212956
      Cartesian components [Ang]:       [  0.636493,   0.623381,   0.823125]
    Electron size [Ang]:                  2.296581
      Cartesian components [Ang]:       [  1.518284,   1.524570,   0.802982]
    RMS electron-hole separation [Ang]:   2.587320
      Cartesian components [Ang]:       [  1.638809,   1.640117,   1.148281]
    Covariance(r_h, r_e) [Ang^2]:         0.025681
    Correlation coefficient:              0.009219
    Center-of-mass size [Ang]:            1.303544
      Cartesian components [Ang]:       [  0.826881,   0.827024,   0.575782]

  Decomposition into state-averaged NTOs
    H- 0 -> L+ 1: -0.6798 ( 92.4%)
                   omega =  92.6%
  ----------------------------------------------------------------------------


  Excited state 4 (singlet, A)                                     [converged]
  ----------------------------------------------------------------------------
  Term symbol:  5 (1) A                                     R^2 =  1.45338e-13

  Total energy:                                            -77.9582092349 a.u.
  Excitation energy:                                               9.834381 eV

  Osc. strength:                                                      0.000125
  Trans. dip. moment [a.u.]:           [  -0.016263,    0.015920,   -0.000571]
  <i|r^2|0> [a.u.]:                    [  -0.112283,   -0.014705,    0.035051]
  Two-photon absorption cross-section (SoS) [a.u.]:                 149.746529
  Two-photon absorption matrix (SoS) [a.u.]:
                                       |   -0.253209   -0.312458    3.022921 |
                                       |   -0.312458   -0.372882    3.030585 |
                                       |    3.022921    3.030585    0.627076 |
  Two-photon absorption cross-section [a.u.]:                        91.992264
  Two-photon absorption matrix [a.u.]:
                                       |   -0.181499   -0.243848    2.366221 |
                                       |   -0.243848   -0.308416    2.378184 |
                                       |    2.366221    2.378184    0.491484 |

  Dip. moment [a.u.]:                  [  -0.009252,   -0.005163,   -0.005244]
  Total dipole [Debye]:                                               0.030048
  <r^2> [a.u.]:                        [ 181.274939,   40.505944,   10.757819]
  Total <r^2> [a.u.]:                                               232.538702

  V1^2 = 0.9635, V2^2 = 0.0365

  Important amplitudes:
      occ i     occ j     vir a      vir b          v   
    -----------------------------------------------------
     8 (A) A             11 (A) A                 0.6697
     7 (A) A              9 (A) A                 0.1502
     8 (A) A             21 (A) A                 0.0781
     8 (A) A             16 (A) A                -0.0645
     8 (A) A   8 (A) B    9 (A) A   13 (A) B      0.0167
     5 (A) A   8 (A) B   11 (A) A   11 (A) B      0.0155
     8 (A) A   8 (A) B   11 (A) A   17 (A) B      0.0140
     7 (A) A             20 (A) A                 0.0137
     7 (A) A   8 (A) B   13 (A) A   11 (A) B     -0.0127
     8 (A) A             12 (A) A                 0.0124
     5 (A) A   8 (A) A   11 (A) A   21 (A) A     -0.0110
     4 (A) A   8 (A) B   12 (A) A   11 (A) B     -0.0110
     8 (A) A   8 (A) B    9 (A) A   22 (A) B     -0.0107
     7 (A) A   8 (A) A   11 (A) A   22 (A) A     -0.0096
     6 (A) A   8 (A) B   15 (A) A   11 (A) B      0.0090
     6 (A) A   8 (A) B   10 (A) A   11 (A) B     -0.0090
     7 (A) A   8 (A) B   22 (A) A   11 (A) B      0.0089
     3 (A) A   4 (A) B   11 (A) A    9 (A) B     -0.0083
     3 (A) A   8 (A) B   11 (A) A   18 (A) B     -0.0081
     6 (A) A   8 (A) A   11 (A) A   15 (A) A     -0.0080
     6 (A) A              9 (A) A                -0.0078
     7 (A) A   8 (A) A   13 (A) A   16 (A) A     -0.0078
     7 (A) A   8 (A) A   11 (A) A   13 (A) A      0.0077
     5 (A) A   8 (A) B   21 (A) A   11 (A) B      0.0071
     4 (A) A   8 (A) B   19 (A) A   11 (A) B      0.0070
     5 (A) A   8 (A) B    9 (A) A    9 (A) B      0.0068
     4 (A) A   8 (A) A   11 (A) A   12 (A) A      0.0062
     6 (A) A   8 (A) A   11 (A) A   18 (A) A     -0.0062
     3 (A) A   6 (A) B   11 (A) A   28 (A) B      0.0060
     6 (A) A   8 (A) B   18 (A) A   11 (A) B      0.0060
     7 (A) A   8 (A) B   16 (A) A   13 (A) B      0.0057
     3 (A) A   8 (A) A   11 (A) A   18 (A) A     -0.0056
     5 (A) A   8 (A) B   10 (A) A   10 (A) B      0.0056
     3 (A) A   8 (A) B   11 (A) A   30 (A) B     -0.0055
     3 (A) A   5 (A) B   11 (A) A   25 (A) B     -0.0055
     6 (A) A   8 (A) B   11 (A) A   10 (A) B     -0.0054
     7 (A) A   8 (A) B   12 (A) A   10 (A) B      0.0054
     8 (A) A   8 (A) B   20 (A) A   22 (A) B     -0.0053
     3 (A) A   8 (A) A   11 (A) A   24 (A) A     -0.0053
     5 (A) A   8 (A) A   11 (A) A   16 (A) A      0.0048
    -----------------------------------------------------

  Density matrix analysis:
  ------------------------
  NOs
    Occupation of frontier NOs:
       0.9408   1.0278
    Number of electrons: 16.000000
    Number of unpaired electrons: n_u =  2.31910, n_u,nl =  2.04907
    NO participation ratio (PR_NO):  2.914132
  
  
  Mulliken Population Analysis
  Atom      Charge (e)              h+              e-           Del q
  --------------------------------------------------------------------
   1 H       -0.147128        0.045751       -0.243794       -0.198044
   2 C        0.275258        0.497110       -0.121371        0.375740
   3 H       -0.128119        0.046954       -0.225452       -0.178498
   4 C        0.273236        0.496907       -0.122173        0.374734
   5 H       -0.129703        0.047074       -0.226907       -0.179833
   6 H       -0.143545        0.045819       -0.239918       -0.194098
  --------------------------------------------------------------------
  Sum:        0.000000        1.179615       -1.179615       -0.000000
  
  Multipole moment analysis of the density matrix
    Molecular charge:                      0.000000
    Number of electrons:                   16.000000
      Center of electronic charge [Ang]: [ -1.560270,  -0.065432,   0.002777]
    Total nuclear charge:                  16.000000
      Center of nuclear charge [Ang]:    [ -1.560576,  -0.065602,   0.002603]
    Dipole moment [D]:                     0.030048
      Cartesian components [D]:          [ -0.023516,  -0.013123,  -0.013329]
    RMS size of the density [Ang]:         1.277149
      Cartesian components [Ang]:        [  0.859181,   0.839431,   0.433905]
  
  Exciton analysis of the difference density matrix
    <r_h> [Ang]:                  [ -1.560176,  -0.065400,   0.001509]
    <r_e> [Ang]:                  [ -1.556385,  -0.062945,   0.005273]
    |<r_e - r_h>| [Ang]:            0.005879
    Hole size [Ang]:                1.394825
      Cartesian components [Ang]: [  0.818336,   0.806736,   0.790594]
    Electron size [Ang]:            2.124216
      Cartesian components [Ang]: [  1.443663,   1.402914,   0.678205]

  Transition density matrix analysis:
  -----------------------------------
  
  CT numbers (Mulliken)
    omega =     0.9298
    <Phe> =    -0.0135
  
  Exciton analysis of the transition density matrix
    Trans. dipole moment [D]:             0.028932
      Cartesian components [D]:         [ -0.020669,   0.020232,  -0.000725]
    <r_h> [Ang]:                        [ -1.560378,  -0.065570,   0.000904]
    <r_e> [Ang]:                        [ -1.555733,  -0.062304,   0.005814]
    |<r_e - r_h>| [Ang]:                  0.007506
    Hole size [Ang]:                      1.227939
      Cartesian components [Ang]:       [  0.657811,   0.650172,   0.807709]
    Electron size [Ang]:                  2.262326
      Cartesian components [Ang]:       [  1.538248,   1.494266,   0.720472]
    RMS electron-hole separation [Ang]:   2.563411
      Cartesian components [Ang]:       [  1.664436,   1.621804,   1.081887]
    Covariance(r_h, r_e) [Ang^2]:         0.027465
    Correlation coefficient:              0.009887
    Center-of-mass size [Ang]:            1.292370
      Cartesian components [Ang]:       [  0.840761,   0.818668,   0.541409]

  Decomposition into state-averaged NTOs
    H- 0 -> L+ 2: -0.6650 ( 88.4%)
    H- 1 -> L+ 0: -0.1481 (  4.4%)
                   omega =  93.0%
  ----------------------------------------------------------------------------


  Excited state 5 (singlet, A)                                     [converged]
  ----------------------------------------------------------------------------
  Term symbol:  6 (1) A                                     R^2 =  3.96535e-13

  Total energy:                                            -77.9443028078 a.u.
  Excitation energy:                                              10.212794 eV

  Osc. strength:                                                      0.000003
  Trans. dip. moment [a.u.]:           [   0.001860,    0.002603,    0.000759]
  <i|r^2|0> [a.u.]:                    [   0.096251,   -0.098864,    0.012596]
  Two-photon absorption cross-section (SoS) [a.u.]:                 178.586997
  Two-photon absorption matrix (SoS) [a.u.]:
                                       |    0.288744    0.047191   -3.346880 |
                                       |    0.047191   -0.398534    3.315996 |
                                       |   -3.346880    3.315996    0.064968 |
  Two-photon absorption cross-section [a.u.]:                        80.052081
  Two-photon absorption matrix [a.u.]:
[...]
    16   -1.497824167840e-03
    17   -1.450135693361e-03
    18   -6.541605358314e-05
    19   -3.321752648425e-03
    20    1.069067894529e-02
    21    9.344407196533e-01
    22   -2.619673538548e-04
    23    1.400006018286e-02
    24    6.571460345011e-04
    25    7.029962721089e-02
    26   -5.230818657187e-02
    27   -1.399811592428e+00
    28    9.780404121524e-02
    29   -9.283898879946e-02
    30   -3.298696729856e-04
    31    3.845566855041e-01
    32   -3.631920913828e-01
    33   -1.111169595298e-03
    34    1.563591429287e-02
    35   -1.566285132994e-03
    36   -1.766650668975e-03
    37   -5.283056562858e-05
    38   -3.141828452490e-03
    39    9.945533209125e-03
    40    9.332931229753e-01
    41    2.329195156679e-04
    42   -1.394544546782e-02
    43   -8.152156481079e-04
    44    1.002205719789e-02
    45    9.396090378835e-01
    46    1.411962768982e-02
    47    3.711323121231e-04
    48    7.313683068365e-04
Sym=X
Ene= 0.232994
Spin=Alpha
Occup=0
     1    2.627344031162e-02
     2    1.236832164480e+00
     3   -1.436505973893e-02
     4   -3.844934432742e-03
     5   -8.326394529757e-04
     6    3.301772493131e-03
     7   -3.712867657741e-03
     8   -5.199150198495e-02
     9   -1.550183534099e-01
    10   -1.584593423630e-01
    11   -1.478954665425e-02
    12   -5.570695483951e-01
    13   -5.579849394296e-01
    14   -5.171694288480e-02
    15    5.522369879798e-04
    16   -1.311246136006e-04
    17   -2.449164229748e-04
    18   -2.198158729009e-04
    19   -3.635930019835e-04
    20   -2.491924027158e-02
    21   -1.157638896151e+00
    22   -2.476409842337e-03
    23   -1.354824160424e-02
    24   -7.799548645762e-04
    25   -3.087397996259e-03
    26    3.512081963233e-03
    27    4.661778495016e-02
    28   -1.541947841906e-01
    29   -1.587629282561e-01
    30   -1.754887397353e-02
    31   -5.490920739474e-01
    32   -5.544655785989e-01
    33   -6.266597082341e-02
    34   -5.664679887053e-04
    35    1.865505233481e-04
    36    2.737621754469e-05
    37    3.921519101554e-04
    38    3.842959802022e-04
    39    2.496290423283e-02
    40    1.154414204078e+00
    41   -2.430387844333e-03
    42   -1.356146119225e-02
    43   -9.449598316679e-04
    44   -2.624754679641e-02
    45   -1.226750103383e+00
    46   -1.430171121691e-02
    47   -3.792465690723e-03
    48   -9.724492518646e-04
Sym=X
Ene= 0.239427
Spin=Alpha
Occup=0
     1   -1.584007383871e-02
     2   -1.047322539619e+00
     3    1.647543845848e-02
     4    9.106134512058e-03
     5    1.374895446862e-03
     6   -8.651150914844e-02
     7    7.971392642897e-02
     8    1.594228614410e+00
     9    5.264431997810e-02
    10   -6.122948112056e-02
    11    7.189501085571e-04
    12    2.091028717481e-01
    13   -2.383984565094e-01
    14    3.150155914789e-03
    15   -2.260996195614e-02
    16    2.603271671257e-03
    17    2.670225614054e-03
    18   -5.528089173453e-04
    19    1.288081214745e-02
    20   -1.699429152612e-02
    21   -1.130066166079e+00
    22   -8.561978095285e-03
    23   -1.786749096533e-02
    24   -1.258408923717e-03
    25    8.638547436128e-02
    26   -7.925122294564e-02
    27   -1.595272242917e+00
    28    5.284050758131e-02
    29   -6.164910367304e-02
    30   -1.990724571728e-03
    31    2.092934234659e-01
    32   -2.424146258459e-01
    33   -8.406875445694e-03
    34    2.261058584776e-02
    35   -2.457100791184e-03
    36   -3.042094974246e-03
    37    7.332431663665e-04
    38   -1.278471264531e-02
    39    1.685228552856e-02
    40    1.134180730595e+00
    41   -8.629923668651e-03
    42   -1.794053120892e-02
    43   -1.501427526648e-03
    44    1.558659166269e-02
    45    1.044091603302e+00
    46    1.638064503241e-02
    47    9.259936021518e-03
    48    1.253271766317e-03
Sym=X
Ene= 0.303268
Spin=Alpha
Occup=0
     1   -2.070869773601e-02
     2    1.691767947532e+00
     3   -2.291694419246e-02
     4    2.903619705914e-04
     5   -1.045591016329e-03
     6   -2.055004295189e-04
     7    1.774983037348e-04
     8    3.000891295104e-03
     9   -1.339777648227e-01
    10   -1.396657788455e-01
    11   -1.330273627089e-02
    12   -1.144533659804e+00
    13   -1.194626234915e+00
    14   -1.179734789930e-01
    15   -1.987468764555e-04
    16   -1.833817116546e-03
    17    1.460525394953e-03
    18   -3.268783126689e-02
    19   -1.538377921306e-03
    20    2.003959786357e-02
    21   -1.691420529687e+00
    22    1.429697474552e-03
    23   -2.292087458051e-02
    24   -1.111825482670e-03
    25    7.501680080108e-05
    26    2.766630315643e-04
    27   -8.372707741632e-03
    28    1.346343918455e-01
    29    1.402095678882e-01
    30    1.502405182266e-02
    31    1.139890977684e+00
    32    1.197569759236e+00
    33    1.235340625875e-01
    34    7.639753843380e-05
    35   -1.492687911377e-03
    36    1.964194220404e-03
    37   -3.250277436160e-02
    38   -1.697115501634e-03
    39    1.956600594466e-02
    40   -1.691955398881e+00
    41   -1.617296092510e-03
    42    2.283249462920e-02
    43    1.351417713761e-03
    44   -2.009116943804e-02
    45    1.698272198668e+00
    46    2.304272119072e-02
    47   -3.603160650078e-04
    48    1.036439751657e-03
Sym=X
Ene= 0.462078
Spin=Alpha
Occup=0
     1   -1.154589980442e-01
     2   -7.142386394339e-01
     3   -1.568153156100e-02
     4   -1.031832641068e-02
     5   -1.174229762576e-03
     6    6.080498674997e-02
     7    1.732331182110e-02
     8   -3.591638638516e+00
     9    1.029768541920e-01
    10   -9.909270701115e-02
    11    7.048059040984e-04
    12    2.426052080783e+00
    13   -2.304134011999e+00
    14   -1.716647658610e-02
    15    5.368176860398e-02
    16   -3.042565781005e-03
    17   -4.182806017703e-03
    18   -7.816258270098e-04
    19    1.797413025240e-02
    20   -1.208327950551e-01
    21   -7.039017902481e-01
    22    8.725965079860e-03
    23    1.637863538827e-02
    24    1.284453135880e-03
    25   -6.095640334550e-02
    26   -1.624317547516e-02
    27    3.591814294135e+00
    28    1.051310839287e-01
    29   -1.004507237351e-01
    30   -8.542105211556e-04
    31    2.423437082284e+00
    32   -2.298525478804e+00
    33   -2.413777361418e-02
    34   -5.270258254961e-02
    35    3.562288927384e-03
    36    4.442817268094e-03
    37    6.508018426611e-04
    38   -1.903649149701e-02
    39    1.152312753262e-01
    40    7.092706069929e-01
    41    8.587015641500e-03
    42    1.624628765350e-02
    43    1.392136441649e-03
    44    1.108913747126e-01
    45    7.183210921363e-01
    46   -1.545628703714e-02
    47   -9.943797113909e-03
    48   -1.391062847009e-03
Sym=X
Ene= 0.577516
Spin=Alpha
Occup=0
     1    2.468428343051e-01
     2    4.106638104242e-02
     3   -1.848175385385e-02
     4    2.572463679197e-02
     5    4.738455850582e-04
     6   -4.466786781799e-03
     7   -1.572066605664e-01
     8   -4.659062290192e-01
     9    2.988042414176e-01
    10   -2.879088188903e-01
    11   -2.857417748249e-03
    12   -7.200704049680e-01
    13    6.974942590360e-01
    14    4.271215973083e-03
    15   -5.864858778855e-03
    16    3.671281832583e-03
    17    3.615626234705e-03
    18   -4.346784365433e-03
    19    6.023677937025e-02
    20    2.553074421537e-01
    21    3.033793364231e-02
    22   -2.637216093629e-02
    23    1.642357590702e-02
    24   -3.857236164025e-04
    25   -5.623759486078e-03
    26   -1.579255226776e-01
    27   -4.104346613533e-01
    28   -2.974420592668e-01
    29    2.852630605301e-01
    30    2.617397895771e-03
    31    7.620546953752e-01
    32   -7.327016558983e-01
    33   -6.046285438046e-03
    34   -5.862606488306e-03
    35    3.727252567826e-03
    36    3.635883837712e-03
    37   -3.718009087381e-03
    38    6.019550202241e-02
    39    2.506021562810e-01
    40    4.992267534968e-02
    41    2.721854739634e-02
    42   -1.703481550323e-02
    43    2.756657257798e-04
    44    2.491221008306e-01
    45    5.580323652994e-02
    46    1.842492323854e-02
    47   -2.587146574383e-02
    48   -6.643929946374e-04
Sym=X
Ene= 0.615139
Spin=Alpha
Occup=0
     1   -5.225170163640e-01
     2    2.001160166841e-01
     3   -6.133723721609e-02
     4    3.761228416654e-02
     5   -1.070375625426e-03
     6   -5.943359133362e-04
     7    3.222122296104e-04
     8   -1.685835946624e-02
     9   -4.052784144176e-02
    10   -3.874508309689e-02
    11   -4.457672489910e-03
    12    3.052491488183e-01
    13    2.809271726356e-01
    14    2.654893348001e-02
    15    1.807117239917e-03
    16   -8.096022237088e-03
    17    7.009469131992e-03
    18   -1.479627861003e-01
    19   -6.442638314469e-03
    20    5.077940633246e-01
    21   -2.032750299740e-01
    22    4.174509325107e-02
    23   -5.843408859457e-02
    24   -1.203737464051e-03
    25    4.166157556848e-04
    26   -1.020888570754e-03
    27    2.401920494353e-02
    28   -3.997799725769e-02
    29   -4.032895791819e-02
    30   -3.720410572677e-03
    31    3.027358801025e-01
    32    2.899924058546e-01
    33    3.394706716251e-02
    34   -1.449030853313e-03
    35    7.084772577524e-03
    36   -8.494124091259e-03
    37    1.491287413539e-01
    38    6.317651042078e-03
    39   -5.149539798779e-01
    40    2.071151333819e-01
    41    4.091802527813e-02
    42   -5.859587924096e-02
    43   -1.461429432338e-03
    44    5.217278299051e-01
    45   -2.044616595944e-01
    46   -6.147468652253e-02
    47    3.761131255121e-02
    48   -4.934136599127e-04
Sym=X
Ene= 0.689157
Spin=Alpha
Occup=0
     1    4.596107689147e-04
     2   -1.786288517480e-03
     3    1.598885429002e-03
     4    9.853641724852e-04
     5   -2.099291326207e-02
     6    6.143627185238e-05
     7    3.078976750276e-03
     8   -3.303041265099e-03
     9    2.934263767071e-02
    10    3.671312948422e-02
    11   -6.705953107832e-01
    12   -2.292442355711e-02
    13   -3.608516093071e-02
    14    6.138843205757e-01
    15   -2.053118993835e-03
    16    8.272266045215e-02
    17   -7.827172704017e-02
    18   -8.789829532926e-03
    19   -1.100543434130e-03
    20    1.105294390982e-03
    21   -4.599494443259e-03
    22    7.184259461192e-04
    23    2.630823663887e-04
    24   -2.110175230424e-02
    25    1.710141217557e-04
    26    1.981652768219e-03
    27    2.895485200590e-04
    28    3.316771900126e-02
    29    3.890325258157e-02
    30   -6.701264894630e-01
    31   -2.765507626388e-02
    32   -3.938395405127e-02
    33    6.131543188498e-01
    34    4.376923844729e-04
    35   -8.269241735768e-02
    36    7.860138992972e-02
    37    7.743537531984e-03
    38    1.651270557501e-03
    39    2.954297234512e-03
    40   -1.183538879164e-03
    41    1.497828373419e-03
    42    1.873461516838e-03
    43   -2.101357802500e-02
    44    2.376987698171e-03
    45    1.644765209270e-03
    46    6.128750231245e-04
    47    1.147277122191e-03
    48   -2.107278362060e-02
Sym=X
Ene= 0.708994
Spin=Alpha
Occup=0
     1   -4.751267728786e-01
     2    1.579205224332e-01
     3   -8.066562750998e-02
     4   -4.432306546668e-02
     5   -6.037651656522e-03
     6   -4.773682441421e-02
     7   -3.204120857621e-01
     8    5.088613716640e-01
     9    2.039846731998e-01
    10   -1.919161014522e-01
    11   -4.380453122224e-03
    12   -9.731900408154e-02
    13    7.864670057400e-02
    14    5.892502040782e-03
    15    1.941730874564e-01
    16   -1.940700135353e-02
    17   -2.232962590964e-02
    18    3.171292187162e-03
    19   -7.752312345000e-02
    20   -4.777185989450e-01
    21    1.477489131129e-01
    22    4.095934491015e-02
    23    8.165670704531e-02
    24    6.310078475477e-03
    25   -4.682083985445e-02
    26   -3.209789197874e-01
    27    4.651144578806e-01
    28   -2.039301368518e-01
    29    1.918839841773e-01
    30   -1.412868473578e-03
    31    6.591002469486e-02
    32   -5.261005939122e-02
    33    1.169049291358e-03
    34    1.938854755294e-01
    35   -2.029802441086e-02
    36   -2.347831717557e-02
    37    2.395655186861e-03
    38   -7.566297789959e-02
    39   -4.726675527998e-01
    40    1.358190667760e-01
    41   -4.071315490782e-02
    42   -8.106307954082e-02
    43   -6.935178601656e-03
    44   -4.751952005339e-01
    45    1.471023875658e-01
    46    8.065143209125e-02
    47    4.402474364838e-02
    48    6.202019164713e-03
Sym=X
Ene= 0.784632
Spin=Alpha
Occup=0
     1    5.270964935854e-01
     2   -4.697581893694e-01
     3    1.105027729222e-01
     4    2.612177490753e-02
     5    6.403999559575e-03
     6    9.104291457224e-02
     7   -2.149722361227e-01
     8   -6.429479278929e-01
     9    1.097870755488e-01
    10   -1.068788425114e-01
    11    3.732801963624e-03
    12    3.182264904553e-01
    13   -2.897600423961e-01
    14   -1.220125826933e-02
    15   -2.069275030973e-01
    16    1.715611772819e-02
    17    1.884085677649e-02
    18   -1.099587552790e-03
    19    9.353780206518e-03
    20    5.363427144265e-01
    21   -4.657912815374e-01
    22   -2.028966634489e-02
    23   -1.123309760811e-01
    24   -6.824362759676e-03
    25   -9.133251451352e-02
    26    2.134781139484e-01
    27    6.545554929057e-01
    28    1.120343257073e-01
    29   -1.056509949667e-01
    30   -6.662681987525e-03
    31    3.086775810947e-01
    32   -2.876306384355e-01
    33    8.263359472049e-03
    34    2.074447568670e-01
    35   -1.769579572193e-02
    36   -2.255793221364e-02
    37    1.733284026486e-03
    38   -8.681878348668e-03
    39   -5.414206456305e-01
    40    4.660344172714e-01
    41   -2.038246998867e-02
    42   -1.128003503138e-01
    43   -7.825867143123e-03
    44   -5.308367126530e-01
    45    4.646135274568e-01
    46    1.099706051284e-01
    47    2.677109457766e-02
    48    6.797372257824e-03
Sym=X
Ene= 0.807970
Spin=Alpha
Occup=0
     1   -3.393122937536e-03
     2    8.113061555939e-03
     3   -3.359705459694e-03
     4   -1.976164089643e-03
     5    3.372503453030e-02
     6   -5.919958526784e-04
     7    3.980312924210e-04
     8    1.603412237338e-03
     9   -3.476491951049e-02
    10   -3.875552743981e-02
    11    7.633979545792e-01
    12    4.677189066593e-02
    13    6.070426299349e-02
    14   -1.127587751199e+00
    15    1.009133931792e-03
    16    6.505620923401e-02
    17   -6.197279632957e-02
    18   -7.557244677192e-03
    19   -6.362044479964e-04
    20   -3.270611843352e-03
    21    4.096534867665e-04
    22   -2.149674791348e-03
    23   -9.116548545654e-04
    24    3.462295855475e-02
    25    6.746979580043e-04
    26   -2.286347919897e-03
    27   -6.368106437506e-04
    28    3.574482932176e-02
    29    4.802232876387e-02
    30   -7.630690044832e-01
    31   -5.706841434871e-02
    32   -6.795467240958e-02
    33    1.126761620802e+00
    34   -2.825070522138e-03
    35    6.538736110153e-02
    36   -6.174479511725e-02
    37   -5.491635744259e-03
    38   -1.354134078907e-03
    39    3.325010721756e-03
    40    1.793976544955e-04
    41    1.192999802763e-03
    42    2.516602883202e-03
    43   -3.424700030224e-02
    44    3.358691448610e-03
    45   -7.616685364767e-03
    46    2.378628758399e-04
    47    1.726511593775e-03
    48   -3.382532594027e-02
Sym=X
Ene= 0.862296
Spin=Alpha
Occup=0
     1    1.296488280954e-02
     2   -1.095613634621e+00
     3    1.482670564893e-01
     4    5.639833484294e-02
     5    1.021348123821e-02
     6    8.727170499783e-05
     7   -6.743488472869e-04
     8    1.794443608575e-03
     9   -4.070203079882e-01
    10   -4.285821614477e-01
    11   -3.886475619309e-02
    12    9.481046575276e-01
    13    9.986885839720e-01
    14    9.094216932102e-02
    15   -2.781253050641e-04
    16    1.182833828003e-02
    17   -1.247170451418e-02
    18    2.354510698748e-01
    19    9.535356428008e-03
    20   -1.379514732790e-02
    21    1.103232246067e+00
    22    5.029435087449e-02
    23    1.514728650086e-01
    24    1.013623065374e-02
    25   -2.953794975896e-05
    26    1.331232261188e-03
    27   -1.738106668208e-03
    28   -4.069729655072e-01
    29   -4.295210926551e-01
    30   -4.748814108254e-02
    31    9.472405857334e-01
    32    1.002466131122e+00
    33    1.103020454115e-01
    34    1.134451021821e-04
    35   -1.171120915860e-02
    36    1.278802294184e-02
    37   -2.365956806914e-01
    38   -1.029718385307e-02
    39    1.252425670190e-02
    40   -1.103347132924e+00
    41    4.891014427680e-02
    42    1.518411367919e-01
    43    1.115760022273e-02
    44   -1.148497832179e-02
    45    1.095393730341e+00
    46    1.487700625376e-01
    47    5.565455295217e-02
    48    1.039680105968e-02
Sym=X
Ene= 0.936014
Spin=Alpha
Occup=0
     1   -1.130957638955e-01
     2    1.281621122978e+00
     3   -1.814459131434e-01
     4    5.287174918647e-03
     5   -7.896489430505e-03
     6    8.168913451493e-05
     7   -1.482861388213e-03
     8   -1.695000507033e-03
     9    4.736899979507e-01
    10    4.993364032172e-01
    11    4.885999651855e-02
    12   -1.468431850495e+00
    13   -1.541202895216e+00
    14   -1.514217425912e-01
    15   -1.316410878374e-03
    16   -5.582143121856e-03
    17    5.616806547977e-03
    18   -1.206872526823e-01
    19   -2.538767706159e-03
    20    1.172206505216e-01
    21   -1.287370481557e+00
    22    1.169218343643e-02
    23   -1.830404444674e-01
    24   -9.176554971097e-03
    25    7.629047589939e-06
    26    3.158075996873e-05
    27   -7.475528469003e-04
    28   -4.742830339816e-01
    29   -4.973557097838e-01
    30   -5.160108488011e-02
    31    1.469573049226e+00
    32    1.532440984142e+00
    33    1.590059244036e-01
    34   -4.249352937221e-04
    35   -5.614816474374e-03
    36    8.156719443144e-03
    37   -1.204224802632e-01
    38   -4.764522456235e-03
    39    1.163829253964e-01
    40   -1.280722065941e+00
    41   -1.343938423304e-02
    42    1.817841238837e-01
    43    1.060982865415e-02
    44   -1.151302941417e-01
    45    1.286089298909e+00
    46    1.819382518915e-01
    47   -5.461322162122e-03
    48    8.049020815892e-03
Sym=X
Ene= 0.972494
Spin=Alpha
Occup=0
     1   -6.457720356971e-02
     2    9.252305348097e-01
     3   -9.083781612646e-02
     4   -9.847351611958e-02
     5   -1.036391249089e-02
     6    2.528312708542e-02
     7    2.524149900934e-01
     8    5.194970062169e-01
     9    4.808084369147e-01
    10   -4.545142351537e-01
    11   -1.260676640043e-03
    12   -1.494292189142e+00
    13    1.408353843367e+00
    14    4.879060275450e-03
    15   -5.357049595836e-02
    16   -1.285445198377e-02
    17   -8.980986718573e-03
    18    1.370886723821e-02
    19   -3.014880409579e-01
    20   -6.266166401708e-02
    21    9.103030944380e-01
    22    9.534025839724e-02
    23    9.317187905004e-02
    24    8.890094652545e-03
    25   -2.513390823623e-02
    26   -2.386227194488e-01
    27   -5.423851533858e-01
    28    4.779527786471e-01
    29   -4.552312620795e-01
    30   -5.333165210738e-03
    31   -1.484422799178e+00
    32    1.416855954099e+00
    33    1.659744038717e-02
    34    5.263443253741e-02
    35    1.247158659702e-02
    36    9.176422729094e-03
    37   -1.431466694674e-02
    38    2.991398376498e-01
    39    6.242406721921e-02
    40   -9.105740904410e-01
    41    9.427843860330e-02
    42    9.310451399765e-02
    43    9.854905439069e-03
    44    6.597856737328e-02
    45   -9.111302038212e-01
    46   -8.900462669888e-02
    47   -9.792497608425e-02
    48   -9.690576830204e-03
[5D]

======= END OF MOLDEN-FORMATTED INPUT FILE =======


        *************************************************************
        *                                                           *
        *  Thank you very much for using Q-Chem.  Have a nice day.  *
        *                                                           *
        *************************************************************


