                  Welcome to Q-Chem
     A Quantum Leap Into The Future Of Chemistry


 Q-Chem 5.4 (devel), Q-Chem, Inc., Pleasanton, CA (2021)

 E. Epifanovsky,  A. T. B. Gilbert,  Xintian Feng,  Joonho Lee,  Yuezhi Mao,  
 N. Mardirossian,  P. Pokhilko,  A. White,  M. Wormit,  M. P. Coons,  
 A. L. Dempwolff,  Zhengting Gan,  D. Hait,  P. R. Horn,  L. D. Jacobson,  
 I. Kaliman,  J. Kussmann,  A. W. Lange,  Ka Un Lao,  D. S. Levine,  Jie Liu,  
 S. C. McKenzie,  A. F. Morrison,  K. Nanda,  F. Plasser,  D. R. Rehn,  
 M. L. Vidal,  Zhi-Qiang You,  Ying Zhu,  B. Alam,  B. Albrecht,  
 A. Aldossary,  E. Alguire,  J. H. Andersen,  D. Barton,  K. Begam,  A. Behn,  
 Y. A. Bernard,  E. J. Berquist,  H. Burton,  A. Carreras,  K. Carter-Fenk,  
 R. Chakraborty,  A. D. Chien,  K. D. Closser,  V. Cofer-Shabica,  
 S. Dasgupta,  Jia Deng,  M. de Wergifosse,  M. Diedenhofen,  Hainam Do,  
 S. Ehlert,  Po-Tung Fang,  S. Fatehi,  Qingguo Feng,  T. Friedhoff,  
 J. Gayvert,  Qinghui Ge,  G. Gidofalvi,  M. Goldey,  J. Gomes,  
 C. Gonzalez-Espinoza,  S. Gulania,  A. Gunina,  M. W. D. Hanson-Heine,  
 P. H. P. Harbach,  A. W. Hauser,  M. F. Herbst,  M. Hernandez Vera,  
 M. Hodecker,  Z. C. Holden,  S. Houck,  Xunkun Huang,  Kerwin Hui,  
 B. C. Huynh,  M. Ivanov,  Hyunjun Ji,  Hanjie Jiang,  B. Kaduk,  S. Kaehler,  
 K. Khistyaev,  Jaehoon Kim,  P. Klunzinger,  Z. Koczor-Benda,  
 Joong Hoon Koh,  D. Kosenkov,  L. Koulias,  T. Kowalczyk,  C. M. Krauter,  
 K. Kue,  A. Kunitsa,  T. Kus,  A. Landau,  K. V. Lawler,  D. Lefrancois,  
 S. Lehtola,  Rain Li,  Yi-Pei Li,  Jiashu Liang,  M. Liebenthal,  
 Hung-Hsuan Lin,  You-Sheng Lin,  Fenglai Liu,  Kuan-Yu Liu,  
 M. Loipersberger,  A. Luenser,  A. Manjanath,  P. Manohar,  E. Mansoor,  
 S. F. Manzer,  Shan-Ping Mao,  A. V. Marenich,  T. Markovich,  S. Mason,  
 S. A. Maurer,  P. F. McLaughlin,  M. F. S. J. Menger,  J.-M. Mewes,  
 S. A. Mewes,  P. Morgante,  J. W. Mullinax,  K. J. Oosterbaan,  G. Paran,  
 Alexander C. Paul,  Suranjan K. Paul,  F. Pavosevic,  Zheng Pei,  S. Prager,  
 E. I. Proynov,  E. Ramos,  B. Rana,  A. E. Rask,  A. Rettig,  R. M. Richard,  
 F. Rob,  E. Rossomme,  T. Scheele,  M. Scheurer,  M. Schneider,  
 N. Sergueev,  S. M. Sharada,  W. Skomorowski,  D. W. Small,  C. J. Stein,  
 Yu-Chuan Su,  E. J. Sundstrom,  Zhen Tao,  J. Thirman,  T. Tsuchimochi,  
 N. M. Tubman,  S. P. Veccham,  O. Vydrov,  J. Wenzel,  J. Witte,  A. Yamada,  
 Kun Yao,  S. Yeganeh,  S. R. Yost,  A. Zech,  Igor Ying Zhang,  Xing Zhang,  
 Yu Zhang,  D. Zuev,  A. Aspuru-Guzik,  A. T. Bell,  N. A. Besley,  
 K. B. Bravaya,  B. R. Brooks,  D. Casanova,  Jeng-Da Chai,  S. Coriani,  
 C. J. Cramer,  A. E. DePrince, III,  R. A. DiStasio Jr.,  A. Dreuw,  
 B. D. Dunietz,  T. R. Furlani,  W. A. Goddard III,  S. Grimme,  
 S. Hammes-Schiffer,  T. Head-Gordon,  W. J. Hehre,  Chao-Ping Hsu,  
 T.-C. Jagau,  Yousung Jung,  A. Klamt,  Jing Kong,  D. S. Lambrecht,  
 WanZhen Liang,  N. J. Mayhall,  C. W. McCurdy,  J. B. Neaton,  
 C. Ochsenfeld,  J. A. Parkhill,  R. Peverati,  V. A. Rassolov,  Yihan Shao,  
 L. V. Slipchenko,  T. Stauch,  R. P. Steele,  J. E. Subotnik,  
 A. J. W. Thom,  A. Tkatchenko,  D. G. Truhlar,  T. Van Voorhis,  
 T. A. Wesolowski,  K. B. Whaley,  H. L. Woodcock III,  P. M. Zimmerman,  
 S. Faraji,  P. M. W. Gill,  M. Head-Gordon,  J. M. Herbert,  A. I. Krylov

 Additional authors for Version 5.4.1: 
 S. Kotaru,  Shaozhi Li,  Xiangyuan Li,  F. Matz,  A. Molle,  Haisheng Ren,  
 Yingli Su,  Hung-Yi Tsai,  C. Utku,  Fang Wang

 Contributors to earlier versions of Q-Chem not listed above: 
 R. D. Adamson,  B. Austin,  R. Baer,  J. Baker,  G. J. O. Beran,  
 K. Brandhorst,  S. T. Brown,  E. F. C. Byrd,  A. K. Chakraborty,  
 G. K. L. Chan,  Chun-Min Chang,  Yunqing Chen,  C.-L. Cheng,  
 Siu Hung Chien,  D. M. Chipman,  D. L. Crittenden,  H. Dachsel,  
 R. J. Doerksen,  A. D. Dutoi,  R. G. Edgar,  J. Fosso-Tande,  
 L. Fusti-Molnar,  D. Ghosh,  A. Ghysels,  A. Golubeva-Zadorozhnaya,  
 J. Gonthier,  M. S. Gordon,  S. R. Gwaltney,  G. Hawkins,  J. E. Herr,  
 A. Heyden,  S. Hirata,  E. G. Hohenstein,  G. Kedziora,  F. J. Keil,  
 C. Kelley,  Jihan Kim,  R. A. King,  R. Z. Khaliullin,  P. P. Korambath,  
 W. Kurlancheek,  A. Laurent,  A. M. Lee,  M. S. Lee,  S. V. Levchenko,  
 Ching Yeh Lin,  D. Liotard,  E. Livshits,  R. C. Lochan,  I. Lotan,  
 L. A. Martinez-Martinez,  P. E. Maslen,  N. Nair,  D. P. O'Neill,  
 D. Neuhauser,  E. Neuscamman,  C. M. Oana,  R. Olivares-Amaya,  R. Olson,  
 T. M. Perrine,  B. Peters,  P. A. Pieniazek,  A. Prociuk,  Y. M. Rhee,  
 J. Ritchie,  M. A. Rohrdanz,  E. Rosta,  N. J. Russ,  H. F. Schaefer III,  
 M. W. Schmidt,  N. E. Schultz,  S. Sharma,  N. Shenvi,  C. D. Sherrill,  
 A. C. Simmonett,  A. Sodt,  T. Stein,  D. Stuck,  K. S. Thanthiriwatte,  
 V. Vanovschi,  L. Vogt,  Tao Wang,  A. Warshel,  M. A. Watson,  
 C. F. Williams,  Q. Wu,  X. Xu,  Jun Yang,  W. Zhang,  Yan Zhao

 Please cite Q-Chem as follows:
 Y. Shao et al., Mol. Phys. 113, 184-215 (2015)
 DOI: 10.1080/00268976.2014.952696

 Q-Chem 5.4.1 for Intel X86 EM64T Linux

 Parts of Q-Chem use Armadillo 9.800.1 (Horizon Scraper).
 http://arma.sourceforge.net/

 Q-Chem begins on Wed Mar 15 16:20:27 2023  

 Host: cpu121.yggdrasil
0

     Scratch files written to /srv/beegfs/scratch/users/f/fum/qchem68429//
 Processing $rem in /home/share/wesolowski/qc5.aug2021.FDE/config/preferences:
 Processing $rem in /home/fum/.qchemrc:

 Checking the input file for inconsistencies... 	...done.

--------------------------------------------------------------
User input:
--------------------------------------------------------------
$comment
generated from CCJob.Templates
$end

$rem
sym_ignore = true
method = adc(2)
ee_states = 10
basis = cc-pVDZ
mem_static = 1024
mem_total = 40000
adc_davidson_maxiter = 900
adc_davidson_conv = 6
adc_print = 3
adc_prop_es = true
adc_prop_es2es = true
adc_prop_tpa = true
molden_format = True
state_analysis = true
print_orbitals = 15
gen_scfman = false
fde_export_density = true
fde_details = 3
$end

$molecule
0 1
H -0.0348278765 -0.2442097827 0.0636489606
C -1.0765972949 -0.5242748755 -0.0023551776
H -1.313264467 -1.5767591607 -0.0757276926
C -2.043634118 0.3926884087 0.0061254933
H -1.8137616575 1.4459188338 0.0404456828
H -3.085977293 0.114931858 -0.0593381042                     
$end
--------------------------------------------------------------
 ----------------------------------------------------------------
             Standard Nuclear Orientation (Angstroms)
    I     Atom           X                Y                Z
 ----------------------------------------------------------------
    1      H      -0.0348278765    -0.2442097827     0.0636489606
    2      C      -1.0765972949    -0.5242748755    -0.0023551776
    3      H      -1.3132644670    -1.5767591607    -0.0757276926
    4      C      -2.0436341180     0.3926884087     0.0061254933
    5      H      -1.8137616575     1.4459188338     0.0404456828
    6      H      -3.0859772930     0.1149318580    -0.0593381042
 ----------------------------------------------------------------
 Nuclear Repulsion Energy =          33.43048854 hartrees
 There are        8 alpha and        8 beta electrons
 Requested basis set is cc-pVDZ
 There are 24 shells and 48 basis functions
 Total memory of 40000 MB is distributed as follows: 
   MEM_STATIC is set to 1024 MB
   QALLOC/CCMAN JOB total memory use is  38976 MB
 Warning: actual memory use might exceed 40000 MB

 Total QAlloc Memory Limit  40000 MB
 Mega-Array Size      1001 MB
 MEM_STATIC part      1024 MB

                       Distance Matrix (Angstroms)
             H (  1)   C (  2)   H (  3)   C (  4)   H (  5)
   C (  2)  1.080776
   H (  3)  1.851895  1.081258
   C (  4)  2.108139  1.332687  2.102109
   H (  5)  2.453911  2.104021  3.066036  1.078570
   H (  6)  3.074674  2.109370  2.450428  1.080700  1.843913

 A cutoff of  1.0D-11 yielded    300 shell pairs
 There are      1220 function pairs (      1329 Cartesian)
 Smallest overlap matrix eigenvalue = 4.80E-03

 Scale SEOQF with 1.000000e-01/1.000000e-01/1.000000e+00

 Standard Electronic Orientation quadrupole field applied
 Nucleus-field energy     =     0.0000000022 hartrees
 Guess from superposition of atomic densities
 Warning:  Energy on first SCF cycle will be non-variational
 SAD guess density has 16.000000 electrons
 A restricted Hartree-Fock SCF calculation will be
 performed using Pulay DIIS extrapolation
 SCF converges when DIIS error is below 1.0E-08
 using 10 threads for integral computing
 -------------------------------------------------------
 OpenMP Integral computing Module                
 Release: version 1.0, May 2013, Q-Chem Inc. Pittsburgh 
 -------------------------------------------------------
 ---------------------------------------
  Cycle       Energy         DIIS Error
 ---------------------------------------
    1     -78.4402503310      1.01E-01
    2     -78.0175980185      7.21E-03
    3     -78.0382337130      1.84E-03
    4     -78.0397168406      5.73E-04
    5     -78.0398385742      5.81E-05
    6     -78.0398404566      9.72E-06
    7     -78.0398405188      2.95E-06
    8     -78.0398405226      1.13E-06
    9     -78.0398405231      1.00E-07
   10     -78.0398405232      2.09E-08
   11     -78.0398405232      5.98E-09 Convergence criterion met
 ---------------------------------------
 SCF time:  CPU 1.93 s  wall 2.56 s
 SCF   energy in the final basis set = -78.03984052
 Total energy in the final basis set = -78.03984052
Exporting Density Matrix to file 'Densmat_SCF.txt'.
Export successful
================================================================================
|                                                                              |
|                                 A D C  M A N                                 |
|                                                                              |
 ------------------------------------------------------------------------------ 
|                                                                              |
| Components:                                                                  |
|                                                                              |
| - libvmm - 1.3-trunk                                                         |
|   Authors:                                                                   |
|   Evgeny Epifanovsky, Ilya Kaliman                                           |
|                                                                              |
| - libtensor - 2.5-trunk                                                      |
|   Authors:                                                                   |
|   Evgeny Epifanovsky, Michael Wormit, Dmitry Zuev, Sam Manzer,               |
|   Ilya Kaliman                                                               |
|                                                                              |
| - libwfa - 1.1-trunk                                                         |
|   Authors:                                                                   |
|   Felix Plasser, Stefanie Mewes (Baeppler), Benjamin Thomitzni,              |
|   Michael Wormit, Feng Chen, Anna I. Krylov, Pavel Pokhilko                  |
|                                                                              |
| - libadc - 1.1-trunk                                                         |
|   Authors:                                                                   |
|   Michael Wormit, Adrian L. Dempwolff, Philipp H. P. Harbach,                |
|   Caroline Krauter, Dirk Rehn, Matthias Schneider, Jan Wenzel                |
|                                                                              |
| - adcman - 2.6-trunk                                                         |
|   Authors:                                                                   |
|   Michael Wormit, Adrian L. Dempwolff, Philipp H. P. Harbach,                |
|   Caroline Krauter, Daniel Lefrancois, Jan-Michael Mewes, Dirk Rehn,         |
|   Matthias Schneider, Jan Wenzel, Andreas Dreuw                              |
|                                                                              |
| Authors of earlier versions of ADCMAN:                                       |
| Andreas Dreuw, Jan Hendrik Starcke, Dirk Rehn, Michael Wormit                |
|                                                                              |
================================================================================

 Created directory /srv/beegfs/scratch/users/f/fum/qchem68429/plots
  Import QC data ...  CPU 0.00 s  wall 0.04 s

 Alpha MOs, Restricted
 -- Occupied --                  
-11.235 -11.233  -1.032  -0.790  -0.641  -0.582  -0.505  -0.374
  1 A     2 A     3 A     4 A     5 A     6 A     7 A     8 A                  
 -- Virtual --                   
  0.168   0.204   0.233   0.239   0.303   0.462   0.578   0.615
  9 A    10 A    11 A    12 A    13 A    14 A    15 A    16 A                  
  0.689   0.709   0.785   0.808   0.862   0.936   0.973   1.010
 17 A    18 A    19 A    20 A    21 A    22 A    23 A    24 A                  
  1.130   1.235   1.250   1.268   1.295   1.602   1.727   1.751
 25 A    26 A    27 A    28 A    29 A    30 A    31 A    32 A                  
  1.819   1.859   1.867   1.922   1.977   1.979   2.221   2.258
 33 A    34 A    35 A    36 A    37 A    38 A    39 A    40 A                  
  2.376   2.455   2.507   2.635   2.722   2.823   3.140   3.400
 41 A    42 A    43 A    44 A    45 A    46 A    47 A    48 A                  

 Beta MOs, Restricted
 -- Occupied --                  
-11.235 -11.233  -1.032  -0.790  -0.641  -0.582  -0.505  -0.374
  1 A     2 A     3 A     4 A     5 A     6 A     7 A     8 A                  
 -- Virtual --                   
  0.168   0.204   0.233   0.239   0.303   0.462   0.578   0.615
  9 A    10 A    11 A    12 A    13 A    14 A    15 A    16 A                  
  0.689   0.709   0.785   0.808   0.862   0.936   0.973   1.010
 17 A    18 A    19 A    20 A    21 A    22 A    23 A    24 A                  
  1.130   1.235   1.250   1.268   1.295   1.602   1.727   1.751
 25 A    26 A    27 A    28 A    29 A    30 A    31 A    32 A                  
  1.819   1.859   1.867   1.922   1.977   1.979   2.221   2.258
 33 A    34 A    35 A    36 A    37 A    38 A    39 A    40 A                  
  2.376   2.455   2.507   2.635   2.722   2.823   3.140   3.400
 41 A    42 A    43 A    44 A    45 A    46 A    47 A    48 A                  
  Import AO data ...  CPU 0.01 s  wall 0.52 s
  Using point group: C1
  Irreducible representations in point group: A
  Molecular orbitals: 
  Occupied MOs:
  Block   0:   1 (  A) A   2 (  A) A   3 (  A) A   4 (  A) A   5 (  A) A
                  -11.24      -11.23      -1.032       -0.79     -0.6412
               6 (  A) A   7 (  A) A   8 (  A) A
                 -0.5821     -0.5047      -0.374
  Block   1:   1 (  A) B   2 (  A) B   3 (  A) B   4 (  A) B   5 (  A) B
                  -11.24      -11.23      -1.032       -0.79     -0.6412
               6 (  A) B   7 (  A) B   8 (  A) B
                 -0.5821     -0.5047      -0.374
  Virtual MOs:
  Block   0:   9 (  A) A  10 (  A) A  11 (  A) A  12 (  A) A  13 (  A) A
                  0.1683      0.2037      0.2331      0.2395      0.3033
              14 (  A) A  15 (  A) A  16 (  A) A  17 (  A) A  18 (  A) A
                  0.4621      0.5776      0.6151      0.6892      0.7093
              19 (  A) A  20 (  A) A  21 (  A) A  22 (  A) A
                  0.7849       0.808      0.8624      0.9361
  Block   1:  23 (  A) A  24 (  A) A  25 (  A) A  26 (  A) A  27 (  A) A
                  0.9726        1.01        1.13       1.235        1.25
              28 (  A) A  29 (  A) A  30 (  A) A  31 (  A) A  32 (  A) A
                   1.268       1.295       1.602       1.727       1.751
              33 (  A) A  34 (  A) A  35 (  A) A  36 (  A) A
                   1.819       1.859       1.867       1.922
  Block   2:  37 (  A) A  38 (  A) A  39 (  A) A  40 (  A) A  41 (  A) A
                   1.977       1.979       2.221       2.258       2.376
              42 (  A) A  43 (  A) A  44 (  A) A  45 (  A) A  46 (  A) A
                   2.455       2.507       2.635       2.722       2.823
              47 (  A) A  48 (  A) A
                    3.14         3.4
  Block   3:   9 (  A) B  10 (  A) B  11 (  A) B  12 (  A) B  13 (  A) B
                  0.1683      0.2037      0.2331      0.2395      0.3033
              14 (  A) B  15 (  A) B  16 (  A) B  17 (  A) B  18 (  A) B
                  0.4621      0.5776      0.6151      0.6892      0.7093
              19 (  A) B  20 (  A) B  21 (  A) B  22 (  A) B
                  0.7849       0.808      0.8624      0.9361
  Block   4:  23 (  A) B  24 (  A) B  25 (  A) B  26 (  A) B  27 (  A) B
                  0.9726        1.01        1.13       1.235        1.25
              28 (  A) B  29 (  A) B  30 (  A) B  31 (  A) B  32 (  A) B
                   1.268       1.295       1.602       1.727       1.751
              33 (  A) B  34 (  A) B  35 (  A) B  36 (  A) B
                   1.819       1.859       1.867       1.922
  Block   5:  37 (  A) B  38 (  A) B  39 (  A) B  40 (  A) B  41 (  A) B
                   1.977       1.979       2.221       2.258       2.376
              42 (  A) B  43 (  A) B  44 (  A) B  45 (  A) B  46 (  A) B
                   2.455       2.507       2.635       2.722       2.823
              47 (  A) B  48 (  A) B
                    3.14         3.4
  Import MO data ...  CPU 0.01 s  wall 0.01 s
  Import HF data ...  CPU 0.09 s  wall 0.04 s
  Import 2e integrals ...  CPU 1.15 s  wall 0.38 s

--------------------------------------------------------------------------------
                                   HF Summary                                   
--------------------------------------------------------------------------------
  Energy:                                                  -78.0398405232 a.u.
  Dip. moment [a.u.]:                  [  -0.000134,    0.001440,   -0.010476]
  Total dipole [Debye]:                                               0.026881
  <r^2> [a.u.]:                        [ 175.323835,   34.914541,   11.609731]
  Total <r^2> [a.u.]:                                               221.848107
--------------------------------------------------------------------------------
  HF properties ...  CPU 0.01 s  wall 0.01 s
  MP(1) calculation ...  CPU 0.01 s  wall 0.01 s
  N^6 prerequesite intermediates ...  CPU 0.58 s  wall 0.09 s
  Difference density matrix of state mp2_gs printed to ASCII file 'State_mp2_gs_Difference.txt'
Exporting MP density matrix to file 'Densmat_MP.txt'.
Export successful
  Total density matrix of state mp2_gs printed to ASCII file 'State_mp2_gs_Total.txt'
Exporting MP density matrix to file 'Densmat_MP.txt'.
Export successful

--------------------------------------------------------------------------------
                                 MP(2) Summary                                  
--------------------------------------------------------------------------------
  MP energy contribution:                                   -0.2796841984 a.u.
  Total energy:                                            -78.3195247215 a.u.
  Dip. moment [a.u.]:                  [  -0.000199,    0.001307,   -0.010351]
  Total dipole [Debye]:                                               0.026522
  <r^2> [a.u.]:                        [ 175.370150,   34.955635,   11.441479]
  Total <r^2> [a.u.]:                                               221.767265

  Density matrix analysis:
  ------------------------
  NOs
    Occupation of frontier NOs:
       0.0453   1.9383
    Number of electrons: 16.000000
    Number of unpaired electrons: n_u =  0.40333, n_u,nl =  0.04507
    NO participation ratio (PR_NO): 13.854495
  
  
  Mulliken Population Analysis
  Atom      Charge (e)              h+              e-           Del q
  --------------------------------------------------------------------
   1 H        0.050966        0.014031       -0.011201        0.002830
   2 C       -0.100951        0.093241       -0.098860       -0.005619
   3 H        0.050563        0.014072       -0.011191        0.002881
   4 C       -0.100635        0.092862       -0.098845       -0.005983
   5 H        0.049632        0.014155       -0.011178        0.002977
   6 H        0.050424        0.014099       -0.011186        0.002913
  --------------------------------------------------------------------
  Sum:       -0.000000        0.242461       -0.242461        0.000000
  
  Multipole moment analysis of the density matrix
    Molecular charge:                      -0.000000
    Number of electrons:                   16.000000
      Center of electronic charge [Ang]: [ -1.560570,  -0.065646,  -0.000179]
    Total nuclear charge:                  16.000000
      Center of nuclear charge [Ang]:    [ -1.560576,  -0.065602,  -0.000522]
    Dipole moment [D]:                     0.026522
      Cartesian components [D]:          [ -0.000506,   0.003323,  -0.026309]
    RMS size of the density [Ang]:         1.200681
      Cartesian components [Ang]:        [  0.796186,   0.779408,   0.447489]
  
  Exciton analysis of the difference density matrix
    <r_h> [Ang]:                  [ -1.560474,  -0.066251,   0.001485]
    <r_e> [Ang]:                  [ -1.560331,  -0.065961,   0.001211]
    |<r_e - r_h>| [Ang]:            0.000424
    Hole size [Ang]:                1.393473
      Cartesian components [Ang]: [  0.846666,   0.833753,   0.727860]
    Electron size [Ang]:            1.359736
      Cartesian components [Ang]: [  0.877939,   0.861768,   0.579188]
--------------------------------------------------------------------------------
  MP(2) calculation ...  CPU 0.19 s  wall 0.44 s
  Start ADC(2)-s ...  CPU 0.01 s  wall 0.01 s
  ADC(2) intermediates ...  CPU 0.10 s  wall 0.02 s
  Starting Davidson for singlet states of irrep A ... 
--------------------------------------------------------------------------------
   It NVec Conv  Avg. Norm  Max. Norm  Conv. states           Remark
--------------------------------------------------------------------------------
        10    0  1.330e-01  4.688e-01  0.4119 n n n n n n n n Guess.
    1   20    0  2.321e-02  1.109e-01  0.3258 n n n n n n n n 
    2   30    0  6.089e-03  2.476e-02  0.3211 n n n n n n n n 
    3   40    0  2.076e-03  1.015e-02  0.3207 n n n n n n n n 
    4   50    0  5.341e-04  3.347e-03  0.3207 n n n n n n n n 
    5   20    0  2.971e-04  1.575e-03  0.3207 n n n n n n n n Subspace collapsed.
    6   30    0  2.334e-04  1.325e-03  0.3207 n n n n n n n n 
    7   40    0  1.815e-04  1.188e-03  0.3207 n n n n n n n n 
    8   50    0  1.107e-04  7.809e-04  0.3207 n n n n n n n n 
    9   20    0  5.658e-05  3.715e-04  0.3207 n n n n n n n n Subspace collapsed.
   10   30    1  4.768e-05  3.185e-04  0.3207 n y n n n n n n 
   11   40    3  2.336e-05  1.690e-04  0.3207 n y y y n n n n 
   12   50    5  9.722e-06  7.563e-05  0.3207 y y y y y n n n 
   13   20    6  1.032e-05  8.317e-05  0.3207 y y y y y y n n Subspace collapsed.
   14   30    6  1.301e-05  1.122e-04  0.3207 y y y y y y n n 
   15   40    6  1.194e-05  1.110e-04  0.3207 y y y y y y n n 
   16   50    6  7.135e-06  6.828e-05  0.3207 y y y y y y n n 
   17   20    6  3.439e-06  3.291e-05  0.3207 y y y y y y n n Subspace collapsed.
   18   30    6  2.137e-06  2.048e-05  0.3207 y y y y y y n n 
   19   40    7  1.170e-06  1.124e-05  0.3207 y y y y y y y n 
   20   50    8  8.496e-07  8.244e-06  0.3207 y y y y y y y y 
   21   20    8  6.701e-07  6.549e-06  0.3207 y y y y y y y y Subspace collapsed.
   22   30    8  9.187e-07  9.012e-06  0.3207 y y y y y y y y 
   23   40    8  1.082e-06  1.072e-05  0.3207 y y y y y y y y 
   24   42    8  1.073e-06  1.064e-05  0.3207 y y y y y y y y 
   25   43    8  1.085e-06  1.075e-05  0.3207 y y y y y y y y 
   26   50    9  7.682e-07  7.646e-06  0.3207 y y y y y y y y 
   27   17    9  4.206e-07  4.185e-06  0.3207 y y y y y y y y Subspace collapsed.
   28   23    9  2.795e-07  2.782e-06  0.3207 y y y y y y y y 
   29   29    9  1.520e-07  1.512e-06  0.3207 y y y y y y y y 
   30   35    9  1.410e-07  1.406e-06  0.3207 y y y y y y y y 
   31   35    9  1.410e-07  1.406e-06  0.3207 y y y y y y y y 
   32   45    9  1.607e-07  1.604e-06  0.3207 y y y y y y y y 
   33   50    9  1.679e-07  1.678e-06  0.3207 y y y y y y y y 
   34   15   10  7.213e-08  7.207e-07  0.3207 y y y y y y y y Converged.
--------------------------------------------------------------------------------
  Davidson Summary: 
 ------------------------------------------------------------
  State  0: excitation energy =   0.3207 a.u.   (converged)
  State  1: excitation energy =   0.3330 a.u.   (converged)
  State  2: excitation energy =   0.3371 a.u.   (converged)
  State  3: excitation energy =   0.3615 a.u.   (converged)
  State  4: excitation energy =   0.3753 a.u.   (converged)
  State  5: excitation energy =   0.3872 a.u.   (converged)
  State  6: excitation energy =   0.4249 a.u.   (converged)
  State  7: excitation energy =   0.4470 a.u.   (converged)
  State  8: excitation energy =   0.4563 a.u.   (converged)
  State  9: excitation energy =   0.4649 a.u.   (converged)
 ------------------------------------------------------------

  Singlet states of irrep A ...  CPU 138.23 s  wall 36.21 s
  TDMs ...  CPU 1.08 s  wall 0.37 s
  SDMs ...  CPU 2.93 s  wall 0.75 s
  Starting TPA DIIS iterations ... 
------------------------------------ 
   It     Res. Norm  Remark
------------------------------------
                       Guess.
    1     4.403e+00  
    2     5.836e+00  
    3     1.076e+00  
    4     2.565e-01  
    5     6.575e-02  
    6     2.676e-02  
    7     8.211e-03  
    8     1.429e-03  
    9     5.113e-04  
   10     1.172e-04  
   11     3.451e-05  
   12     1.396e-05  
   13     3.946e-06  
   14     2.253e-06  
   15     4.329e-07  Converged.
   ... Converged in 15 steps (norm: 4.32944e-07)
------------------------------------
  Starting TPA DIIS iterations ... 
------------------------------------ 
   It     Res. Norm  Remark
------------------------------------
                       Guess.
    1     4.179e+00  
    2     5.532e+00  
    3     1.027e+00  
    4     2.549e-01  
    5     6.526e-02  
    6     2.680e-02  
    7     8.096e-03  
    8     1.535e-03  
    9     5.490e-04  
   10     1.301e-04  
   11     4.346e-05  
   12     1.710e-05  
   13     5.570e-06  
   14     3.067e-06  
   15     5.086e-07  Converged.
   ... Converged in 15 steps (norm: 5.08587e-07)
------------------------------------
  Starting TPA DIIS iterations ... 
------------------------------------ 
   It     Res. Norm  Remark
------------------------------------
                       Guess.
    1     6.905e-01  
    2     4.927e-01  
    3     1.742e-01  
    4     1.034e-01  
    5     1.728e-02  
    6     6.204e-03  
    7     1.029e-03  
    8     4.470e-04  
    9     1.244e-04  
   10     2.859e-05  
   11     5.518e-06  
   12     1.670e-06  
   13     1.143e-06  
   14     3.552e-07  Converged.
   ... Converged in 14 steps (norm: 3.5525e-07)
------------------------------------
  Starting TPA DIIS iterations ... 
------------------------------------ 
   It     Res. Norm  Remark
------------------------------------
                       Guess.
    1     4.706e+00  
    2     6.379e+00  
    3     1.162e+00  
    4     2.866e-01  
    5     7.454e-02  
    6     3.061e-02  
    7     9.370e-03  
    8     1.628e-03  
    9     5.854e-04  
   10     1.387e-04  
   11     4.116e-05  
   12     1.746e-05  
   13     4.830e-06  
   14     2.925e-06  
   15     5.480e-07  Converged.
   ... Converged in 15 steps (norm: 5.48009e-07)
------------------------------------
  Starting TPA DIIS iterations ... 
------------------------------------ 
   It     Res. Norm  Remark
------------------------------------
                       Guess.
    1     4.465e+00  
    2     6.046e+00  
    3     1.108e+00  
    4     2.846e-01  
    5     7.399e-02  
    6     3.068e-02  
    7     9.245e-03  
    8     1.762e-03  
    9     6.350e-04  
   10     1.549e-04  
   11     5.386e-05  
   12     2.155e-05  
   13     7.159e-06  
   14     3.852e-06  
   15     6.552e-07  Converged.
   ... Converged in 15 steps (norm: 6.55163e-07)
------------------------------------
  Starting TPA DIIS iterations ... 
------------------------------------ 
   It     Res. Norm  Remark
------------------------------------
                       Guess.
    1     7.037e-01  
    2     5.125e-01  
    3     1.853e-01  
    4     1.168e-01  
    5     1.872e-02  
    6     6.883e-03  
    7     1.170e-03  
    8     5.307e-04  
    9     1.511e-04  
   10     3.253e-05  
   11     6.302e-06  
   12     1.971e-06  
   13     1.388e-06  
   14     4.445e-07  Converged.
   ... Converged in 14 steps (norm: 4.44478e-07)
------------------------------------
  Starting TPA DIIS iterations ... 
------------------------------------ 
   It     Res. Norm  Remark
------------------------------------
                       Guess.
    1     4.815e+00  
    2     6.579e+00  
    3     1.192e+00  
    4     2.979e-01  
    5     7.782e-02  
    6     3.205e-02  
    7     9.804e-03  
    8     1.702e-03  
    9     6.131e-04  
   10     1.470e-04  
   11     4.375e-05  
   12     1.886e-05  
   13     5.178e-06  
   14     3.199e-06  
   15     5.941e-07  Converged.
   ... Converged in 15 steps (norm: 5.94103e-07)
------------------------------------
  Starting TPA DIIS iterations ... 
------------------------------------ 
   It     Res. Norm  Remark
------------------------------------
                       Guess.
    1     4.569e+00  
    2     6.235e+00  
    3     1.138e+00  
    4     2.956e-01  
    5     7.726e-02  
    6     3.214e-02  
    7     9.675e-03  
    8     1.848e-03  
    9     6.676e-04  
   10     1.645e-04  
   11     5.803e-05  
   12     2.333e-05  
   13     7.804e-06  
   14     4.162e-06  
   15     7.140e-07  Converged.
   ... Converged in 15 steps (norm: 7.13994e-07)
------------------------------------
  Starting TPA DIIS iterations ... 
------------------------------------ 
   It     Res. Norm  Remark
------------------------------------
                       Guess.
    1     7.083e-01  
    2     5.195e-01  
    3     1.892e-01  
    4     1.217e-01  
    5     1.926e-02  
    6     7.136e-03  
    7     1.223e-03  
    8     5.628e-04  
    9     1.614e-04  
   10     3.369e-05  
   11     6.592e-06  
   12     2.085e-06  
   13     1.482e-06  
   14     4.799e-07  Converged.
   ... Converged in 14 steps (norm: 4.79853e-07)
------------------------------------
  Starting TPA DIIS iterations ... 
------------------------------------ 
   It     Res. Norm  Remark
------------------------------------
                       Guess.
    1     5.560e+00  
    2     7.969e+00  
    3     1.401e+00  
    4     3.787e-01  
    5     1.014e-01  
    6     4.252e-02  
    7     1.292e-02  
    8     2.233e-03  
    9     8.129e-04  
   10     2.104e-04  
   11     6.400e-05  
   12     3.026e-05  
   13     7.968e-06  
   14     5.534e-06  
   15     9.721e-07  Converged.
   ... Converged in 15 steps (norm: 9.72092e-07)
------------------------------------
  Starting TPA DIIS iterations ... 
------------------------------------ 
   It     Res. Norm  Remark
------------------------------------
                       Guess.
    1     5.273e+00  
    2     7.551e+00  
    3     1.336e+00  
    4     3.751e-01  
    5     1.007e-01  
    6     4.274e-02  
    7     1.276e-02  
    8     2.471e-03  
    9     9.089e-04  
   10     2.382e-04  
   11     9.230e-05  
   12     3.780e-05  
   13     1.323e-05  
   14     6.618e-06  
   15     1.197e-06  
   16     5.678e-07  Converged.
   ... Converged in 16 steps (norm: 5.67763e-07)
------------------------------------
  Starting TPA DIIS iterations ... 
------------------------------------ 
   It     Res. Norm  Remark
------------------------------------
                       Guess.
    1     7.368e-01  
    2     5.654e-01  
    3     2.156e-01  
    4     1.555e-01  
    5     2.296e-02  
    6     8.955e-03  
    7     1.621e-03  
    8     7.974e-04  
    9     2.353e-04  
   10     3.811e-05  
   11     8.690e-06  
   12     2.929e-06  
   13     2.178e-06  
   14     7.630e-07  Converged.
   ... Converged in 14 steps (norm: 7.62992e-07)
------------------------------------
  Starting TPA DIIS iterations ... 
------------------------------------ 
   It     Res. Norm  Remark
------------------------------------
                       Guess.
    1     6.069e+00  
    2     8.952e+00  
    3     1.543e+00  
    4     4.381e-01  
    5     1.187e-01  
    6     5.031e-02  
    7     1.520e-02  
    8     2.621e-03  
    9     9.604e-04  
   10     2.610e-04  
   11     8.078e-05  
   12     4.014e-05  
   13     1.033e-05  
   14     7.632e-06  
   15     1.298e-06  
   16     1.031e-06  
   17     1.485e-07  Converged.
   ... Converged in 17 steps (norm: 1.485e-07)
------------------------------------
  Starting TPA DIIS iterations ... 
------------------------------------ 
   It     Res. Norm  Remark
------------------------------------
                       Guess.
    1     5.755e+00  
    2     8.482e+00  
    3     1.471e+00  
    4     4.334e-01  
    5     1.179e-01  
    6     5.064e-02  
    7     1.504e-02  
    8     2.940e-03  
    9     1.094e-03  
   10     2.973e-04  
   11     1.221e-04  
   12     5.019e-05  
   13     1.807e-05  
   14     8.655e-06  
   15     1.613e-06  
   16     7.533e-07  Converged.
   ... Converged in 16 steps (norm: 7.53332e-07)
------------------------------------
  Starting TPA DIIS iterations ... 
------------------------------------ 
   It     Res. Norm  Remark
------------------------------------
                       Guess.
    1     7.541e-01  
    2     5.952e-01  
    3     2.331e-01  
    4     1.785e-01  
    5     2.559e-02  
    6     1.029e-02  
    7     1.930e-03  
    8     9.629e-04  
    9     2.870e-04  
   10     3.904e-05  
   11     1.028e-05  
   12     3.561e-06  
   13     2.686e-06  
   14     9.996e-07  Converged.
   ... Converged in 14 steps (norm: 9.99578e-07)
------------------------------------
  Starting TPA DIIS iterations ... 
------------------------------------ 
   It     Res. Norm  Remark
------------------------------------
                       Guess.
    1     6.569e+00  
    2     9.942e+00  
    3     1.681e+00  
    4     4.994e-01  
    5     1.365e-01  
    6     5.843e-02  
    7     1.757e-02  
    8     3.021e-03  
    9     1.113e-03  
   10     3.167e-04  
   11     9.985e-05  
   12     5.163e-05  
   13     1.302e-05  
   14     1.011e-05  
   15     1.670e-06  
   16     1.346e-06  
   17     1.822e-07  Converged.
   ... Converged in 17 steps (norm: 1.82166e-07)
------------------------------------
  Starting TPA DIIS iterations ... 
------------------------------------ 
   It     Res. Norm  Remark
------------------------------------
                       Guess.
    1     6.228e+00  
    2     9.421e+00  
    3     1.602e+00  
    4     4.935e-01  
    5     1.357e-01  
    6     5.888e-02  
    7     1.738e-02  
    8     3.433e-03  
    9     1.292e-03  
   10     3.624e-04  
   11     1.568e-04  
   12     6.440e-05  
   13     2.377e-05  
   14     1.094e-05  
   15     2.093e-06  
   16     9.620e-07  Converged.
   ... Converged in 16 steps (norm: 9.62042e-07)
------------------------------------
  Starting TPA DIIS iterations ... 
------------------------------------ 
   It     Res. Norm  Remark
------------------------------------
                       Guess.
    1     7.698e-01  
    2     6.234e-01  
    3     2.501e-01  
    4     2.006e-01  
    5     2.824e-02  
    6     1.168e-02  
    7     2.261e-03  
    8     1.119e-03  
    9     3.368e-04  
   10     3.979e-05  
   11     1.199e-05  
   12     4.219e-06  
   13     3.189e-06  
   14     1.265e-06  
   15     3.977e-07  Converged.
   ... Converged in 15 steps (norm: 3.97737e-07)
------------------------------------
  Starting TPA DIIS iterations ... 
------------------------------------ 
   It     Res. Norm  Remark
------------------------------------
                       Guess.
    1     8.695e+00  
    2     1.439e+01  
    3     2.259e+00  
    4     7.878e-01  
    5     2.207e-01  
    6     9.741e-02  
    7     2.867e-02  
    8     4.896e-03  
    9     1.843e-03  
   10     6.207e-04  
   11     2.153e-04  
   12     1.222e-04  
   13     2.870e-05  
   14     2.514e-05  
   15     3.793e-06  
   16     2.991e-06  
   17     4.351e-07  Converged.
   ... Converged in 17 steps (norm: 4.35123e-07)
------------------------------------
  Starting TPA DIIS iterations ... 
------------------------------------ 
   It     Res. Norm  Remark
------------------------------------
                       Guess.
    1     8.240e+00  
    2     1.364e+01  
    3     2.151e+00  
    4     7.753e-01  
    5     2.195e-01  
    6     9.859e-02  
    7     2.845e-02  
    8     5.870e-03  
    9     2.310e-03  
   10     7.164e-04  
   11     3.651e-04  
   12     1.477e-04  
   13     5.879e-05  
   14     2.369e-05  
   15     4.947e-06  
   16     2.131e-06  
   17     4.171e-07  Converged.
   ... Converged in 17 steps (norm: 4.17115e-07)
------------------------------------
  Starting TPA DIIS iterations ... 
------------------------------------ 
   It     Res. Norm  Remark
------------------------------------
                       Guess.
    1     8.258e-01  
    2     7.357e-01  
    3     3.187e-01  
    4     2.838e-01  
    5     4.012e-02  
    6     1.808e-02  
    7     3.921e-03  
    8     1.607e-03  
    9     5.310e-04  
   10     5.342e-05  
   11     2.085e-05  
   12     7.442e-06  
   13     5.167e-06  
   14     2.625e-06  
   15     1.008e-06  
   16     5.969e-07  Converged.
   ... Converged in 16 steps (norm: 5.96854e-07)
------------------------------------
  Starting TPA DIIS iterations ... 
------------------------------------ 
   It     Res. Norm  Remark
------------------------------------
                       Guess.
    1     1.051e+01  
    2     1.848e+01  
    3     2.740e+00  
    4     1.062e+00  
    5     3.014e-01  
    6     1.357e-01  
    7     3.931e-02  
    8     6.688e-03  
    9     2.560e-03  
   10     9.685e-04  
   11     3.688e-04  
   12     2.126e-04  
   13     4.862e-05  
   14     4.334e-05  
   15     6.373e-06  
   16     4.588e-06  
   17     8.780e-07  Converged.
   ... Converged in 17 steps (norm: 8.77982e-07)
------------------------------------
  Starting TPA DIIS iterations ... 
------------------------------------ 
   It     Res. Norm  Remark
------------------------------------
                       Guess.
    1     9.958e+00  
    2     1.750e+01  
    3     2.608e+00  
    4     1.042e+00  
    5     2.999e-01  
    6     1.377e-01  
    7     3.909e-02  
    8     8.368e-03  
    9     3.403e-03  
   10     1.116e-03  
   11     6.217e-04  
   12     2.481e-04  
   13     1.018e-04  
   14     3.838e-05  
   15     8.399e-06  
   16     3.503e-06  
   17     7.892e-07  Converged.
   ... Converged in 17 steps (norm: 7.89193e-07)
------------------------------------
  Starting TPA DIIS iterations ... 
------------------------------------ 
   It     Res. Norm  Remark
------------------------------------
                       Guess.
    1     8.647e-01  
    2     8.255e-01  
    3     3.736e-01  
    4     3.395e-01  
    5     5.087e-02  
    6     2.383e-02  
    7     5.565e-03  
    8     1.804e-03  
    9     6.796e-04  
   10     7.606e-05  
   11     3.019e-05  
   12     1.086e-05  
   13     6.979e-06  
   14     3.567e-06  
   15     1.867e-06  
   16     1.059e-06  
   17     6.046e-07  Converged.
   ... Converged in 17 steps (norm: 6.04608e-07)
------------------------------------
  Starting TPA DIIS iterations ... 
------------------------------------ 
   It     Res. Norm  Remark
------------------------------------
                       Guess.
    1     1.145e+01  
    2     2.068e+01  
    3     2.985e+00  
    4     1.211e+00  
    5     3.459e-01  
    6     1.571e-01  
    7     4.517e-02  
    8     7.676e-03  
    9     2.965e-03  
   10     1.181e-03  
   11     4.719e-04  
   12     2.707e-04  
   13     6.222e-05  
   14     5.458e-05  
   15     8.080e-06  
   16     5.391e-06  
   17     1.247e-06  
   18     8.744e-07  Converged.
   ... Converged in 18 steps (norm: 8.74394e-07)
------------------------------------
  Starting TPA DIIS iterations ... 
------------------------------------ 
   It     Res. Norm  Remark
------------------------------------
                       Guess.
    1     1.085e+01  
    2     1.959e+01  
    3     2.840e+00  
    4     1.187e+00  
    5     3.443e-01  
    6     1.596e-01  
    7     4.496e-02  
    8     9.807e-03  
    9     4.049e-03  
   10     1.357e-03  
   11     7.825e-04  
   12     3.104e-04  
   13     1.284e-04  
   14     4.734e-05  
   15     1.051e-05  
   16     4.367e-06  
   17     1.054e-06  
   18     6.743e-07  Converged.
   ... Converged in 18 steps (norm: 6.74306e-07)
------------------------------------
  Starting TPA DIIS iterations ... 
------------------------------------ 
   It     Res. Norm  Remark
------------------------------------
                       Guess.
    1     8.828e-01  
    2     8.709e-01  
    3     4.008e-01  
    4     3.635e-01  
    5     5.661e-02  
    6     2.675e-02  
    7     6.465e-03  
    8     1.861e-03  
    9     7.528e-04  
   10     8.927e-05  
   11     3.557e-05  
   12     1.291e-05  
   13     8.184e-06  
   14     3.838e-06  
   15     2.405e-06  
   16     1.346e-06  
   17     7.627e-07  Converged.
   ... Converged in 17 steps (norm: 7.6271e-07)
------------------------------------
  Starting TPA DIIS iterations ... 
------------------------------------ 
   It     Res. Norm  Remark
------------------------------------
                       Guess.
    1     1.245e+01  
    2     2.310e+01  
    3     3.243e+00  
    4     1.375e+00  
    5     3.951e-01  
    6     1.809e-01  
    7     5.166e-02  
    8     8.772e-03  
    9     3.423e-03  
   10     1.431e-03  
   11     6.014e-04  
   12     3.410e-04  
   13     7.974e-05  
   14     6.789e-05  
   15     1.025e-05  
   16     6.192e-06  
   17     1.783e-06  
   18     1.209e-06  
   19     3.865e-07  Converged.
   ... Converged in 19 steps (norm: 3.86542e-07)
------------------------------------
  Starting TPA DIIS iterations ... 
------------------------------------ 
   It     Res. Norm  Remark
------------------------------------
                       Guess.
    1     1.180e+01  
    2     2.189e+01  
    3     3.085e+00  
    4     1.346e+00  
    5     3.934e-01  
    6     1.841e-01  
    7     5.147e-02  
    8     1.145e-02  
    9     4.796e-03  
   10     1.639e-03  
   11     9.742e-04  
   12     3.843e-04  
   13     1.597e-04  
   14     5.790e-05  
   15     1.298e-05  
   16     5.418e-06  
   17     1.402e-06  
   18     9.291e-07  Converged.
   ... Converged in 18 steps (norm: 9.29137e-07)
------------------------------------
  Starting TPA DIIS iterations ... 
------------------------------------ 
   It     Res. Norm  Remark
------------------------------------
                       Guess.
    1     9.009e-01  
    2     9.187e-01  
    3     4.289e-01  
    4     3.863e-01  
    5     6.284e-02  
    6     2.976e-02  
    7     7.445e-03  
    8     1.910e-03  
    9     8.288e-04  
   10     1.038e-04  
   11     4.167e-05  
   12     1.531e-05  
   13     9.701e-06  
   14     4.120e-06  
   15     2.776e-06  
   16     1.682e-06  
   17     9.503e-07  Converged.
   ... Converged in 17 steps (norm: 9.50253e-07)
------------------------------------
  Two-photon absorbption ...  CPU 122.74 s  wall 25.52 s
  Transition density matrix of state singlet_A_1 printed to ASCII file 'State_singlet_A_1_Transition.txt'
  Transition density matrix of state singlet_A_2 printed to ASCII file 'State_singlet_A_2_Transition.txt'
  Transition density matrix of state singlet_A_3 printed to ASCII file 'State_singlet_A_3_Transition.txt'
  Transition density matrix of state singlet_A_4 printed to ASCII file 'State_singlet_A_4_Transition.txt'
  Transition density matrix of state singlet_A_5 printed to ASCII file 'State_singlet_A_5_Transition.txt'
  Transition density matrix of state singlet_A_6 printed to ASCII file 'State_singlet_A_6_Transition.txt'
  Transition density matrix of state singlet_A_7 printed to ASCII file 'State_singlet_A_7_Transition.txt'
  Transition density matrix of state singlet_A_8 printed to ASCII file 'State_singlet_A_8_Transition.txt'
  Transition density matrix of state singlet_A_9 printed to ASCII file 'State_singlet_A_9_Transition.txt'
  Transition density matrix of state singlet_A_10 printed to ASCII file 'State_singlet_A_10_Transition.txt'
  Transition properties ...  CPU 0.16 s  wall 0.67 s
  Difference density matrix of state singlet_A_1 printed to ASCII file 'State_singlet_A_1_Difference.txt'
  Total density matrix of state singlet_A_1 printed to ASCII file 'State_singlet_A_1_Total.txt'
  Difference density matrix of state singlet_A_2 printed to ASCII file 'State_singlet_A_2_Difference.txt'
  Total density matrix of state singlet_A_2 printed to ASCII file 'State_singlet_A_2_Total.txt'
  Difference density matrix of state singlet_A_3 printed to ASCII file 'State_singlet_A_3_Difference.txt'
  Total density matrix of state singlet_A_3 printed to ASCII file 'State_singlet_A_3_Total.txt'
  Difference density matrix of state singlet_A_4 printed to ASCII file 'State_singlet_A_4_Difference.txt'
  Total density matrix of state singlet_A_4 printed to ASCII file 'State_singlet_A_4_Total.txt'
  Difference density matrix of state singlet_A_5 printed to ASCII file 'State_singlet_A_5_Difference.txt'
  Total density matrix of state singlet_A_5 printed to ASCII file 'State_singlet_A_5_Total.txt'
  Difference density matrix of state singlet_A_6 printed to ASCII file 'State_singlet_A_6_Difference.txt'
  Total density matrix of state singlet_A_6 printed to ASCII file 'State_singlet_A_6_Total.txt'
  Difference density matrix of state singlet_A_7 printed to ASCII file 'State_singlet_A_7_Difference.txt'
  Total density matrix of state singlet_A_7 printed to ASCII file 'State_singlet_A_7_Total.txt'
  Difference density matrix of state singlet_A_8 printed to ASCII file 'State_singlet_A_8_Difference.txt'
  Total density matrix of state singlet_A_8 printed to ASCII file 'State_singlet_A_8_Total.txt'
  Difference density matrix of state singlet_A_9 printed to ASCII file 'State_singlet_A_9_Difference.txt'
  Total density matrix of state singlet_A_9 printed to ASCII file 'State_singlet_A_9_Total.txt'
  Difference density matrix of state singlet_A_10 printed to ASCII file 'State_singlet_A_10_Difference.txt'
  Total density matrix of state singlet_A_10 printed to ASCII file 'State_singlet_A_10_Total.txt'
  Properties ...  CPU 0.31 s  wall 2.71 s
  ISR TDMS ...  CPU 16.99 s  wall 4.55 s
  ISR transition properties ...  CPU 0.25 s  wall 0.11 s
  Sum-over-states TPA ...  CPU 0.00 s  wall 0.00 s

--------------------------------------------------------------------------------
                   State-averaged natural transition orbitals
--------------------------------------------------------------------------------
--------------------------------------------------------------------------------
  SA-NTO decomposition ...  CPU 0.01 s  wall 0.10 s

--------------------------------------------------------------------------------
                             Excited State Summary
--------------------------------------------------------------------------------
--------------------------------------------------------------------------------

  Excited state 1 (singlet, A)                                     [converged]
  ----------------------------------------------------------------------------
  Term symbol:  2 (1) A                                     R^2 =  1.59111e-13

  Total energy:                                            -77.9988181242 a.u.
  Excitation energy:                                               8.726870 eV

  Osc. strength:                                                      0.434200
  Trans. dip. moment [a.u.]:           [  -1.033805,    0.980789,    0.011317]
  <i|r^2|0> [a.u.]:                    [  -6.093899,    0.262045,   -0.019140]
  Two-photon absorption cross-section (SoS) [a.u.]:                   0.003008
  Two-photon absorption matrix (SoS) [a.u.]:
                                       |   -0.013918    0.003813   -0.007764 |
                                       |    0.003813    0.006304    0.007137 |
                                       |   -0.007764    0.007137   -0.010315 |
  Two-photon absorption cross-section [a.u.]:                         0.094568
  Two-photon absorption matrix [a.u.]:
                                       |   -0.019864   -0.003140    0.055708 |
                                       |   -0.003140    0.008112    0.091935 |
                                       |    0.055708    0.091935    0.005689 |

  Dip. moment [a.u.]:                  [  -0.000256,    0.000173,   -0.013272]
  Total dipole [Debye]:                                               0.033743
  <r^2> [a.u.]:                        [ 176.087286,   35.596355,   11.883814]
  Total <r^2> [a.u.]:                                               223.567455

  V1^2 = 0.9711, V2^2 = 0.0289

  Important amplitudes:
      occ i     occ j     vir a      vir b          v   
    -----------------------------------------------------
     8 (A) A              9 (A) A                -0.6753
     7 (A) A              9 (A) A                -0.0889
     6 (A) A             14 (A) A                 0.0616
     4 (A) A             10 (A) A                 0.0598
     7 (A) A             16 (A) A                -0.0563
     5 (A) A             13 (A) A                 0.0506
     6 (A) A             23 (A) A                 0.0480
     8 (A) A             20 (A) A                -0.0347
     6 (A) A             19 (A) A                 0.0305
     3 (A) A             12 (A) A                -0.0278
     5 (A) A             22 (A) A                -0.0212
     7 (A) A             11 (A) A                -0.0210
     4 (A) A             24 (A) A                 0.0185
     3 (A) A             26 (A) A                -0.0183
     8 (A) A   8 (A) B   17 (A) A   20 (A) B      0.0182
     6 (A) A             26 (A) A                -0.0162
     8 (A) A   8 (A) B    9 (A) A   28 (A) B     -0.0154
     7 (A) A             21 (A) A                -0.0147
     3 (A) A             14 (A) A                 0.0137
     6 (A) A             12 (A) A                 0.0130
     3 (A) A   4 (A) B    9 (A) A    9 (A) B     -0.0127
     3 (A) A             19 (A) A                 0.0118
     8 (A) A   8 (A) B   18 (A) A   19 (A) B     -0.0112
     7 (A) A             20 (A) A                -0.0102
     7 (A) A             32 (A) A                -0.0094
     7 (A) A             36 (A) A                -0.0084
     3 (A) A             23 (A) A                 0.0079
     8 (A) A   8 (A) B   25 (A) A   29 (A) B     -0.0073
     6 (A) A             35 (A) A                 0.0071
     6 (A) A             40 (A) A                 0.0067
     8 (A) A   8 (A) B    9 (A) A   27 (A) B     -0.0062
     3 (A) A   6 (A) B    9 (A) A   28 (A) B     -0.0061
     6 (A) A              9 (A) A                 0.0059
     5 (A) A   8 (A) B   11 (A) A   20 (A) B      0.0059
     7 (A) A   8 (A) B   13 (A) A   20 (A) B     -0.0059
     5 (A) A   8 (A) B   16 (A) A    9 (A) B      0.0058
     5 (A) A   7 (A) B    9 (A) A    9 (A) B      0.0058
     5 (A) A   8 (A) B   11 (A) A    9 (A) B     -0.0058
     5 (A) A             27 (A) A                -0.0058
     3 (A) A   5 (A) B    9 (A) A   25 (A) B      0.0057
    -----------------------------------------------------

  Density matrix analysis:
  ------------------------
  NOs
    Occupation of frontier NOs:
       0.9508   1.0210
    Number of electrons: 16.000000
    Number of unpaired electrons: n_u =  2.31408, n_u,nl =  2.03269
    NO participation ratio (PR_NO):  2.860023
  
  
  Mulliken Population Analysis
  Atom      Charge (e)              h+              e-           Del q
  --------------------------------------------------------------------
   1 H        0.060563        0.022041       -0.012444        0.009596
   2 C       -0.120599        0.485470       -0.505117       -0.019648
   3 H        0.060799        0.022737       -0.012502        0.010236
   4 C       -0.120534        0.485313       -0.505212       -0.019899
   5 H        0.059362        0.022285       -0.012556        0.009729
   6 H        0.060410        0.022624       -0.012639        0.009985
  --------------------------------------------------------------------
  Sum:       -0.000000        1.060470       -1.060470       -0.000000
  
  Multipole moment analysis of the density matrix
    Molecular charge:                      -0.000000
    Number of electrons:                   16.000000
      Center of electronic charge [Ang]: [ -1.560568,  -0.065608,  -0.000083]
    Total nuclear charge:                  16.000000
      Center of nuclear charge [Ang]:    [ -1.560576,  -0.065602,  -0.000522]
    Dipole moment [D]:                     0.033743
      Cartesian components [D]:          [ -0.000652,   0.000440,  -0.033734]
    RMS size of the density [Ang]:         1.213735
      Cartesian components [Ang]:        [  0.804033,   0.786572,   0.456057]
  
  Exciton analysis of the difference density matrix
    <r_h> [Ang]:                  [ -1.560935,  -0.066321,   0.004869]
    <r_e> [Ang]:                  [ -1.560906,  -0.065755,   0.006327]
    |<r_e - r_h>| [Ang]:            0.001564
    Hole size [Ang]:                1.290222
      Cartesian components [Ang]: [  0.734477,   0.720870,   0.778179]
    Electron size [Ang]:            1.462936
      Cartesian components [Ang]: [  0.853765,   0.830010,   0.849911]

  Transition density matrix analysis:
  -----------------------------------
  
  CT numbers (Mulliken)
    omega =     0.9529
    <Phe> =    -0.1580
  
  Exciton analysis of the transition density matrix
    Trans. dipole moment [D]:             1.811085
      Cartesian components [D]:         [ -1.313835,   1.246459,   0.014382]
    <r_h> [Ang]:                        [ -1.560604,  -0.066255,   0.003804]
    <r_e> [Ang]:                        [ -1.560838,  -0.065647,   0.007149]
    |<r_e - r_h>| [Ang]:                  0.003408
    Hole size [Ang]:                      1.221630
      Cartesian components [Ang]:       [  0.658790,   0.648817,   0.798381]
    Electron size [Ang]:                  1.484881
      Cartesian components [Ang]:       [  0.863685,   0.838495,   0.869395]
    RMS electron-hole separation [Ang]:   1.939957
      Cartesian components [Ang]:       [  1.110754,   1.081266,   1.166414]
    Covariance(r_h, r_e) [Ang^2]:        -0.033084
    Correlation coefficient:             -0.018238
    Center-of-mass size [Ang]:            0.952770
      Cartesian components [Ang]:       [  0.530598,   0.519360,   0.597078]

  Decomposition into state-averaged NTOs
    H- 0 -> L+ 0:  0.6646 ( 88.3%)
    H- 1 -> L+ 0: -0.0853 (  1.5%)
    H- 2 -> L+ 5:  0.0827 (  1.4%)
                   omega =  95.3%
  ----------------------------------------------------------------------------


  Excited state 2 (singlet, A)                                     [converged]
  ----------------------------------------------------------------------------
  Term symbol:  3 (1) A                                     R^2 =  2.72761e-13

  Total energy:                                            -77.9865623421 a.u.
  Excitation energy:                                               9.060367 eV

  Osc. strength:                                                      0.009934
  Trans. dip. moment [a.u.]:           [  -0.148424,    0.150601,    0.006363]
  <i|r^2|0> [a.u.]:                    [  -0.913397,   -0.051762,    0.127527]
  Two-photon absorption cross-section (SoS) [a.u.]:                   5.054727
  Two-photon absorption matrix (SoS) [a.u.]:
                                       |   -0.007964   -0.048878    0.554419 |
                                       |   -0.048878   -0.091408    0.559136 |
                                       |    0.554419    0.559136    0.102238 |
  Two-photon absorption cross-section [a.u.]:                         0.124604
  Two-photon absorption matrix [a.u.]:
                                       |    0.102773    0.010356   -0.048230 |
                                       |    0.010356   -0.092238   -0.059588 |
                                       |   -0.048230   -0.059588   -0.010614 |

  Dip. moment [a.u.]:                  [  -0.002281,    0.010121,   -0.023020]
  Total dipole [Debye]:                                               0.064179
  <r^2> [a.u.]:                        [ 174.560933,   34.037608,   13.127085]
  Total <r^2> [a.u.]:                                               221.725626

  V1^2 = 0.9546, V2^2 = 0.0454

  Important amplitudes:
      occ i     occ j     vir a      vir b          v   
    -----------------------------------------------------
     7 (A) A              9 (A) A                 0.6631
     8 (A) A             11 (A) A                 0.1494
     8 (A) A              9 (A) A                -0.0870
     7 (A) A             20 (A) A                 0.0751
     5 (A) A   8 (A) B    9 (A) A    9 (A) B     -0.0313
     8 (A) A             16 (A) A                -0.0277
     8 (A) A             21 (A) A                 0.0178
     5 (A) A             28 (A) A                 0.0140
     4 (A) A   7 (A) B    9 (A) A   19 (A) B     -0.0134
     5 (A) A   7 (A) B    9 (A) A   16 (A) B      0.0132
     7 (A) A   8 (A) B   20 (A) A   17 (A) B     -0.0104
     5 (A) A   8 (A) B    9 (A) A   20 (A) B     -0.0095
     6 (A) A             14 (A) A                 0.0092
     4 (A) A   6 (A) B    9 (A) A   16 (A) B      0.0090
     5 (A) A   6 (A) A    9 (A) A   23 (A) A     -0.0090
     7 (A) A   8 (A) A    9 (A) A   28 (A) A     -0.0088
     4 (A) A             10 (A) A                 0.0088
     5 (A) A   6 (A) A    9 (A) A   14 (A) A     -0.0088
     5 (A) A   6 (A) B    9 (A) A   19 (A) B     -0.0086
     4 (A) A   5 (A) A    9 (A) A   10 (A) A      0.0084
     6 (A) A   7 (A) B    9 (A) A   18 (A) B     -0.0082
     7 (A) A             16 (A) A                -0.0080
     5 (A) A   6 (A) B    9 (A) A   23 (A) B     -0.0079
     3 (A) A   7 (A) B    9 (A) A   18 (A) B      0.0079
     8 (A) A             10 (A) A                -0.0078
     5 (A) A   7 (A) A    9 (A) A   16 (A) A      0.0078
     8 (A) A   7 (A) B    9 (A) A   28 (A) B      0.0077
     5 (A) A             13 (A) A                 0.0077
     4 (A) A   8 (A) B    9 (A) A   25 (A) B      0.0076
     7 (A) A   8 (A) B   17 (A) A   20 (A) B     -0.0074
     4 (A) A   7 (A) B   19 (A) A    9 (A) B     -0.0073
     7 (A) A   8 (A) B   19 (A) A   18 (A) B      0.0071
     5 (A) A   5 (A) B    9 (A) A   13 (A) B     -0.0071
     6 (A) A             23 (A) A                 0.0069
     5 (A) A   8 (A) A    9 (A) A   20 (A) A     -0.0068
     4 (A) A   5 (A) B    9 (A) A   18 (A) B     -0.0067
     7 (A) A   7 (A) B   20 (A) A   22 (A) B     -0.0065
     7 (A) A   8 (A) B   17 (A) A    9 (A) B     -0.0064
     5 (A) A   6 (A) B    9 (A) A   14 (A) B     -0.0063
     8 (A) A             12 (A) A                 0.0062
    -----------------------------------------------------

  Density matrix analysis:
  ------------------------
  NOs
    Occupation of frontier NOs:
       0.9566   1.0539
    Number of electrons: 16.000000
    Number of unpaired electrons: n_u =  2.35431, n_u,nl =  2.06247
    NO participation ratio (PR_NO):  3.029750
  
  
  Mulliken Population Analysis
  Atom      Charge (e)              h+              e-           Del q
  --------------------------------------------------------------------
   1 H        0.147489        0.119798       -0.023276        0.096522
   2 C       -0.296913        0.274284       -0.470246       -0.195962
   3 H        0.148603        0.124057       -0.026017        0.098040
   4 C       -0.296476        0.276278       -0.472119       -0.195841
   5 H        0.150712        0.124603       -0.023523        0.101080
   6 H        0.146585        0.121614       -0.025453        0.096161
  --------------------------------------------------------------------
  Sum:       -0.000000        1.040634       -1.040634        0.000000
  
  Multipole moment analysis of the density matrix
    Molecular charge:                      -0.000000
    Number of electrons:                   16.000000
      Center of electronic charge [Ang]: [ -1.560501,  -0.065937,   0.000240]
    Total nuclear charge:                  16.000000
      Center of nuclear charge [Ang]:    [ -1.560576,  -0.065602,  -0.000522]
    Dipole moment [D]:                     0.064179
      Cartesian components [D]:          [ -0.005799,   0.025726,  -0.058511]
    RMS size of the density [Ang]:         1.200451
      Cartesian components [Ang]:        [  0.787378,   0.769007,   0.479320]
  
  Exciton analysis of the difference density matrix
    <r_h> [Ang]:                  [ -1.565061,  -0.063913,  -0.001775]
    <r_e> [Ang]:                  [ -1.564002,  -0.068395,   0.004668]
    |<r_e - r_h>| [Ang]:            0.007919
    Hole size [Ang]:                1.482216
      Cartesian components [Ang]: [  0.996407,   0.994183,   0.464475]
    Electron size [Ang]:            1.479345
      Cartesian components [Ang]: [  0.882262,   0.860681,   0.818111]

  Transition density matrix analysis:
  -----------------------------------
  
  CT numbers (Mulliken)
    omega =     0.9224
    <Phe> =    -0.0149
  
  Exciton analysis of the transition density matrix
    Trans. dipole moment [D]:             0.268845
      Cartesian components [D]:         [ -0.188628,   0.191395,   0.008086]
    <r_h> [Ang]:                        [ -1.565722,  -0.063449,  -0.003133]
    <r_e> [Ang]:                        [ -1.563659,  -0.068970,   0.006180]
    |<r_e - r_h>| [Ang]:                  0.011022
    Hole size [Ang]:                      1.508195
      Cartesian components [Ang]:       [  1.017252,   1.016193,   0.455197]
    Electron size [Ang]:                  1.476975
      Cartesian components [Ang]:       [  0.873728,   0.850953,   0.833028]
    RMS electron-hole separation [Ang]:   2.091803
      Cartesian components [Ang]:       [  1.325845,   1.311004,   0.948178]
    Covariance(r_h, r_e) [Ang^2]:         0.040296
    Correlation coefficient:              0.018090
    Center-of-mass size [Ang]:            1.064976
      Cartesian components [Ang]:       [  0.677964,   0.669857,   0.475217]

  Decomposition into state-averaged NTOs
    H- 1 -> L+ 0:  0.6559 ( 86.0%)
    H- 0 -> L+ 2:  0.1498 (  4.5%)
    H- 0 -> L+ 0:  0.0820 (  1.3%)
                   omega =  92.2%
  ----------------------------------------------------------------------------


  Excited state 3 (singlet, A)                                     [converged]
  ----------------------------------------------------------------------------
  Term symbol:  4 (1) A                                     R^2 =  1.33993e-13

  Total energy:                                            -77.9824356720 a.u.
  Excitation energy:                                               9.172660 eV

  Osc. strength:                                                      0.025354
  Trans. dip. moment [a.u.]:           [   0.027573,    0.003965,   -0.334733]
  <i|r^2|0> [a.u.]:                    [   0.087964,    0.090232,   -0.003289]
  Two-photon absorption cross-section (SoS) [a.u.]:                   2.480746
  Two-photon absorption matrix (SoS) [a.u.]:
                                       |   -0.555551   -0.026068   -0.040853 |
                                       |   -0.026068    0.538115    0.013452 |
                                       |   -0.040853    0.013452   -0.100085 |
  Two-photon absorption cross-section [a.u.]:                         1.344256
  Two-photon absorption matrix [a.u.]:
                                       |   -0.438295   -0.003931   -0.039441 |
                                       |   -0.003931    0.354918    0.008906 |
                                       |   -0.039441    0.008906   -0.063043 |

  Dip. moment [a.u.]:                  [   0.006868,    0.031370,    0.015854]
  Total dipole [Debye]:                                               0.091028
  <r^2> [a.u.]:                        [ 180.909987,   40.612877,   11.004622]
  Total <r^2> [a.u.]:                                               232.527485

  V1^2 = 0.9588, V2^2 = 0.0412

  Important amplitudes:
      occ i     occ j     vir a      vir b          v   
    -----------------------------------------------------
     8 (A) A             10 (A) A                 0.6890
     8 (A) A             24 (A) A                 0.0507
     8 (A) A             18 (A) A                -0.0312
     4 (A) A              9 (A) A                -0.0237
     8 (A) A   8 (A) B    9 (A) A   12 (A) B      0.0219
     8 (A) A   8 (A) B   10 (A) A   17 (A) B      0.0173
     8 (A) A             15 (A) A                 0.0168
     5 (A) A   8 (A) B   11 (A) A   10 (A) B      0.0165
     7 (A) A   8 (A) B   13 (A) A   10 (A) B     -0.0141
     4 (A) A   8 (A) B   12 (A) A   10 (A) B     -0.0111
     6 (A) A   8 (A) A   10 (A) A   15 (A) A     -0.0110
     7 (A) A   8 (A) B   22 (A) A   10 (A) B      0.0108
     6 (A) A   8 (A) B   15 (A) A   10 (A) B      0.0108
     4 (A) A   8 (A) A   10 (A) A   12 (A) A      0.0106
     7 (A) A   8 (A) A   10 (A) A   22 (A) A     -0.0099
     7 (A) A   8 (A) A   10 (A) A   13 (A) A      0.0097
     5 (A) A   8 (A) B   21 (A) A   10 (A) B      0.0094
     5 (A) A   8 (A) A   10 (A) A   11 (A) A     -0.0094
     7 (A) A              9 (A) A                 0.0088
     6 (A) A   8 (A) A   10 (A) A   18 (A) A     -0.0088
     6 (A) A   8 (A) B   10 (A) A   10 (A) B     -0.0087
     7 (A) A   8 (A) A   12 (A) A   16 (A) A      0.0081
     5 (A) A   8 (A) A   10 (A) A   21 (A) A     -0.0080
     3 (A) A   4 (A) B   10 (A) A    9 (A) B      0.0079
     4 (A) A   8 (A) B   19 (A) A   10 (A) B      0.0075
     8 (A) A   8 (A) B    9 (A) A   23 (A) B      0.0075
     3 (A) A   8 (A) B   10 (A) A   10 (A) B      0.0072
     5 (A) A   8 (A) B   10 (A) A   11 (A) B      0.0071
     3 (A) A   8 (A) A   10 (A) A   24 (A) A     -0.0071
     7 (A) A   8 (A) B   16 (A) A   12 (A) B     -0.0070
     3 (A) A   8 (A) B   10 (A) A   18 (A) B     -0.0069
     8 (A) A   8 (A) B    9 (A) A   19 (A) B     -0.0068
     8 (A) A   8 (A) B   10 (A) A   28 (A) B      0.0068
     6 (A) A   8 (A) B   18 (A) A   10 (A) B      0.0066
     3 (A) A   6 (A) B   10 (A) A   28 (A) B      0.0058
     7 (A) A   8 (A) B   12 (A) A   11 (A) B      0.0057
     3 (A) A   5 (A) B   10 (A) A   25 (A) B     -0.0056
     5 (A) A   8 (A) A   10 (A) A   16 (A) A      0.0056
     3 (A) A   8 (A) A   10 (A) A   18 (A) A     -0.0056
     4 (A) A   8 (A) A   10 (A) A   23 (A) A      0.0055
    -----------------------------------------------------

  Density matrix analysis:
  ------------------------
  NOs
    Occupation of frontier NOs:
       0.9816   0.9849
    Number of electrons: 16.000000
    Number of unpaired electrons: n_u =  2.28548, n_u,nl =  2.02445
    NO participation ratio (PR_NO):  2.692347
  
  
  Mulliken Population Analysis
  Atom      Charge (e)              h+              e-           Del q
  --------------------------------------------------------------------
   1 H       -0.161765        0.053975       -0.266707       -0.212732
   2 C        0.328325        0.539240       -0.109963        0.429276
   3 H       -0.169387        0.053685       -0.273635       -0.219950
   4 C        0.327624        0.536748       -0.108489        0.428259
   5 H       -0.160010        0.054064       -0.263707       -0.209643
   6 H       -0.164787        0.053921       -0.269132       -0.215211
  --------------------------------------------------------------------
  Sum:       -0.000000        1.291633       -1.291633        0.000000
  
  Multipole moment analysis of the density matrix
    Molecular charge:                      -0.000000
    Number of electrons:                   16.000000
      Center of electronic charge [Ang]: [ -1.560803,  -0.066640,  -0.001046]
    Total nuclear charge:                  16.000000
      Center of nuclear charge [Ang]:    [ -1.560576,  -0.065602,  -0.000522]
    Dipole moment [D]:                     0.091028
      Cartesian components [D]:          [  0.017457,   0.079735,   0.040296]
    RMS size of the density [Ang]:         1.276361
      Cartesian components [Ang]:        [  0.854482,   0.840450,   0.438861]
  
  Exciton analysis of the difference density matrix
    <r_h> [Ang]:                  [ -1.559924,  -0.066671,   0.002678]
    <r_e> [Ang]:                  [ -1.562819,  -0.078987,  -0.008058]
    |<r_e - r_h>| [Ang]:            0.016593
    Hole size [Ang]:                1.410389
      Cartesian components [Ang]: [  0.834229,   0.819775,   0.788180]
    Electron size [Ang]:            2.076329
      Cartesian components [Ang]: [  1.374025,   1.377221,   0.725574]

  Transition density matrix analysis:
  -----------------------------------
  
  CT numbers (Mulliken)
    omega =     0.9260
    <Phe> =    -0.0109
  
  Exciton analysis of the transition density matrix
    Trans. dipole moment [D]:             0.426873
      Cartesian components [D]:         [  0.035041,   0.005038,  -0.425403]
    <r_h> [Ang]:                        [ -1.559692,  -0.065596,   0.005573]
    <r_e> [Ang]:                        [ -1.563508,  -0.083560,  -0.010957]
    |<r_e - r_h>| [Ang]:                  0.024708
    Hole size [Ang]:                      1.213247
      Cartesian components [Ang]:       [  0.636855,   0.623516,   0.823172]
    Electron size [Ang]:                  2.296533
      Cartesian components [Ang]:       [  1.518654,   1.524603,   0.802084]
    RMS electron-hole separation [Ang]:   2.587483
      Cartesian components [Ang]:       [  1.639269,   1.640250,   1.147802]
    Covariance(r_h, r_e) [Ang^2]:         0.025787
    Correlation coefficient:              0.009255
    Center-of-mass size [Ang]:            1.303611
      Cartesian components [Ang]:       [  0.827134,   0.827085,   0.575484]

  Decomposition into state-averaged NTOs
    H- 0 -> L+ 1: -0.6797 ( 92.4%)
                   omega =  92.6%
  ----------------------------------------------------------------------------


  Excited state 4 (singlet, A)                                     [converged]
  ----------------------------------------------------------------------------
  Term symbol:  5 (1) A                                     R^2 =  3.36291e-13

  Total energy:                                            -77.9580196782 a.u.
  Excitation energy:                                               9.837053 eV

  Osc. strength:                                                      0.001651
  Trans. dip. moment [a.u.]:           [  -0.059506,    0.057350,    0.004532]
  <i|r^2|0> [a.u.]:                    [  -0.337706,    0.032075,   -0.031314]
  Two-photon absorption cross-section (SoS) [a.u.]:                 149.800962
  Two-photon absorption matrix (SoS) [a.u.]:
                                       |    0.146255    0.276578   -3.045850 |
                                       |    0.276578    0.406065   -3.020413 |
                                       |   -3.045850   -3.020413   -0.557464 |
  Two-photon absorption cross-section [a.u.]:                        92.233579
  Two-photon absorption matrix [a.u.]:
                                       |    0.043231    0.211858   -2.390633 |
                                       |    0.211858    0.388098   -2.365890 |
                                       |   -2.390633   -2.365890   -0.437043 |

  Dip. moment [a.u.]:                  [  -0.031982,   -0.020635,    0.012176]
  Total dipole [Debye]:                                               0.101572
  <r^2> [a.u.]:                        [ 181.192839,   40.442150,   10.742577]
  Total <r^2> [a.u.]:                                               232.377566

  V1^2 = 0.9635, V2^2 = 0.0365

  Important amplitudes:
      occ i     occ j     vir a      vir b          v   
    -----------------------------------------------------
     8 (A) A             11 (A) A                -0.6693
     7 (A) A              9 (A) A                 0.1508
     8 (A) A             21 (A) A                -0.0780
     8 (A) A             16 (A) A                 0.0643
     8 (A) A   8 (A) B    9 (A) A   13 (A) B      0.0166
     5 (A) A   8 (A) B   11 (A) A   11 (A) B     -0.0155
     8 (A) A             12 (A) A                -0.0145
     8 (A) A              9 (A) A                -0.0145
     8 (A) A   8 (A) B   11 (A) A   17 (A) B     -0.0140
     7 (A) A             20 (A) A                 0.0138
     7 (A) A   8 (A) B   13 (A) A   11 (A) B      0.0127
     5 (A) A   8 (A) A   11 (A) A   21 (A) A      0.0110
     4 (A) A   8 (A) B   12 (A) A   11 (A) B      0.0110
     8 (A) A   8 (A) B    9 (A) A   22 (A) B     -0.0107
     7 (A) A   8 (A) A   11 (A) A   22 (A) A      0.0096
     6 (A) A   8 (A) B   15 (A) A   11 (A) B     -0.0090
     6 (A) A   8 (A) B   10 (A) A   11 (A) B      0.0090
     7 (A) A   8 (A) B   22 (A) A   11 (A) B     -0.0089
     3 (A) A   4 (A) B   11 (A) A    9 (A) B     -0.0083
     3 (A) A   8 (A) B   11 (A) A   18 (A) B      0.0081
     6 (A) A   8 (A) A   11 (A) A   15 (A) A      0.0080
     6 (A) A              9 (A) A                -0.0080
     7 (A) A   8 (A) A   13 (A) A   16 (A) A      0.0078
     7 (A) A   8 (A) A   11 (A) A   13 (A) A     -0.0077
     5 (A) A   8 (A) B   21 (A) A   11 (A) B     -0.0071
     4 (A) A   8 (A) B   19 (A) A   11 (A) B     -0.0070
     5 (A) A   8 (A) B    9 (A) A    9 (A) B     -0.0068
     4 (A) A   8 (A) A   11 (A) A   12 (A) A     -0.0062
     6 (A) A   8 (A) A   11 (A) A   18 (A) A      0.0062
     6 (A) A   8 (A) B   18 (A) A   11 (A) B     -0.0060
     7 (A) A   8 (A) B   16 (A) A   13 (A) B     -0.0057
     3 (A) A   6 (A) B   11 (A) A   28 (A) B     -0.0056
     3 (A) A   8 (A) A   11 (A) A   18 (A) A      0.0056
     5 (A) A   8 (A) B   10 (A) A   10 (A) B     -0.0056
     3 (A) A   8 (A) B   11 (A) A   30 (A) B      0.0055
     3 (A) A   5 (A) B   11 (A) A   25 (A) B      0.0054
     6 (A) A   8 (A) B   11 (A) A   10 (A) B      0.0054
     7 (A) A   8 (A) B   12 (A) A   10 (A) B     -0.0054
     8 (A) A   8 (A) B   20 (A) A   22 (A) B     -0.0053
     3 (A) A   8 (A) A   11 (A) A   24 (A) A      0.0053
    -----------------------------------------------------

  Density matrix analysis:
  ------------------------
  NOs
    Occupation of frontier NOs:
       0.9403   1.0282
    Number of electrons: 16.000000
    Number of unpaired electrons: n_u =  2.31908, n_u,nl =  2.04933
    NO participation ratio (PR_NO):  2.916617
  
  
  Mulliken Population Analysis
  Atom      Charge (e)              h+              e-           Del q
  --------------------------------------------------------------------
   1 H       -0.153049        0.045792       -0.249808       -0.204015
   2 C        0.274614        0.497164       -0.121599        0.375565
   3 H       -0.122692        0.046978       -0.220233       -0.173255
   4 C        0.273368        0.496326       -0.122324        0.374003
   5 H       -0.130884        0.047174       -0.227690       -0.180516
   6 H       -0.141357        0.045829       -0.237610       -0.191782
  --------------------------------------------------------------------
  Sum:       -0.000000        1.179264       -1.179264        0.000000
  
  Multipole moment analysis of the density matrix
    Molecular charge:                      -0.000000
    Number of electrons:                   16.000000
      Center of electronic charge [Ang]: [ -1.559518,  -0.064920,  -0.000925]
    Total nuclear charge:                  16.000000
      Center of nuclear charge [Ang]:    [ -1.560576,  -0.065602,  -0.000522]
    Dipole moment [D]:                     0.101572
      Cartesian components [D]:          [ -0.081291,  -0.052449,   0.030948]
    RMS size of the density [Ang]:         1.276992
      Cartesian components [Ang]:        [  0.859709,   0.838806,   0.433605]
  
  Exciton analysis of the difference density matrix
    <r_h> [Ang]:                  [ -1.559601,  -0.065241,   0.003231]
    <r_e> [Ang]:                  [ -1.545339,  -0.055395,  -0.006877]
    |<r_e - r_h>| [Ang]:            0.020064
    Hole size [Ang]:                1.395011
      Cartesian components [Ang]: [  0.818744,   0.806637,   0.790602]
    Electron size [Ang]:            2.123916
      Cartesian components [Ang]: [  1.448200,   1.398099,   0.677535]

  Transition density matrix analysis:
  -----------------------------------
  
  CT numbers (Mulliken)
    omega =     0.9298
    <Phe> =    -0.0137
  
  Exciton analysis of the transition density matrix
    Trans. dipole moment [D]:             0.105188
      Cartesian components [D]:         [ -0.075625,   0.072885,   0.005760]
    <r_h> [Ang]:                        [ -1.560647,  -0.065765,   0.005070]
    <r_e> [Ang]:                        [ -1.542593,  -0.053373,  -0.008178]
    |<r_e - r_h>| [Ang]:                  0.025593
    Hole size [Ang]:                      1.228196
      Cartesian components [Ang]:       [  0.658144,   0.650301,   0.807726]
    Electron size [Ang]:                  2.261632
      Cartesian components [Ang]:       [  1.543072,   1.488630,   0.719643]
    RMS electron-hole separation [Ang]:   2.562937
      Cartesian components [Ang]:       [  1.669027,   1.616641,   1.081419]
    Covariance(r_h, r_e) [Ang^2]:         0.027727
    Correlation coefficient:              0.009982
    Center-of-mass size [Ang]:            1.292178
      Cartesian components [Ang]:       [  0.843078,   0.816157,   0.541138]

  Decomposition into state-averaged NTOs
    H- 0 -> L+ 2: -0.6646 ( 88.3%)
    H- 1 -> L+ 0:  0.1488 (  4.4%)
                   omega =  93.0%
  ----------------------------------------------------------------------------


  Excited state 5 (singlet, A)                                     [converged]
  ----------------------------------------------------------------------------
  Term symbol:  6 (1) A                                     R^2 =  3.76813e-13

  Total energy:                                            -77.9441910379 a.u.
  Excitation energy:                                              10.213349 eV

  Osc. strength:                                                      0.000035
  Trans. dip. moment [a.u.]:           [   0.006820,    0.009509,    0.001389]
  <i|r^2|0> [a.u.]:                    [  -0.037225,    0.088086,   -0.001499]
  Two-photon absorption cross-section (SoS) [a.u.]:                 178.907168
  Two-photon absorption matrix (SoS) [a.u.]:
                                       |   -0.189030   -0.064336    3.338729 |
                                       |   -0.064336    0.412240   -3.331576 |
                                       |    3.338729   -3.331576   -0.028110 |
[...]
    16   -1.864671243320e-03
    17   -1.664806524729e-03
    18   -1.310428485184e-04
    19   -3.351909510448e-03
    20    1.107637425792e-02
    21    9.397620835297e-01
    22   -2.308417764107e-04
    23    1.404442975965e-02
    24    7.633822871794e-04
    25    7.004147839383e-02
    26   -5.194729289019e-02
    27   -1.398125104133e+00
    28    9.804142622837e-02
    29   -9.208306899811e-02
    30    5.098418540255e-03
    31    3.852806050797e-01
    32   -3.618320735229e-01
    33    2.058862561826e-02
    34    1.575855229160e-02
    35   -1.548192522486e-03
    36   -5.487110421654e-04
    37    7.830198483329e-05
    38   -3.139313981622e-03
    39    9.365606088026e-03
    40    9.292530199208e-01
    41    2.199139772544e-04
    42   -1.395693230592e-02
    43   -2.025571035746e-04
    44    9.923173713208e-03
    45    9.410452374955e-01
    46    1.412522448523e-02
    47    4.168896861610e-04
    48    7.641655053471e-04
Sym=X
Ene= 0.233070
Spin=Alpha
Occup=0
     1    2.623349070481e-02
     2    1.249521102361e+00
     3   -1.455224392731e-02
     4   -3.906548911915e-03
     5   -1.181944569185e-03
     6    4.167960592498e-03
     7   -4.497072441317e-03
     8   -6.914340066877e-02
     9   -1.556731569560e-01
    10   -1.576861561293e-01
    11   -1.948398578390e-02
    12   -5.603699102873e-01
    13   -5.550046040305e-01
    14   -7.226664024485e-02
    15    7.944048266180e-04
    16   -5.360173026574e-04
    17   -6.988401302499e-05
    18   -2.410751265778e-04
    19   -4.908145977546e-04
    20   -2.475296826224e-02
    21   -1.147236595407e+00
    22   -2.390878103244e-03
    23   -1.335877395375e-02
    24   -9.620476606502e-04
    25   -3.526788162763e-03
    26    4.002531658123e-03
    27    5.143132225830e-02
    28   -1.544222153985e-01
    29   -1.586447057348e-01
    30   -9.378790407750e-03
    31   -5.492395388399e-01
    32   -5.546746402569e-01
    33   -2.981334264183e-02
    34   -5.581275243099e-04
    35    3.155471381449e-04
    36    7.638102556532e-04
    37    4.086331364445e-04
    38    3.834799495738e-04
    39    2.457940630491e-02
    40    1.149978189944e+00
    41   -2.402524525630e-03
    42   -1.357154760519e-02
    43   -3.729494517594e-04
    44   -2.656468358527e-02
    45   -1.229721662054e+00
    46   -1.435865136279e-02
    47   -3.840612669773e-03
    48   -6.391265982434e-04
Sym=X
Ene= 0.239459
Spin=Alpha
Occup=0
     1   -1.588675161870e-02
     2   -1.036211761292e+00
     3    1.634318706502e-02
     4    9.072331333718e-03
     5    1.087385733050e-03
     6   -8.631561054018e-02
     7    7.953162181692e-02
     8    1.589671472312e+00
     9    5.147685738017e-02
    10   -6.208891379146e-02
    11   -3.467885720888e-03
    12    2.050705758310e-01
    13   -2.403479479446e-01
    14   -1.586073587068e-02
    15   -2.252873786053e-02
    16    2.115589681423e-03
    17    3.052490476093e-03
    18   -5.376683042493e-04
    19    1.284948306308e-02
    20   -1.710353317689e-02
    21   -1.135311024760e+00
    22   -8.556149455809e-03
    23   -1.789352512463e-02
    24   -1.483855407655e-03
    25    8.645443338195e-02
    26   -7.918269735191e-02
    27   -1.600052539487e+00
    28    5.167732687947e-02
    29   -6.303965911129e-02
    30    5.422450238964e-03
    31    2.050049740589e-01
    32   -2.493884797682e-01
    33    2.144664155189e-02
    34    2.281185378627e-02
    35   -2.523450244478e-03
    36   -1.828082630358e-03
    37    8.667300523157e-04
    38   -1.283555770679e-02
    39    1.671634995400e-02
    40    1.147589023122e+00
    41   -8.691103609242e-03
    42   -1.821123165751e-02
    43   -7.039015994498e-04
    44    1.511995998290e-02
    45    1.036690234795e+00
    46    1.629060573151e-02
    47    9.288199899502e-03
    48    1.488710225106e-03
Sym=X
Ene= 0.303285
Spin=Alpha
Occup=0
     1   -2.066583928890e-02
     2    1.689546893310e+00
     3   -2.288579420589e-02
     4    2.809354895903e-04
     5   -9.538148072085e-04
     6   -2.612707455320e-04
     7    2.351380487333e-04
     8    3.808869916256e-03
     9   -1.336595510241e-01
    10   -1.393923919010e-01
    11   -1.553714959801e-02
    12   -1.144187447058e+00
    13   -1.193146289994e+00
    14   -1.173541696994e-01
    15   -1.184094035175e-04
    16   -1.184596341765e-03
    17    2.141442083787e-03
    18   -3.264746985910e-02
    19   -1.603498425428e-03
    20    1.999187372599e-02
    21   -1.689058246071e+00
    22    1.432829049546e-03
    23   -2.289099593448e-02
    24   -1.509527905477e-03
    25    1.117569739048e-04
    26    2.540533060889e-04
    27   -6.564429587270e-03
    28    1.350296032108e-01
    29    1.406229054041e-01
    30    9.618550031233e-03
    31    1.140645105320e+00
    32    1.200584295585e+00
    33    9.719173296651e-02
    34   -1.473166112672e-04
    35   -2.338185315090e-03
    36    3.096546052998e-04
    37   -3.258073457828e-02
    38   -1.552932466635e-03
    39    1.976647063689e-02
    40   -1.696657818982e+00
    41   -1.624364337893e-03
    42    2.287307246250e-02
    43    6.222443174172e-04
    44   -1.992402797406e-02
    45    1.700040565690e+00
    46    2.306972935279e-02
    47   -4.041372680501e-04
    48    9.531483189226e-04
Sym=X
Ene= 0.462135
Spin=Alpha
Occup=0
     1   -1.160215693431e-01
     2   -7.144998338276e-01
     3   -1.567789117895e-02
     4   -1.034365431476e-02
     5   -1.565078559353e-03
     6    6.083882342731e-02
     7    1.722974154890e-02
     8   -3.592915503601e+00
     9    1.028299370746e-01
    10   -9.909243227113e-02
    11    4.048722198227e-04
    12    2.427934752332e+00
    13   -2.303622728268e+00
    14   -2.986007592255e-02
    15    5.365837540503e-02
    16   -4.509739227795e-03
    17   -4.321092744046e-03
    18   -7.702477635137e-04
    19    1.798492149463e-02
    20   -1.213013541832e-01
    21   -7.027343936633e-01
    22    8.747904401075e-03
    23    1.635117396601e-02
    24    1.464042649539e-03
    25   -6.097347643787e-02
    26   -1.607326825830e-02
    27    3.590435974703e+00
    28    1.051024718930e-01
    29   -1.006639020766e-01
    30    5.575661473981e-03
    31    2.422254818985e+00
    32   -2.301077055205e+00
    33   -6.511135891566e-03
    34   -5.275602009550e-02
    35    2.034118272822e-03
    36    2.710472766348e-03
    37    6.886752526484e-04
    38   -1.897459289873e-02
    39    1.139303954042e-01
    40    7.138951269781e-01
    41    8.592606053837e-03
    42    1.623180620456e-02
    43    9.764192631311e-04
    44    1.102820299585e-01
    45    7.178074516057e-01
    46   -1.547515470397e-02
    47   -9.889233175995e-03
    48   -6.612962884916e-04
Sym=X
Ene= 0.577564
Spin=Alpha
Occup=0
     1    2.468928423003e-01
     2    3.974725598702e-02
     3   -1.848821099713e-02
     4    2.568764487495e-02
     5    5.763116772618e-04
     6   -4.389440775896e-03
     7   -1.574562538627e-01
     8   -4.700898395186e-01
     9    2.991164759256e-01
    10   -2.882301903439e-01
    11   -2.074369542329e-03
    12   -7.168537832805e-01
    13    6.942829255952e-01
    14    6.364634051151e-04
    15   -5.839088451698e-03
    16    3.138439470231e-03
    17    3.489808686870e-03
    18   -4.225240847196e-03
    19    6.024109753399e-02
    20    2.549299412201e-01
    21    2.867297517687e-02
    22   -2.638944498777e-02
    23    1.653246854720e-02
    24   -3.100803054368e-04
    25   -5.731566531683e-03
    26   -1.580847899801e-01
    27   -4.072594601452e-01
    28   -2.974601990450e-01
    29    2.850969828393e-01
    30    2.807047257698e-03
    31    7.647504940716e-01
    32   -7.378235112976e-01
    33    4.496796335092e-03
    34   -5.768162494882e-03
    35    3.090024007172e-03
    36    3.237241104223e-03
    37   -3.684682826246e-03
    38    6.020376200930e-02
    39    2.502675682982e-01
    40    5.408142127589e-02
    41    2.705477250177e-02
    42   -1.692848632379e-02
    43    6.896353001498e-04
    44    2.485719700326e-01
    45    5.691894628550e-02
    46    1.847406948238e-02
    47   -2.592328533593e-02
    48    1.374266419821e-05
Sym=X
Ene= 0.615101
Spin=Alpha
Occup=0
     1   -5.215806282147e-01
     2    2.010119631883e-01
     3   -6.133058845477e-02
     4    3.764671528236e-02
     5   -1.256530839559e-04
     6   -5.914558867562e-04
     7    3.502410384484e-04
     8   -1.470095106097e-02
     9   -4.049654097673e-02
    10   -3.849949630849e-02
    11   -2.030960617567e-03
    12    3.017109711478e-01
    13    2.791594306458e-01
    14    3.924942850499e-02
    15    1.823175066585e-03
    16   -6.125416061926e-03
    17    8.032764777356e-03
    18   -1.479192246613e-01
    19   -6.459605340953e-03
    20    5.083125891644e-01
    21   -2.045796659082e-01
    22    4.175841946512e-02
    23   -5.849901735993e-02
    24   -1.035163050160e-03
    25    4.554770222984e-04
    26   -1.564329798425e-03
    27    2.523920097515e-02
    28   -4.033218984494e-02
    29   -4.120244735708e-02
    30   -5.094174565676e-03
    31    3.046775369663e-01
    32    2.962366615600e-01
    33    1.444144555560e-02
    34   -1.271604165861e-03
    35    9.460516398350e-03
    36   -3.568964707878e-03
    37    1.490842911577e-01
    38    6.319144170791e-03
    39   -5.137281454156e-01
    40    2.017912969563e-01
    41    4.075305947553e-02
    42   -5.846496289031e-02
    43   -4.501623483269e-04
    44    5.229875700936e-01
    45   -2.045477830390e-01
    46   -6.145034533413e-02
    47    3.753775997084e-02
    48   -2.139035227255e-03
Sym=X
Ene= 0.689184
Spin=Alpha
Occup=0
     1   -9.272849969953e-03
     2   -7.400436224975e-03
     3   -1.912025078408e-04
     4    7.715826699020e-04
     5   -2.109792014065e-02
     6   -6.927265655004e-04
     7   -6.305868719230e-03
     8   -1.876894286304e-03
     9    3.694098629564e-02
    10    3.551605581476e-02
    11   -6.703614425206e-01
    12   -2.198626183738e-02
    13   -4.835334020724e-02
    14    6.133057341507e-01
    15    1.687667951683e-03
    16    8.238771753799e-02
    17   -7.889087956390e-02
    18   -5.381704450354e-03
    19   -3.068079387770e-03
    20   -1.148996763593e-02
    21    2.879062033857e-03
    22    2.900902506851e-03
    23    3.256252959750e-03
    24   -2.071735853138e-02
    25   -1.889885142928e-04
    26   -1.118462842610e-02
    27    1.260757985518e-02
    28    2.265322211703e-02
    29    2.773242930651e-02
    30   -6.708076845819e-01
    31   -4.281764927530e-03
    32   -3.640071832754e-02
    33    6.142387829635e-01
    34    4.094349365455e-03
    35   -8.295278055719e-02
    36    7.828402199908e-02
    37    9.258709078096e-03
    38    1.132124745817e-03
    39   -3.140692394901e-03
    40    1.761322789728e-02
    41    1.117021975460e-04
    42   -2.347161474417e-03
    43   -2.156713814379e-02
    44   -8.595570097781e-04
    45    7.357948817787e-03
    46    3.154348448455e-03
    47    1.530290758229e-04
    48   -2.098738290874e-02
Sym=X
Ene= 0.709280
Spin=Alpha
Occup=0
     1   -4.790453062293e-01
     2    1.618643611373e-01
     3   -8.131145046497e-02
     4   -4.439119104965e-02
     5   -5.465937236364e-03
     6   -4.827194864815e-02
     7   -3.192446291127e-01
     8    5.182509353711e-01
     9    2.022477539471e-01
    10   -1.923517883370e-01
    11    9.740605402508e-03
    12   -1.013096909216e-01
    13    8.576062165963e-02
    14   -1.987406242182e-03
    15    1.951482351215e-01
    16   -2.008656744547e-02
    17   -2.237102937689e-02
    18    2.962441726104e-03
    19   -7.779846811638e-02
    20   -4.799308365345e-01
    21    1.529443495556e-01
    22    4.113456684344e-02
    23    8.200137503810e-02
    24    7.479473881735e-03
    25   -4.634667511740e-02
    26   -3.224117861445e-01
    27    4.590833258250e-01
    28   -2.053138406972e-01
    29    1.907498479390e-01
    30    1.080235544624e-02
    31    6.178773404552e-02
    32   -4.188356552780e-02
    33   -2.210525005661e-02
    34    1.938226475339e-01
    35   -1.608168014272e-02
    36   -1.766865961752e-02
    37    2.607600755001e-03
    38   -7.589995082465e-02
    39   -4.698841209253e-01
    40    1.265515094946e-01
    41   -4.064995502055e-02
    42   -8.077560616837e-02
    43   -4.990885800243e-03
    44   -4.720105740380e-01
    45    1.438714896984e-01
    46    8.016724534979e-02
    47    4.423027882449e-02
    48    4.718316757671e-03
Sym=X
Ene= 0.784878
Spin=Alpha
Occup=0
     1    5.236611797086e-01
     2   -4.676233219916e-01
     3    1.099643387729e-01
     4    2.589223741306e-02
     5    6.719595336766e-03
     6    9.070043660146e-02
     7   -2.178915773760e-01
     8   -6.344283510015e-01
     9    1.122281362155e-01
    10   -1.060708384872e-01
    11   -2.036041620591e-02
    12    3.129471812403e-01
    13   -2.921768291996e-01
    14    3.339722996803e-02
    15   -2.051910153169e-01
    16    1.821857033294e-02
    17    2.295705691041e-02
    18   -8.353414480925e-04
    19    8.525661973992e-03
    20    5.342021489157e-01
    21   -4.662835937402e-01
    22   -1.988005459322e-02
    23   -1.118676126182e-01
    24   -8.005880847114e-03
    25   -9.166999453841e-02
    26    2.099362535205e-01
    27    6.596035882370e-01
    28    1.088477659309e-01
    29   -1.080098102774e-01
    30    1.465260931959e-02
    31    3.120038533339e-01
    32   -2.768016430600e-01
    33   -3.551508736640e-02
    34    2.099577491650e-01
    35   -1.603389463861e-02
    36   -1.060182481779e-02
    37    1.949515240683e-03
    38   -9.405937634711e-03
    39   -5.431955554012e-01
    40    4.581549076329e-01
    41   -2.068061032314e-02
    42   -1.130734134914e-01
    43   -4.671815206425e-03
    44   -5.337385254941e-01
    45    4.670603067432e-01
    46    1.107952671064e-01
    47    2.725861756926e-02
    48    5.314738506959e-03
Sym=X
Ene= 0.807955
Spin=Alpha
Occup=0
     1   -1.128078442879e-02
     2    2.640668198394e-02
     3   -2.832571472164e-03
     4    8.338013308690e-04
     5   -3.409659193140e-02
     6   -2.293980676182e-03
     7    8.648494114031e-03
     8    1.437182209363e-03
     9    3.494651420244e-02
    10    5.370524105510e-02
    11   -7.621496936699e-01
    12   -6.575580976569e-02
    13   -6.963888261594e-02
    14    1.125407965747e+00
    15    6.996040283291e-03
    16   -6.586858318431e-02
    17    6.154227853417e-02
    18    1.998386678526e-03
    19    2.366808530203e-03
    20   -1.098519275658e-02
    21   -2.122210390711e-03
    22    1.766787533437e-04
    23    3.205260051808e-03
    24   -3.446690827990e-02
    25    1.930505297302e-03
    26   -2.631422202827e-04
    27   -6.343397569616e-03
    28   -2.998081966132e-02
    29   -2.117205844274e-02
    30    7.643656522940e-01
    31    2.861775886686e-02
    32    4.243374203939e-02
    33   -1.128676942284e+00
    34   -5.745794471778e-03
    35   -6.460683166745e-02
    36    6.207046414230e-02
    37    9.561301755621e-03
    38    1.293077181825e-05
    39    1.099624205160e-02
    40   -4.181166337355e-05
    41   -3.480128445000e-03
    42    1.878139614337e-03
    43    3.469680722963e-02
    44    1.130443741950e-02
    45   -2.853244337367e-02
    46   -7.777970684683e-03
    47   -1.849458903662e-03
    48    3.347298149887e-02
Sym=X
Ene= 0.862368
Spin=Alpha
Occup=0
     1    1.375032066638e-02
     2   -1.096838623616e+00
     3    1.484615025036e-01
     4    5.632526338542e-02
     5    1.066970505456e-02
     6   -2.870931340819e-05
     7    1.735108831493e-03
     8   -9.897639268540e-04
     9   -4.078368615698e-01
    10   -4.285440993282e-01
    11   -5.402646648935e-02
    12    9.483690779114e-01
    13    9.977659550162e-01
    14    1.242554808312e-01
    15    7.611508207193e-05
    16    1.147407338104e-02
    17   -1.024734775082e-02
    18    2.359440918219e-01
    19    9.676857272454e-03
    20   -1.588800532971e-02
    21    1.106099301571e+00
    22    5.028331674100e-02
    23    1.521710097341e-01
    24    1.030675507274e-02
    25    2.550867761761e-04
    26    3.225876330757e-03
    27   -2.651972374043e-03
    28   -4.072895347229e-01
    29   -4.284349525202e-01
    30   -2.266959824822e-02
    31    9.487672600663e-01
    32    1.002908250927e+00
    33    5.452496570838e-02
    34   -1.147704521919e-03
    35   -1.210654852403e-02
    36    9.445466446462e-03
    37   -2.368118074487e-01
    38   -1.046445078480e-02
    39    1.228633119132e-02
    40   -1.102421229755e+00
    41    4.864058346269e-02
    42    1.519977939914e-01
    43    6.509386248716e-03
    44   -9.390992216913e-03
    45    1.093972919980e+00
    46    1.482530446839e-01
    47    5.555133847460e-02
    48    9.764562992467e-03
Sym=X
Ene= 0.936126
Spin=Alpha
Occup=0
     1   -1.126008357254e-01
     2    1.276593796271e+00
     3   -1.810599631397e-01
     4    5.624029046936e-03
     5   -7.310981118092e-03
     6   -2.327528781976e-04
     7    2.994208562889e-04
     8   -9.896686794441e-03
     9    4.702594100312e-01
    10    5.009379966751e-01
    11    4.975878757330e-02
    12   -1.460912782372e+00
    13   -1.547286341012e+00
    14   -1.528036480739e-01
    15    4.806114064248e-05
    16   -4.640053837853e-03
    17    1.098051575112e-02
    18   -1.193479679893e-01
    19   -1.346655924486e-03
    20    1.155446592219e-01
    21   -1.286906417933e+00
    22    1.139160926484e-02
    23   -1.822942500584e-01
    24   -1.170794277829e-02
    25    4.327819767444e-04
    26    3.502203589218e-03
    27   -6.301252329675e-04
    28   -4.787041400230e-01
    29   -4.956698692893e-01
    30   -3.961196571715e-02
    31    1.483468777403e+00
    32    1.530521747972e+00
    33    1.237621719491e-01
    34   -2.123342855927e-03
    35   -4.922467937925e-03
    36    1.646143814985e-03
    37   -1.217382781735e-01
    38   -6.460915414969e-03
    39    1.163871341983e-01
    40   -1.280474205592e+00
    41   -1.412819837017e-02
    42    1.820915066840e-01
    43    6.075704259684e-03
    44   -1.141071283184e-01
    45    1.295742277892e+00
    46    1.828234575112e-01
    47   -4.912163073785e-03
    48    6.707325424298e-03
Sym=X
Ene= 0.972554
Spin=Alpha
Occup=0
     1   -6.447299050070e-02
     2    9.374926472578e-01
     3   -9.257683558553e-02
     4   -9.889313499672e-02
     5   -9.212330572885e-03
     6    2.528534731688e-02
     7    2.591841157373e-01
     8    5.075417230903e-01
     9    4.842167523024e-01
    10   -4.523940515872e-01
    11   -6.179046452685e-03
    12   -1.507524892617e+00
    13    1.398803999148e+00
    14    1.885951247125e-02
    15   -5.333135671367e-02
    16   -1.181254914078e-02
    17   -7.393887007286e-03
    18    1.338519909889e-02
    19   -3.022538944352e-01
    20   -6.367279152783e-02
    21    9.068866509322e-01
    22    9.563892809061e-02
    23    9.306903311259e-02
    24    9.028713367105e-03
    25   -2.498364740213e-02
    26   -2.322897862543e-01
    27   -5.524500605919e-01
    28    4.736618578117e-01
    29   -4.575363666283e-01
    30    5.930353553171e-03
    31   -1.469818581044e+00
    32    1.428768125200e+00
    33   -1.341247266000e-02
    34    5.191476365321e-02
    35    1.270574501283e-02
    36    7.013877681872e-03
    37   -1.550875864479e-02
    38    2.983126230253e-01
    39    6.207370151677e-02
    40   -9.176976926403e-01
    41    9.414789496260e-02
    42    9.410443166194e-02
    43    5.721456014718e-03
    44    6.634838751024e-02
    45   -8.977928713296e-01
    46   -8.724512425719e-02
    47   -9.764926579702e-02
    48   -1.066499009539e-02
[5D]

======= END OF MOLDEN-FORMATTED INPUT FILE =======


        *************************************************************
        *                                                           *
        *  Thank you very much for using Q-Chem.  Have a nice day.  *
        *                                                           *
        *************************************************************


