                  Welcome to Q-Chem
     A Quantum Leap Into The Future Of Chemistry


 Q-Chem 5.4 (devel), Q-Chem, Inc., Pleasanton, CA (2021)

 E. Epifanovsky,  A. T. B. Gilbert,  Xintian Feng,  Joonho Lee,  Yuezhi Mao,  
 N. Mardirossian,  P. Pokhilko,  A. White,  M. Wormit,  M. P. Coons,  
 A. L. Dempwolff,  Zhengting Gan,  D. Hait,  P. R. Horn,  L. D. Jacobson,  
 I. Kaliman,  J. Kussmann,  A. W. Lange,  Ka Un Lao,  D. S. Levine,  Jie Liu,  
 S. C. McKenzie,  A. F. Morrison,  K. Nanda,  F. Plasser,  D. R. Rehn,  
 M. L. Vidal,  Zhi-Qiang You,  Ying Zhu,  B. Alam,  B. Albrecht,  
 A. Aldossary,  E. Alguire,  J. H. Andersen,  D. Barton,  K. Begam,  A. Behn,  
 Y. A. Bernard,  E. J. Berquist,  H. Burton,  A. Carreras,  K. Carter-Fenk,  
 R. Chakraborty,  A. D. Chien,  K. D. Closser,  V. Cofer-Shabica,  
 S. Dasgupta,  Jia Deng,  M. de Wergifosse,  M. Diedenhofen,  Hainam Do,  
 S. Ehlert,  Po-Tung Fang,  S. Fatehi,  Qingguo Feng,  T. Friedhoff,  
 J. Gayvert,  Qinghui Ge,  G. Gidofalvi,  M. Goldey,  J. Gomes,  
 C. Gonzalez-Espinoza,  S. Gulania,  A. Gunina,  M. W. D. Hanson-Heine,  
 P. H. P. Harbach,  A. W. Hauser,  M. F. Herbst,  M. Hernandez Vera,  
 M. Hodecker,  Z. C. Holden,  S. Houck,  Xunkun Huang,  Kerwin Hui,  
 B. C. Huynh,  M. Ivanov,  Hyunjun Ji,  Hanjie Jiang,  B. Kaduk,  S. Kaehler,  
 K. Khistyaev,  Jaehoon Kim,  P. Klunzinger,  Z. Koczor-Benda,  
 Joong Hoon Koh,  D. Kosenkov,  L. Koulias,  T. Kowalczyk,  C. M. Krauter,  
 K. Kue,  A. Kunitsa,  T. Kus,  A. Landau,  K. V. Lawler,  D. Lefrancois,  
 S. Lehtola,  Rain Li,  Yi-Pei Li,  Jiashu Liang,  M. Liebenthal,  
 Hung-Hsuan Lin,  You-Sheng Lin,  Fenglai Liu,  Kuan-Yu Liu,  
 M. Loipersberger,  A. Luenser,  A. Manjanath,  P. Manohar,  E. Mansoor,  
 S. F. Manzer,  Shan-Ping Mao,  A. V. Marenich,  T. Markovich,  S. Mason,  
 S. A. Maurer,  P. F. McLaughlin,  M. F. S. J. Menger,  J.-M. Mewes,  
 S. A. Mewes,  P. Morgante,  J. W. Mullinax,  K. J. Oosterbaan,  G. Paran,  
 Alexander C. Paul,  Suranjan K. Paul,  F. Pavosevic,  Zheng Pei,  S. Prager,  
 E. I. Proynov,  E. Ramos,  B. Rana,  A. E. Rask,  A. Rettig,  R. M. Richard,  
 F. Rob,  E. Rossomme,  T. Scheele,  M. Scheurer,  M. Schneider,  
 N. Sergueev,  S. M. Sharada,  W. Skomorowski,  D. W. Small,  C. J. Stein,  
 Yu-Chuan Su,  E. J. Sundstrom,  Zhen Tao,  J. Thirman,  T. Tsuchimochi,  
 N. M. Tubman,  S. P. Veccham,  O. Vydrov,  J. Wenzel,  J. Witte,  A. Yamada,  
 Kun Yao,  S. Yeganeh,  S. R. Yost,  A. Zech,  Igor Ying Zhang,  Xing Zhang,  
 Yu Zhang,  D. Zuev,  A. Aspuru-Guzik,  A. T. Bell,  N. A. Besley,  
 K. B. Bravaya,  B. R. Brooks,  D. Casanova,  Jeng-Da Chai,  S. Coriani,  
 C. J. Cramer,  A. E. DePrince, III,  R. A. DiStasio Jr.,  A. Dreuw,  
 B. D. Dunietz,  T. R. Furlani,  W. A. Goddard III,  S. Grimme,  
 S. Hammes-Schiffer,  T. Head-Gordon,  W. J. Hehre,  Chao-Ping Hsu,  
 T.-C. Jagau,  Yousung Jung,  A. Klamt,  Jing Kong,  D. S. Lambrecht,  
 WanZhen Liang,  N. J. Mayhall,  C. W. McCurdy,  J. B. Neaton,  
 C. Ochsenfeld,  J. A. Parkhill,  R. Peverati,  V. A. Rassolov,  Yihan Shao,  
 L. V. Slipchenko,  T. Stauch,  R. P. Steele,  J. E. Subotnik,  
 A. J. W. Thom,  A. Tkatchenko,  D. G. Truhlar,  T. Van Voorhis,  
 T. A. Wesolowski,  K. B. Whaley,  H. L. Woodcock III,  P. M. Zimmerman,  
 S. Faraji,  P. M. W. Gill,  M. Head-Gordon,  J. M. Herbert,  A. I. Krylov

 Additional authors for Version 5.4.1: 
 S. Kotaru,  Shaozhi Li,  Xiangyuan Li,  F. Matz,  A. Molle,  Haisheng Ren,  
 Yingli Su,  Hung-Yi Tsai,  C. Utku,  Fang Wang

 Contributors to earlier versions of Q-Chem not listed above: 
 R. D. Adamson,  B. Austin,  R. Baer,  J. Baker,  G. J. O. Beran,  
 K. Brandhorst,  S. T. Brown,  E. F. C. Byrd,  A. K. Chakraborty,  
 G. K. L. Chan,  Chun-Min Chang,  Yunqing Chen,  C.-L. Cheng,  
 Siu Hung Chien,  D. M. Chipman,  D. L. Crittenden,  H. Dachsel,  
 R. J. Doerksen,  A. D. Dutoi,  R. G. Edgar,  J. Fosso-Tande,  
 L. Fusti-Molnar,  D. Ghosh,  A. Ghysels,  A. Golubeva-Zadorozhnaya,  
 J. Gonthier,  M. S. Gordon,  S. R. Gwaltney,  G. Hawkins,  J. E. Herr,  
 A. Heyden,  S. Hirata,  E. G. Hohenstein,  G. Kedziora,  F. J. Keil,  
 C. Kelley,  Jihan Kim,  R. A. King,  R. Z. Khaliullin,  P. P. Korambath,  
 W. Kurlancheek,  A. Laurent,  A. M. Lee,  M. S. Lee,  S. V. Levchenko,  
 Ching Yeh Lin,  D. Liotard,  E. Livshits,  R. C. Lochan,  I. Lotan,  
 L. A. Martinez-Martinez,  P. E. Maslen,  N. Nair,  D. P. O'Neill,  
 D. Neuhauser,  E. Neuscamman,  C. M. Oana,  R. Olivares-Amaya,  R. Olson,  
 T. M. Perrine,  B. Peters,  P. A. Pieniazek,  A. Prociuk,  Y. M. Rhee,  
 J. Ritchie,  M. A. Rohrdanz,  E. Rosta,  N. J. Russ,  H. F. Schaefer III,  
 M. W. Schmidt,  N. E. Schultz,  S. Sharma,  N. Shenvi,  C. D. Sherrill,  
 A. C. Simmonett,  A. Sodt,  T. Stein,  D. Stuck,  K. S. Thanthiriwatte,  
 V. Vanovschi,  L. Vogt,  Tao Wang,  A. Warshel,  M. A. Watson,  
 C. F. Williams,  Q. Wu,  X. Xu,  Jun Yang,  W. Zhang,  Yan Zhao

 Please cite Q-Chem as follows:
 Y. Shao et al., Mol. Phys. 113, 184-215 (2015)
 DOI: 10.1080/00268976.2014.952696

 Q-Chem 5.4.1 for Intel X86 EM64T Linux

 Parts of Q-Chem use Armadillo 9.800.1 (Horizon Scraper).
 http://arma.sourceforge.net/

 Q-Chem begins on Thu Nov 17 15:41:06 2022  

 Host: cpu196.baobab
0

     Scratch files written to /scratch/fum/qchem12917//
 Processing $rem in /home/share/wesolowski/qc5.aug2021.FDE/config/preferences:
 Processing $rem in /home/fum/.qchemrc:

 Checking the input file for inconsistencies... 	...done.

--------------------------------------------------------------
User input:
--------------------------------------------------------------
$comment
generated from CCJob.Templates
$end

$rem
sym_ignore = true
method = adc(2)
ee_states = 10
basis = cc-pVDZ
mem_static = 1024
mem_total = 40000
adc_davidson_maxiter = 900
adc_davidson_conv = 6
adc_print = 3
adc_prop_es = true
adc_prop_es2es = true
adc_prop_tpa = true
molden_format = True
state_analysis = true
print_orbitals = 15
gen_scfman = false
fde_export_density = true
fde_details = 3
$end

$molecule
0 1
H -0.0348278765 -0.2442097827 0.0536489606
C -1.0765972949 -0.5242748755 -0.0023551776
H -1.313264467 -1.5767591607 -0.0757276926
C -2.043634118 0.3926884087 0.0061254933
H -1.8137616575 1.4459188338 0.0804456828
H -3.085977293 0.114931858 -0.0593381042                     
$end
--------------------------------------------------------------
 ----------------------------------------------------------------
             Standard Nuclear Orientation (Angstroms)
    I     Atom           X                Y                Z
 ----------------------------------------------------------------
    1      H      -0.0348278765    -0.2442097827     0.0536489606
    2      C      -1.0765972949    -0.5242748755    -0.0023551776
    3      H      -1.3132644670    -1.5767591607    -0.0757276926
    4      C      -2.0436341180     0.3926884087     0.0061254933
    5      H      -1.8137616575     1.4459188338     0.0804456828
    6      H      -3.0859772930     0.1149318580    -0.0593381042
 ----------------------------------------------------------------
 Nuclear Repulsion Energy =          33.42549033 hartrees
 There are        8 alpha and        8 beta electrons
 Requested basis set is cc-pVDZ
 There are 24 shells and 48 basis functions
 Total memory of 40000 MB is distributed as follows: 
   MEM_STATIC is set to 1024 MB
   QALLOC/CCMAN JOB total memory use is  38976 MB
 Warning: actual memory use might exceed 40000 MB

 Total QAlloc Memory Limit  40000 MB
 Mega-Array Size      1001 MB
 MEM_STATIC part      1024 MB

                       Distance Matrix (Angstroms)
             H (  1)   C (  2)   H (  3)   C (  4)   H (  5)
   C (  2)  1.080211
   H (  3)  1.851169  1.081258
   C (  4)  2.107890  1.332687  2.102109
   H (  5)  2.453947  2.105215  3.067812  1.080583
   H (  6)  3.074290  2.109370  2.450428  1.080700  1.846510

 A cutoff of  1.0D-11 yielded    300 shell pairs
 There are      1220 function pairs (      1329 Cartesian)
 Smallest overlap matrix eigenvalue = 4.80E-03

 Scale SEOQF with 1.000000e-01/1.000000e-01/1.000000e+00

 Standard Electronic Orientation quadrupole field applied
 Nucleus-field energy     =     0.0000000022 hartrees
 Guess from superposition of atomic densities
 Warning:  Energy on first SCF cycle will be non-variational
 SAD guess density has 16.000000 electrons
 A restricted Hartree-Fock SCF calculation will be
 performed using Pulay DIIS extrapolation
 SCF converges when DIIS error is below 1.0E-08
 using 10 threads for integral computing
 -------------------------------------------------------
 OpenMP Integral computing Module                
 Release: version 1.0, May 2013, Q-Chem Inc. Pittsburgh 
 -------------------------------------------------------
 ---------------------------------------
  Cycle       Energy         DIIS Error
 ---------------------------------------
    1     -78.4392182081      1.01E-01
    2     -78.0176807836      7.21E-03
    3     -78.0383141850      1.84E-03
    4     -78.0397971510      5.73E-04
    5     -78.0399187817      5.79E-05
    6     -78.0399206576      9.28E-06
    7     -78.0399207181      2.12E-06
    8     -78.0399207209      7.55E-07
    9     -78.0399207211      9.36E-08
   10     -78.0399207211      9.72E-09 Convergence criterion met
 ---------------------------------------
 SCF time:  CPU 1.40 s  wall 2.83 s
 SCF   energy in the final basis set = -78.03992072
 Total energy in the final basis set = -78.03992072
Exporting Density Matrix to file 'Densmat_SCF.txt'.
Export successful
================================================================================
|                                                                              |
|                                 A D C  M A N                                 |
|                                                                              |
 ------------------------------------------------------------------------------ 
|                                                                              |
| Components:                                                                  |
|                                                                              |
| - libvmm - 1.3-trunk                                                         |
|   Authors:                                                                   |
|   Evgeny Epifanovsky, Ilya Kaliman                                           |
|                                                                              |
| - libtensor - 2.5-trunk                                                      |
|   Authors:                                                                   |
|   Evgeny Epifanovsky, Michael Wormit, Dmitry Zuev, Sam Manzer,               |
|   Ilya Kaliman                                                               |
|                                                                              |
| - libwfa - 1.1-trunk                                                         |
|   Authors:                                                                   |
|   Felix Plasser, Stefanie Mewes (Baeppler), Benjamin Thomitzni,              |
|   Michael Wormit, Feng Chen, Anna I. Krylov, Pavel Pokhilko                  |
|                                                                              |
| - libadc - 1.1-trunk                                                         |
|   Authors:                                                                   |
|   Michael Wormit, Adrian L. Dempwolff, Philipp H. P. Harbach,                |
|   Caroline Krauter, Dirk Rehn, Matthias Schneider, Jan Wenzel                |
|                                                                              |
| - adcman - 2.6-trunk                                                         |
|   Authors:                                                                   |
|   Michael Wormit, Adrian L. Dempwolff, Philipp H. P. Harbach,                |
|   Caroline Krauter, Daniel Lefrancois, Jan-Michael Mewes, Dirk Rehn,         |
|   Matthias Schneider, Jan Wenzel, Andreas Dreuw                              |
|                                                                              |
| Authors of earlier versions of ADCMAN:                                       |
| Andreas Dreuw, Jan Hendrik Starcke, Dirk Rehn, Michael Wormit                |
|                                                                              |
================================================================================

 Created directory /scratch/fum/qchem12917/plots
  Import QC data ...  CPU 0.00 s  wall 0.00 s

 Alpha MOs, Restricted
 -- Occupied --                  
-11.235 -11.233  -1.032  -0.790  -0.641  -0.582  -0.505  -0.374
  1 A     2 A     3 A     4 A     5 A     6 A     7 A     8 A                  
 -- Virtual --                   
  0.168   0.204   0.233   0.239   0.303   0.462   0.578   0.615
  9 A    10 A    11 A    12 A    13 A    14 A    15 A    16 A                  
  0.689   0.709   0.785   0.808   0.862   0.936   0.972   1.010
 17 A    18 A    19 A    20 A    21 A    22 A    23 A    24 A                  
  1.130   1.235   1.254   1.266   1.294   1.601   1.727   1.750
 25 A    26 A    27 A    28 A    29 A    30 A    31 A    32 A                  
  1.819   1.859   1.867   1.922   1.977   1.979   2.222   2.258
 33 A    34 A    35 A    36 A    37 A    38 A    39 A    40 A                  
  2.376   2.454   2.506   2.634   2.721   2.822   3.140   3.399
 41 A    42 A    43 A    44 A    45 A    46 A    47 A    48 A                  

 Beta MOs, Restricted
 -- Occupied --                  
-11.235 -11.233  -1.032  -0.790  -0.641  -0.582  -0.505  -0.374
  1 A     2 A     3 A     4 A     5 A     6 A     7 A     8 A                  
 -- Virtual --                   
  0.168   0.204   0.233   0.239   0.303   0.462   0.578   0.615
  9 A    10 A    11 A    12 A    13 A    14 A    15 A    16 A                  
  0.689   0.709   0.785   0.808   0.862   0.936   0.972   1.010
 17 A    18 A    19 A    20 A    21 A    22 A    23 A    24 A                  
  1.130   1.235   1.254   1.266   1.294   1.601   1.727   1.750
 25 A    26 A    27 A    28 A    29 A    30 A    31 A    32 A                  
  1.819   1.859   1.867   1.922   1.977   1.979   2.222   2.258
 33 A    34 A    35 A    36 A    37 A    38 A    39 A    40 A                  
  2.376   2.454   2.506   2.634   2.721   2.822   3.140   3.399
 41 A    42 A    43 A    44 A    45 A    46 A    47 A    48 A                  
  Import AO data ...  CPU 0.00 s  wall 0.00 s
  Using point group: C1
  Irreducible representations in point group: A
  Molecular orbitals: 
  Occupied MOs:
  Block   0:   1 (  A) A   2 (  A) A   3 (  A) A   4 (  A) A   5 (  A) A
                  -11.24      -11.23      -1.032     -0.7899     -0.6412
               6 (  A) A   7 (  A) A   8 (  A) A
                  -0.582     -0.5046      -0.374
  Block   1:   1 (  A) B   2 (  A) B   3 (  A) B   4 (  A) B   5 (  A) B
                  -11.24      -11.23      -1.032     -0.7899     -0.6412
               6 (  A) B   7 (  A) B   8 (  A) B
                  -0.582     -0.5046      -0.374
  Virtual MOs:
  Block   0:   9 (  A) A  10 (  A) A  11 (  A) A  12 (  A) A  13 (  A) A
                  0.1684      0.2037       0.233      0.2394      0.3033
              14 (  A) A  15 (  A) A  16 (  A) A  17 (  A) A  18 (  A) A
                  0.4621      0.5775      0.6151      0.6892       0.709
              19 (  A) A  20 (  A) A  21 (  A) A  22 (  A) A
                  0.7846       0.808      0.8623       0.936
  Block   1:  23 (  A) A  24 (  A) A  25 (  A) A  26 (  A) A  27 (  A) A
                  0.9725        1.01        1.13       1.235       1.254
              28 (  A) A  29 (  A) A  30 (  A) A  31 (  A) A  32 (  A) A
                   1.266       1.294       1.601       1.727        1.75
              33 (  A) A  34 (  A) A  35 (  A) A  36 (  A) A
                   1.819       1.859       1.867       1.922
  Block   2:  37 (  A) A  38 (  A) A  39 (  A) A  40 (  A) A  41 (  A) A
                   1.977       1.979       2.222       2.258       2.376
              42 (  A) A  43 (  A) A  44 (  A) A  45 (  A) A  46 (  A) A
                   2.454       2.506       2.634       2.721       2.822
              47 (  A) A  48 (  A) A
                    3.14       3.399
  Block   3:   9 (  A) B  10 (  A) B  11 (  A) B  12 (  A) B  13 (  A) B
                  0.1684      0.2037       0.233      0.2394      0.3033
              14 (  A) B  15 (  A) B  16 (  A) B  17 (  A) B  18 (  A) B
                  0.4621      0.5775      0.6151      0.6892       0.709
              19 (  A) B  20 (  A) B  21 (  A) B  22 (  A) B
                  0.7846       0.808      0.8623       0.936
  Block   4:  23 (  A) B  24 (  A) B  25 (  A) B  26 (  A) B  27 (  A) B
                  0.9725        1.01        1.13       1.235       1.254
              28 (  A) B  29 (  A) B  30 (  A) B  31 (  A) B  32 (  A) B
                   1.266       1.294       1.601       1.727        1.75
              33 (  A) B  34 (  A) B  35 (  A) B  36 (  A) B
                   1.819       1.859       1.867       1.922
  Block   5:  37 (  A) B  38 (  A) B  39 (  A) B  40 (  A) B  41 (  A) B
                   1.977       1.979       2.222       2.258       2.376
              42 (  A) B  43 (  A) B  44 (  A) B  45 (  A) B  46 (  A) B
                   2.454       2.506       2.634       2.721       2.822
              47 (  A) B  48 (  A) B
                    3.14       3.399
  Import MO data ...  CPU 0.01 s  wall 0.00 s
  Import HF data ...  CPU 0.08 s  wall 0.03 s
  Import 2e integrals ...  CPU 0.67 s  wall 0.13 s

--------------------------------------------------------------------------------
                                   HF Summary                                   
--------------------------------------------------------------------------------
  Energy:                                                  -78.0399207211 a.u.
  Dip. moment [a.u.]:                  [  -0.000471,    0.000820,   -0.002280]
  Total dipole [Debye]:                                               0.006273
  <r^2> [a.u.]:                        [ 175.320068,   34.918933,   11.622065]
  Total <r^2> [a.u.]:                                               221.861067
--------------------------------------------------------------------------------
  HF properties ...  CPU 0.01 s  wall 0.01 s
  MP(1) calculation ...  CPU 0.01 s  wall 0.00 s
  N^6 prerequesite intermediates ...  CPU 0.52 s  wall 0.09 s
  Difference density matrix of state mp2_gs printed to ASCII file 'State_mp2_gs_Difference.txt'
Exporting MP density matrix to file 'Densmat_MP.txt'.
Export successful
  Total density matrix of state mp2_gs printed to ASCII file 'State_mp2_gs_Total.txt'
Exporting MP density matrix to file 'Densmat_MP.txt'.
Export successful

--------------------------------------------------------------------------------
                                 MP(2) Summary                                  
--------------------------------------------------------------------------------
  MP energy contribution:                                   -0.2796966395 a.u.
  Total energy:                                            -78.3196173606 a.u.
  Dip. moment [a.u.]:                  [  -0.000473,    0.000703,   -0.002257]
  Total dipole [Debye]:                                               0.006127
  <r^2> [a.u.]:                        [ 175.366823,   34.959540,   11.453881]
  Total <r^2> [a.u.]:                                               221.780244

  Density matrix analysis:
  ------------------------
  NOs
    Occupation of frontier NOs:
       0.0453   1.9383
    Number of electrons: 16.000000
    Number of unpaired electrons: n_u =  0.40339, n_u,nl =  0.04507
    NO participation ratio (PR_NO): 13.856970
  
  
  Mulliken Population Analysis
  Atom      Charge (e)              h+              e-           Del q
  --------------------------------------------------------------------
   1 H        0.050803        0.014041       -0.011199        0.002842
   2 C       -0.100519        0.093183       -0.098831       -0.005649
   3 H        0.050506        0.014078       -0.011189        0.002889
   4 C       -0.101480        0.092990       -0.098900       -0.005910
   5 H        0.050131        0.014121       -0.011184        0.002937
   6 H        0.050559        0.014082       -0.011192        0.002891
  --------------------------------------------------------------------
  Sum:        0.000000        0.242495       -0.242495        0.000000
  
  Multipole moment analysis of the density matrix
    Molecular charge:                      -0.000000
    Number of electrons:                   16.000000
      Center of electronic charge [Ang]: [ -1.560561,  -0.065626,   0.001428]
    Total nuclear charge:                  16.000000
      Center of nuclear charge [Ang]:    [ -1.560576,  -0.065602,   0.001353]
    Dipole moment [D]:                     0.006127
      Cartesian components [D]:          [ -0.001203,   0.001787,  -0.005736]
    RMS size of the density [Ang]:         1.200788
      Cartesian components [Ang]:        [  0.796167,   0.779453,   0.447729]
  
  Exciton analysis of the difference density matrix
    <r_h> [Ang]:                  [ -1.560536,  -0.065892,   0.001784]
    <r_e> [Ang]:                  [ -1.560530,  -0.065636,   0.001734]
    |<r_e - r_h>| [Ang]:            0.000261
    Hole size [Ang]:                1.393638
      Cartesian components [Ang]: [  0.846549,   0.834153,   0.727855]
    Electron size [Ang]:            1.359760
      Cartesian components [Ang]: [  0.877869,   0.861822,   0.579272]
--------------------------------------------------------------------------------
  MP(2) calculation ...  CPU 0.13 s  wall 0.11 s
  Start ADC(2)-s ...  CPU 0.01 s  wall 0.00 s
  ADC(2) intermediates ...  CPU 0.02 s  wall 0.01 s
  Starting Davidson for singlet states of irrep A ... 
--------------------------------------------------------------------------------
   It NVec Conv  Avg. Norm  Max. Norm  Conv. states           Remark
--------------------------------------------------------------------------------
        10    0  1.330e-01  4.687e-01  0.4119 n n n n n n n n Guess.
    1   20    0  2.305e-02  1.109e-01  0.3262 n n n n n n n n 
    2   30    0  5.893e-03  2.551e-02  0.3215 n n n n n n n n 
    3   40    0  2.045e-03  1.272e-02  0.3211 n n n n n n n n 
    4   50    0  5.497e-04  3.389e-03  0.3211 n n n n n n n n 
    5   20    0  2.646e-04  1.759e-03  0.3211 n n n n n n n n Subspace collapsed.
    6   30    0  1.592e-04  1.258e-03  0.3211 n n n n n n n n 
    7   40    0  1.472e-04  1.188e-03  0.3211 n n n n n n n n 
    8   50    0  1.114e-04  1.033e-03  0.3211 n n n n n n n n 
    9   20    1  5.745e-05  5.201e-04  0.3211 n y n n n n n n Subspace collapsed.
   10   30    3  4.840e-05  4.362e-04  0.3211 n y y y n n n n 
   11   40    4  2.217e-05  2.034e-04  0.3211 n y y y y n n n 
   12   50    5  2.059e-05  2.004e-04  0.3211 n y y y y y n n 
   13   20    6  1.456e-05  1.427e-04  0.3211 y y y y y y n n Subspace collapsed.
   14   30    6  2.042e-05  2.014e-04  0.3211 y y y y y y n n 
   15   40    6  2.078e-05  2.061e-04  0.3211 y y y y y y n n 
   16   50    6  1.932e-05  1.925e-04  0.3211 y y y y y y n n 
   17   20    6  9.627e-06  9.594e-05  0.3211 y y y y y y n n Subspace collapsed.
   18   30    7  6.824e-06  6.801e-05  0.3211 y y y y y y y n 
   19   40    8  4.360e-06  4.349e-05  0.3211 y y y y y y y y 
   20   50    8  5.119e-06  5.111e-05  0.3211 y y y y y y y y 
   21   20    8  2.549e-06  2.545e-05  0.3211 y y y y y y y y Subspace collapsed.
   22   30    8  4.290e-06  4.285e-05  0.3211 y y y y y y y y 
   23   40    8  3.172e-06  3.170e-05  0.3211 y y y y y y y y 
   24   41    8  3.096e-06  3.094e-05  0.3211 y y y y y y y y 
   25   42    8  3.102e-06  3.099e-05  0.3211 y y y y y y y y 
   26   42    8  3.102e-06  3.099e-05  0.3211 y y y y y y y y 
   27   50    8  4.040e-06  4.039e-05  0.3211 y y y y y y y y 
   28   16    9  1.970e-06  1.969e-05  0.3211 y y y y y y y y Subspace collapsed.
   29   22    9  2.153e-06  2.153e-05  0.3211 y y y y y y y y 
   30   28    9  1.350e-06  1.350e-05  0.3211 y y y y y y y y 
   31   33    9  1.225e-06  1.225e-05  0.3211 y y y y y y y y 
   32   38    9  1.761e-06  1.761e-05  0.3211 y y y y y y y y 
   33   42    9  1.220e-06  1.220e-05  0.3211 y y y y y y y y 
   34   46    9  7.290e-07  7.290e-06  0.3211 y y y y y y y y 
   35   50    9  3.754e-07  3.754e-06  0.3211 y y y y y y y y 
   36   14    9  1.493e-07  1.493e-06  0.3211 y y y y y y y y Subspace collapsed.
   37   18    9  1.076e-07  1.076e-06  0.3211 y y y y y y y y 
   38   22   10  5.565e-08  5.565e-07  0.3211 y y y y y y y y Converged.
--------------------------------------------------------------------------------
  Davidson Summary: 
 ------------------------------------------------------------
  State  0: excitation energy =   0.3211 a.u.   (converged)
  State  1: excitation energy =   0.3328 a.u.   (converged)
  State  2: excitation energy =   0.3370 a.u.   (converged)
  State  3: excitation energy =   0.3614 a.u.   (converged)
  State  4: excitation energy =   0.3753 a.u.   (converged)
  State  5: excitation energy =   0.3872 a.u.   (converged)
  State  6: excitation energy =   0.4248 a.u.   (converged)
  State  7: excitation energy =   0.4471 a.u.   (converged)
  State  8: excitation energy =   0.4563 a.u.   (converged)
  State  9: excitation energy =   0.4648 a.u.   (converged)
 ------------------------------------------------------------

  Singlet states of irrep A ...  CPU 103.52 s  wall 33.40 s
  TDMs ...  CPU 0.66 s  wall 0.28 s
  SDMs ...  CPU 1.47 s  wall 0.52 s
  Starting TPA DIIS iterations ... 
------------------------------------ 
   It     Res. Norm  Remark
------------------------------------
                       Guess.
    1     4.405e+00  
    2     5.840e+00  
    3     1.077e+00  
    4     2.565e-01  
    5     6.575e-02  
    6     2.674e-02  
    7     8.237e-03  
    8     1.445e-03  
    9     5.344e-04  
   10     9.362e-05  
   11     2.904e-05  
   12     6.576e-06  
   13     2.255e-06  
   14     1.397e-06  
   15     2.638e-07  Converged.
   ... Converged in 15 steps (norm: 2.63761e-07)
------------------------------------
  Starting TPA DIIS iterations ... 
------------------------------------ 
   It     Res. Norm  Remark
------------------------------------
                       Guess.
    1     4.185e+00  
    2     5.541e+00  
    3     1.029e+00  
    4     2.555e-01  
    5     6.535e-02  
    6     2.673e-02  
    7     8.114e-03  
    8     1.454e-03  
    9     5.357e-04  
   10     9.200e-05  
   11     2.893e-05  
   12     5.888e-06  
   13     2.267e-06  
   14     1.150e-06  
   15     2.609e-07  Converged.
   ... Converged in 15 steps (norm: 2.60903e-07)
------------------------------------
  Starting TPA DIIS iterations ... 
------------------------------------ 
   It     Res. Norm  Remark
------------------------------------
                       Guess.
    1     6.869e-01  
    2     4.816e-01  
    3     1.699e-01  
    4     4.783e-02  
    5     1.801e-02  
    6     7.069e-03  
    7     1.034e-03  
    8     4.476e-04  
    9     1.236e-04  
   10     3.004e-05  
   11     5.069e-06  
   12     1.452e-06  
   13     6.735e-07  Converged.
   ... Converged in 13 steps (norm: 6.73511e-07)
------------------------------------
  Starting TPA DIIS iterations ... 
------------------------------------ 
   It     Res. Norm  Remark
------------------------------------
                       Guess.
    1     4.694e+00  
    2     6.359e+00  
    3     1.158e+00  
    4     2.852e-01  
    5     7.411e-02  
    6     3.040e-02  
    7     9.347e-03  
    8     1.638e-03  
    9     6.104e-04  
   10     1.079e-04  
   11     3.387e-05  
   12     8.023e-06  
   13     2.799e-06  
   14     1.780e-06  
   15     3.283e-07  Converged.
   ... Converged in 15 steps (norm: 3.28251e-07)
------------------------------------
  Starting TPA DIIS iterations ... 
------------------------------------ 
   It     Res. Norm  Remark
------------------------------------
                       Guess.
    1     4.458e+00  
    2     6.033e+00  
    3     1.107e+00  
    4     2.839e-01  
    5     7.368e-02  
    6     3.041e-02  
    7     9.210e-03  
    8     1.648e-03  
    9     6.115e-04  
   10     1.059e-04  
   11     3.362e-05  
   12     7.114e-06  
   13     2.772e-06  
   14     1.443e-06  
   15     3.127e-07  Converged.
   ... Converged in 15 steps (norm: 3.12738e-07)
------------------------------------
  Starting TPA DIIS iterations ... 
------------------------------------ 
   It     Res. Norm  Remark
------------------------------------
                       Guess.
    1     6.989e-01  
    2     4.989e-01  
    3     1.798e-01  
    4     5.360e-02  
    5     1.967e-02  
    6     7.685e-03  
    7     1.168e-03  
    8     5.280e-04  
    9     1.496e-04  
   10     3.447e-05  
   11     5.744e-06  
   12     1.707e-06  
   13     8.445e-07  Converged.
   ... Converged in 13 steps (norm: 8.44499e-07)
------------------------------------
  Starting TPA DIIS iterations ... 
------------------------------------ 
   It     Res. Norm  Remark
------------------------------------
                       Guess.
    1     4.807e+00  
    2     6.565e+00  
    3     1.190e+00  
    4     2.968e-01  
    5     7.750e-02  
    6     3.189e-02  
    7     9.796e-03  
    8     1.716e-03  
    9     6.413e-04  
   10     1.138e-04  
   11     3.588e-05  
   12     8.644e-06  
   13     3.038e-06  
   14     1.948e-06  
   15     3.565e-07  Converged.
   ... Converged in 15 steps (norm: 3.56487e-07)
------------------------------------
  Starting TPA DIIS iterations ... 
------------------------------------ 
   It     Res. Norm  Remark
------------------------------------
                       Guess.
    1     4.566e+00  
    2     6.228e+00  
    3     1.137e+00  
    4     2.953e-01  
    5     7.705e-02  
    6     3.191e-02  
    7     9.654e-03  
    8     1.727e-03  
    9     6.423e-04  
   10     1.116e-04  
   11     3.555e-05  
   12     7.636e-06  
   13     2.987e-06  
   14     1.570e-06  
   15     3.345e-07  Converged.
   ... Converged in 15 steps (norm: 3.34473e-07)
------------------------------------
  Starting TPA DIIS iterations ... 
------------------------------------ 
   It     Res. Norm  Remark
------------------------------------
                       Guess.
    1     7.034e-01  
    2     5.055e-01  
    3     1.836e-01  
    4     5.598e-02  
    5     2.030e-02  
    6     7.932e-03  
    7     1.223e-03  
    8     5.615e-04  
    9     1.605e-04  
   10     3.592e-05  
   11     6.010e-06  
   12     1.813e-06  
   13     9.200e-07  Converged.
   ... Converged in 13 steps (norm: 9.19986e-07)
------------------------------------
  Starting TPA DIIS iterations ... 
------------------------------------ 
   It     Res. Norm  Remark
------------------------------------
                       Guess.
    1     5.548e+00  
    2     7.947e+00  
    3     1.398e+00  
    4     3.769e-01  
    5     1.009e-01  
    6     4.228e-02  
    7     1.290e-02  
    8     2.254e-03  
    9     8.571e-04  
   10     1.553e-04  
   11     5.045e-05  
   12     1.349e-05  
   13     4.988e-06  
   14     3.322e-06  
   15     5.870e-07  Converged.
   ... Converged in 15 steps (norm: 5.86964e-07)
------------------------------------
  Starting TPA DIIS iterations ... 
------------------------------------ 
   It     Res. Norm  Remark
------------------------------------
                       Guess.
    1     5.267e+00  
    2     7.538e+00  
    3     1.335e+00  
    4     3.744e-01  
    5     1.003e-01  
    6     4.237e-02  
    7     1.272e-02  
    8     2.269e-03  
    9     8.567e-04  
   10     1.515e-04  
   11     4.941e-05  
   12     1.164e-05  
   13     4.650e-06  
   14     2.594e-06  
   15     4.989e-07  Converged.
   ... Converged in 15 steps (norm: 4.98936e-07)
------------------------------------
  Starting TPA DIIS iterations ... 
------------------------------------ 
   It     Res. Norm  Remark
------------------------------------
                       Guess.
    1     7.301e-01  
    2     5.463e-01  
    3     2.078e-01  
    4     7.308e-02  
    5     2.419e-02  
    6     9.630e-03  
    7     1.620e-03  
    8     7.994e-04  
    9     2.360e-04  
   10     4.145e-05  
   11     7.805e-06  
   12     2.599e-06  
   13     1.543e-06  
   14     5.889e-07  Converged.
   ... Converged in 14 steps (norm: 5.88939e-07)
------------------------------------
  Starting TPA DIIS iterations ... 
------------------------------------ 
   It     Res. Norm  Remark
------------------------------------
                       Guess.
    1     6.059e+00  
    2     8.932e+00  
    3     1.540e+00  
    4     4.363e-01  
    5     1.182e-01  
    6     5.006e-02  
    7     1.521e-02  
    8     2.652e-03  
    9     1.019e-03  
   10     1.871e-04  
   11     6.201e-05  
   12     1.769e-05  
   13     6.794e-06  
   14     4.574e-06  
   15     7.991e-07  Converged.
   ... Converged in 15 steps (norm: 7.99149e-07)
------------------------------------
  Starting TPA DIIS iterations ... 
------------------------------------ 
   It     Res. Norm  Remark
------------------------------------
                       Guess.
    1     5.750e+00  
    2     8.472e+00  
    3     1.470e+00  
    4     4.328e-01  
    5     1.176e-01  
    6     5.022e-02  
    7     1.500e-02  
    8     2.668e-03  
    9     1.017e-03  
   10     1.818e-04  
   11     6.016e-05  
   12     1.505e-05  
   13     6.059e-06  
   14     3.516e-06  
   15     6.405e-07  Converged.
   ... Converged in 15 steps (norm: 6.40526e-07)
------------------------------------
  Starting TPA DIIS iterations ... 
------------------------------------ 
   It     Res. Norm  Remark
------------------------------------
                       Guess.
    1     7.463e-01  
    2     5.725e-01  
    3     2.239e-01  
    4     8.643e-02  
    5     2.673e-02  
    6     1.089e-02  
    7     1.931e-03  
    8     9.707e-04  
    9     2.895e-04  
   10     4.249e-05  
   11     9.131e-06  
   12     3.231e-06  
   13     2.117e-06  
   14     7.624e-07  Converged.
   ... Converged in 14 steps (norm: 7.62437e-07)
------------------------------------
  Starting TPA DIIS iterations ... 
------------------------------------ 
   It     Res. Norm  Remark
------------------------------------
                       Guess.
    1     6.558e+00  
    2     9.921e+00  
    3     1.678e+00  
    4     4.974e-01  
    5     1.360e-01  
    6     5.815e-02  
    7     1.758e-02  
    8     3.062e-03  
    9     1.188e-03  
   10     2.205e-04  
   11     7.450e-05  
   12     2.253e-05  
   13     8.994e-06  
   14     6.070e-06  
   15     1.057e-06  
   16     8.198e-07  Converged.
   ... Converged in 16 steps (norm: 8.19788e-07)
------------------------------------
  Starting TPA DIIS iterations ... 
------------------------------------ 
   It     Res. Norm  Remark
------------------------------------
                       Guess.
    1     6.224e+00  
    2     9.410e+00  
    3     1.602e+00  
    4     4.930e-01  
    5     1.353e-01  
    6     5.838e-02  
    7     1.734e-02  
    8     3.079e-03  
    9     1.183e-03  
   10     2.135e-04  
   11     7.157e-05  
   12     1.892e-05  
   13     7.651e-06  
   14     4.613e-06  
   15     8.076e-07  Converged.
   ... Converged in 15 steps (norm: 8.07611e-07)
------------------------------------
  Starting TPA DIIS iterations ... 
------------------------------------ 
   It     Res. Norm  Remark
------------------------------------
                       Guess.
    1     7.606e-01  
    2     5.968e-01  
    3     2.392e-01  
    4     1.007e-01  
    5     2.919e-02  
    6     1.220e-02  
    7     2.264e-03  
    8     1.133e-03  
    9     3.408e-04  
   10     4.279e-05  
   11     1.053e-05  
   12     3.922e-06  
   13     2.801e-06  
   14     9.585e-07  Converged.
   ... Converged in 14 steps (norm: 9.58515e-07)
------------------------------------
  Starting TPA DIIS iterations ... 
------------------------------------ 
   It     Res. Norm  Remark
------------------------------------
                       Guess.
    1     8.668e+00  
    2     1.434e+01  
    3     2.252e+00  
    4     7.828e-01  
    5     2.193e-01  
    6     9.672e-02  
    7     2.866e-02  
    8     4.978e-03  
    9     1.997e-03  
   10     3.860e-04  
   11     1.399e-04  
   12     5.186e-05  
   13     2.429e-05  
   14     1.577e-05  
   15     2.881e-06  
   16     1.847e-06  
   17     4.283e-07  Converged.
   ... Converged in 17 steps (norm: 4.28295e-07)
------------------------------------
  Starting TPA DIIS iterations ... 
------------------------------------ 
   It     Res. Norm  Remark
------------------------------------
                       Guess.
    1     8.222e+00  
    2     1.360e+01  
    3     2.148e+00  
    4     7.729e-01  
    5     2.184e-01  
    6     9.737e-02  
    7     2.830e-02  
    8     4.988e-03  
    9     1.973e-03  
   10     3.679e-04  
   11     1.281e-04  
   12     4.185e-05  
   13     1.675e-05  
   14     1.187e-05  
   15     1.887e-06  
   16     1.674e-06  
   17     3.457e-07  Converged.
   ... Converged in 17 steps (norm: 3.45661e-07)
------------------------------------
  Starting TPA DIIS iterations ... 
------------------------------------ 
   It     Res. Norm  Remark
------------------------------------
                       Guess.
    1     8.101e-01  
    2     6.881e-01  
    3     2.997e-01  
    4     1.729e-01  
    5     4.013e-02  
    6     1.834e-02  
    7     3.928e-03  
    8     1.649e-03  
    9     5.387e-04  
   10     5.120e-05  
   11     1.757e-05  
   12     7.619e-06  
   13     7.023e-06  
   14     2.109e-06  
   15     7.775e-07  Converged.
   ... Converged in 15 steps (norm: 7.77526e-07)
------------------------------------
  Starting TPA DIIS iterations ... 
------------------------------------ 
   It     Res. Norm  Remark
------------------------------------
                       Guess.
    1     1.049e+01  
    2     1.843e+01  
    3     2.734e+00  
    4     1.057e+00  
    5     3.000e-01  
    6     1.350e-01  
    7     3.941e-02  
    8     6.841e-03  
    9     2.807e-03  
   10     5.587e-04  
   11     2.127e-04  
   12     9.000e-05  
   13     4.725e-05  
   14     2.909e-05  
   15     5.702e-06  
   16     3.017e-06  
   17     7.547e-07  Converged.
   ... Converged in 17 steps (norm: 7.54684e-07)
------------------------------------
  Starting TPA DIIS iterations ... 
------------------------------------ 
   It     Res. Norm  Remark
------------------------------------
                       Guess.
    1     9.948e+00  
    2     1.748e+01  
    3     2.607e+00  
    4     1.041e+00  
    5     2.990e-01  
    6     1.361e-01  
    7     3.892e-02  
    8     6.826e-03  
    9     2.752e-03  
   10     5.251e-04  
   11     1.865e-04  
   12     7.124e-05  
   13     2.817e-05  
   14     2.248e-05  
   15     3.383e-06  
   16     3.105e-06  
   17     5.850e-07  Converged.
   ... Converged in 17 steps (norm: 5.84982e-07)
------------------------------------
  Starting TPA DIIS iterations ... 
------------------------------------ 
   It     Res. Norm  Remark
------------------------------------
                       Guess.
    1     8.428e-01  
    2     7.563e-01  
    3     3.477e-01  
    4     2.470e-01  
    5     5.058e-02  
    6     2.399e-02  
    7     5.604e-03  
    8     1.860e-03  
    9     6.903e-04  
   10     6.935e-05  
   11     2.509e-05  
   12     1.182e-05  
   13     1.223e-05  
   14     3.570e-06  
   15     1.480e-06  
   16     1.063e-06  
   17     4.547e-07  Converged.
   ... Converged in 17 steps (norm: 4.54665e-07)
------------------------------------
  Starting TPA DIIS iterations ... 
------------------------------------ 
   It     Res. Norm  Remark
------------------------------------
                       Guess.
    1     1.143e+01  
    2     2.063e+01  
    3     2.978e+00  
    4     1.206e+00  
    5     3.443e-01  
    6     1.563e-01  
    7     4.530e-02  
    8     7.867e-03  
    9     3.261e-03  
   10     6.577e-04  
   11     2.565e-04  
   12     1.146e-04  
   13     6.289e-05  
   14     3.778e-05  
   15     7.584e-06  
   16     3.728e-06  
   17     9.319e-07  Converged.
   ... Converged in 17 steps (norm: 9.31903e-07)
------------------------------------
  Starting TPA DIIS iterations ... 
------------------------------------ 
   It     Res. Norm  Remark
------------------------------------
                       Guess.
    1     1.084e+01  
    2     1.957e+01  
    3     2.839e+00  
    4     1.186e+00  
    5     3.432e-01  
    6     1.577e-01  
    7     4.475e-02  
    8     7.831e-03  
    9     3.183e-03  
   10     6.141e-04  
   11     2.199e-04  
   12     9.020e-05  
   13     3.576e-05  
   14     2.973e-05  
   15     4.456e-06  
   16     4.029e-06  
   17     7.485e-07  Converged.
   ... Converged in 17 steps (norm: 7.48506e-07)
------------------------------------
  Starting TPA DIIS iterations ... 
------------------------------------ 
   It     Res. Norm  Remark
------------------------------------
                       Guess.
    1     8.573e-01  
    2     7.885e-01  
    3     3.711e-01  
    4     2.876e-01  
    5     5.625e-02  
    6     2.688e-02  
    7     6.518e-03  
    8     1.917e-03  
    9     7.643e-04  
   10     8.044e-05  
   11     2.947e-05  
   12     1.436e-05  
   13     1.543e-05  
   14     4.507e-06  
   15     2.032e-06  
   16     1.398e-06  
   17     6.208e-07  Converged.
   ... Converged in 17 steps (norm: 6.20751e-07)
------------------------------------
  Starting TPA DIIS iterations ... 
------------------------------------ 
   It     Res. Norm  Remark
------------------------------------
                       Guess.
    1     1.241e+01  
    2     2.299e+01  
    3     3.230e+00  
    4     1.365e+00  
    5     3.922e-01  
    6     1.795e-01  
    7     5.167e-02  
    8     8.979e-03  
    9     3.760e-03  
   10     7.679e-04  
   11     3.071e-04  
   12     1.440e-04  
   13     8.170e-05  
   14     4.804e-05  
   15     9.806e-06  
   16     4.608e-06  
   17     1.121e-06  
   18     4.541e-07  Converged.
   ... Converged in 18 steps (norm: 4.54113e-07)
------------------------------------
  Starting TPA DIIS iterations ... 
------------------------------------ 
   It     Res. Norm  Remark
------------------------------------
                       Guess.
    1     1.176e+01  
    2     2.180e+01  
    3     3.078e+00  
    4     1.341e+00  
    5     3.910e-01  
    6     1.812e-01  
    7     5.104e-02  
    8     8.916e-03  
    9     3.654e-03  
   10     7.123e-04  
   11     2.573e-04  
   12     1.129e-04  
   13     4.523e-05  
   14     3.858e-05  
   15     5.862e-06  
   16     5.159e-06  
   17     9.523e-07  Converged.
   ... Converged in 17 steps (norm: 9.52315e-07)
------------------------------------
  Starting TPA DIIS iterations ... 
------------------------------------ 
   It     Res. Norm  Remark
------------------------------------
                       Guess.
    1     8.710e-01  
    2     8.205e-01  
    3     3.947e-01  
    4     3.306e-01  
    5     6.230e-02  
    6     2.979e-02  
    7     7.493e-03  
    8     1.961e-03  
    9     8.392e-04  
   10     9.249e-05  
   11     3.442e-05  
   12     1.732e-05  
   13     1.911e-05  
   14     5.624e-06  
   15     2.770e-06  
   16     1.795e-06  
   17     8.192e-07  Converged.
   ... Converged in 17 steps (norm: 8.19207e-07)
------------------------------------
  Two-photon absorbption ...  CPU 81.04 s  wall 19.34 s
  Transition density matrix of state singlet_A_1 printed to ASCII file 'State_singlet_A_1_Transition.txt'
  Transition density matrix of state singlet_A_2 printed to ASCII file 'State_singlet_A_2_Transition.txt'
  Transition density matrix of state singlet_A_3 printed to ASCII file 'State_singlet_A_3_Transition.txt'
  Transition density matrix of state singlet_A_4 printed to ASCII file 'State_singlet_A_4_Transition.txt'
  Transition density matrix of state singlet_A_5 printed to ASCII file 'State_singlet_A_5_Transition.txt'
  Transition density matrix of state singlet_A_6 printed to ASCII file 'State_singlet_A_6_Transition.txt'
  Transition density matrix of state singlet_A_7 printed to ASCII file 'State_singlet_A_7_Transition.txt'
  Transition density matrix of state singlet_A_8 printed to ASCII file 'State_singlet_A_8_Transition.txt'
  Transition density matrix of state singlet_A_9 printed to ASCII file 'State_singlet_A_9_Transition.txt'
  Transition density matrix of state singlet_A_10 printed to ASCII file 'State_singlet_A_10_Transition.txt'
  Transition properties ...  CPU 0.16 s  wall 0.42 s
  Difference density matrix of state singlet_A_1 printed to ASCII file 'State_singlet_A_1_Difference.txt'
  Total density matrix of state singlet_A_1 printed to ASCII file 'State_singlet_A_1_Total.txt'
  Difference density matrix of state singlet_A_2 printed to ASCII file 'State_singlet_A_2_Difference.txt'
  Total density matrix of state singlet_A_2 printed to ASCII file 'State_singlet_A_2_Total.txt'
  Difference density matrix of state singlet_A_3 printed to ASCII file 'State_singlet_A_3_Difference.txt'
  Total density matrix of state singlet_A_3 printed to ASCII file 'State_singlet_A_3_Total.txt'
  Difference density matrix of state singlet_A_4 printed to ASCII file 'State_singlet_A_4_Difference.txt'
  Total density matrix of state singlet_A_4 printed to ASCII file 'State_singlet_A_4_Total.txt'
  Difference density matrix of state singlet_A_5 printed to ASCII file 'State_singlet_A_5_Difference.txt'
  Total density matrix of state singlet_A_5 printed to ASCII file 'State_singlet_A_5_Total.txt'
  Difference density matrix of state singlet_A_6 printed to ASCII file 'State_singlet_A_6_Difference.txt'
  Total density matrix of state singlet_A_6 printed to ASCII file 'State_singlet_A_6_Total.txt'
  Difference density matrix of state singlet_A_7 printed to ASCII file 'State_singlet_A_7_Difference.txt'
  Total density matrix of state singlet_A_7 printed to ASCII file 'State_singlet_A_7_Total.txt'
  Difference density matrix of state singlet_A_8 printed to ASCII file 'State_singlet_A_8_Difference.txt'
  Total density matrix of state singlet_A_8 printed to ASCII file 'State_singlet_A_8_Total.txt'
  Difference density matrix of state singlet_A_9 printed to ASCII file 'State_singlet_A_9_Difference.txt'
  Total density matrix of state singlet_A_9 printed to ASCII file 'State_singlet_A_9_Total.txt'
  Difference density matrix of state singlet_A_10 printed to ASCII file 'State_singlet_A_10_Difference.txt'
  Total density matrix of state singlet_A_10 printed to ASCII file 'State_singlet_A_10_Total.txt'
  Properties ...  CPU 0.30 s  wall 0.58 s
  ISR TDMS ...  CPU 8.88 s  wall 3.16 s
  ISR transition properties ...  CPU 0.17 s  wall 0.08 s
  Sum-over-states TPA ...  CPU 0.00 s  wall 0.00 s

--------------------------------------------------------------------------------
                   State-averaged natural transition orbitals
--------------------------------------------------------------------------------
--------------------------------------------------------------------------------
  SA-NTO decomposition ...  CPU 0.01 s  wall 0.02 s

--------------------------------------------------------------------------------
                             Excited State Summary
--------------------------------------------------------------------------------
--------------------------------------------------------------------------------

  Excited state 1 (singlet, A)                                     [converged]
  ----------------------------------------------------------------------------
  Term symbol:  2 (1) A                                     R^2 =  2.75403e-13

  Total energy:                                            -77.9985628272 a.u.
  Excitation energy:                                               8.736338 eV

  Osc. strength:                                                      0.444754
  Trans. dip. moment [a.u.]:           [   1.044435,   -0.993486,   -0.008736]
  <i|r^2|0> [a.u.]:                    [   6.162920,   -0.245677,   -0.005498]
  Two-photon absorption cross-section (SoS) [a.u.]:                   0.000454
  Two-photon absorption matrix (SoS) [a.u.]:
                                       |    0.006287   -0.000859    0.001448 |
                                       |   -0.000859    0.000571   -0.001468 |
                                       |    0.001448   -0.001468    0.003363 |
  Two-photon absorption cross-section [a.u.]:                         0.007448
  Two-photon absorption matrix [a.u.]:
                                       |   -0.000473   -0.004204    0.023377 |
                                       |   -0.004204   -0.009513    0.017240 |
                                       |    0.023377    0.017240    0.006533 |

  Dip. moment [a.u.]:                  [  -0.000481,    0.000539,   -0.002806]
  Total dipole [Debye]:                                               0.007365
  <r^2> [a.u.]:                        [ 176.117160,   35.646429,   11.866369]
  Total <r^2> [a.u.]:                                               223.629958

  V1^2 = 0.9714, V2^2 = 0.0286

  Important amplitudes:
      occ i     occ j     vir a      vir b          v   
    -----------------------------------------------------
     8 (A) A              9 (A) A                -0.6806
     6 (A) A             14 (A) A                -0.0622
     4 (A) A             10 (A) A                -0.0606
     7 (A) A             16 (A) A                 0.0569
     5 (A) A             13 (A) A                -0.0513
     6 (A) A             23 (A) A                -0.0485
     8 (A) A             20 (A) A                -0.0349
     6 (A) A             19 (A) A                -0.0308
     3 (A) A             12 (A) A                 0.0281
     7 (A) A              9 (A) A                 0.0249
     5 (A) A             22 (A) A                 0.0215
     7 (A) A             11 (A) A                 0.0209
     4 (A) A             24 (A) A                -0.0187
     3 (A) A             26 (A) A                -0.0185
     8 (A) A   8 (A) B   17 (A) A   20 (A) B      0.0184
     8 (A) A   8 (A) B    9 (A) A   28 (A) B     -0.0166
     6 (A) A             26 (A) A                -0.0163
     7 (A) A             21 (A) A                 0.0148
     3 (A) A             14 (A) A                -0.0139
     6 (A) A             12 (A) A                -0.0132
     3 (A) A   4 (A) B    9 (A) A    9 (A) B      0.0129
     3 (A) A             19 (A) A                -0.0119
     8 (A) A   8 (A) B   18 (A) A   19 (A) B      0.0113
     7 (A) A             32 (A) A                 0.0096
     7 (A) A             36 (A) A                 0.0086
     3 (A) A             23 (A) A                -0.0080
     8 (A) A   8 (A) B   25 (A) A   29 (A) B      0.0076
     6 (A) A             35 (A) A                -0.0072
     6 (A) A             40 (A) A                -0.0068
     3 (A) A   6 (A) B    9 (A) A   28 (A) B     -0.0064
     6 (A) A   8 (A) A   19 (A) A   28 (A) A      0.0060
     5 (A) A   7 (A) B    9 (A) A    9 (A) B     -0.0060
     5 (A) A   8 (A) B   11 (A) A   20 (A) B      0.0059
     7 (A) A   8 (A) B   13 (A) A   20 (A) B     -0.0059
     5 (A) A   8 (A) B   16 (A) A    9 (A) B      0.0059
     5 (A) A   8 (A) B   11 (A) A    9 (A) B     -0.0059
     3 (A) A   5 (A) B    9 (A) A   25 (A) B      0.0058
     3 (A) A             40 (A) A                -0.0057
     7 (A) A   8 (A) B   22 (A) A   20 (A) B      0.0057
     6 (A) A   8 (A) A    9 (A) A   18 (A) A      0.0057
    -----------------------------------------------------

  Density matrix analysis:
  ------------------------
  NOs
    Occupation of frontier NOs:
       0.9496   1.0216
    Number of electrons: 16.000000
    Number of unpaired electrons: n_u =  2.31342, n_u,nl =  2.03264
    NO participation ratio (PR_NO):  2.863544
  
  
  Mulliken Population Analysis
  Atom      Charge (e)              h+              e-           Del q
  --------------------------------------------------------------------
   1 H        0.058699        0.020434       -0.012538        0.007897
   2 C       -0.116081        0.490466       -0.506027       -0.015562
   3 H        0.058264        0.020364       -0.012607        0.007757
   4 C       -0.117378        0.490313       -0.506211       -0.015898
   5 H        0.057931        0.020348       -0.012549        0.007800
   6 H        0.058565        0.020515       -0.012509        0.008006
  --------------------------------------------------------------------
  Sum:        0.000000        1.062441       -1.062441        0.000000
  
  Multipole moment analysis of the density matrix
    Molecular charge:                      0.000000
    Number of electrons:                   16.000000
      Center of electronic charge [Ang]: [ -1.560560,  -0.065620,   0.001446]
    Total nuclear charge:                  16.000000
      Center of nuclear charge [Ang]:    [ -1.560576,  -0.065602,   0.001353]
    Dipole moment [D]:                     0.007365
      Cartesian components [D]:          [ -0.001222,   0.001371,  -0.007132]
    RMS size of the density [Ang]:         1.214194
      Cartesian components [Ang]:        [  0.804373,   0.787128,   0.455720]
  
  Exciton analysis of the difference density matrix
    <r_h> [Ang]:                  [ -1.560313,  -0.065880,   0.002557]
    <r_e> [Ang]:                  [ -1.560309,  -0.065799,   0.002830]
    |<r_e - r_h>| [Ang]:            0.000286
    Hole size [Ang]:                1.285799
      Cartesian components [Ang]: [  0.728986,   0.713151,   0.783117]
    Electron size [Ang]:            1.463157
      Cartesian components [Ang]: [  0.853932,   0.830445,   0.849700]

  Transition density matrix analysis:
  -----------------------------------
  
  CT numbers (Mulliken)
    omega =     0.9535
    <Phe> =    -0.1605
  
  Exciton analysis of the transition density matrix
    Trans. dipole moment [D]:             1.831969
      Cartesian components [D]:         [  1.327344,  -1.262595,  -0.011102]
    <r_h> [Ang]:                        [ -1.560140,  -0.065968,   0.002377]
    <r_e> [Ang]:                        [ -1.560329,  -0.065791,   0.003019]
    |<r_e - r_h>| [Ang]:                  0.000692
    Hole size [Ang]:                      1.214728
      Cartesian components [Ang]:       [  0.650428,   0.637189,   0.804050]
    Electron size [Ang]:                  1.485938
      Cartesian components [Ang]:       [  0.864333,   0.839306,   0.869773]
    RMS electron-hole separation [Ang]:   1.936962
      Cartesian components [Ang]:       [  1.107100,   1.075481,   1.170253]
    Covariance(r_h, r_e) [Ang^2]:        -0.034124
    Correlation coefficient:             -0.018905
    Center-of-mass size [Ang]:            0.950701
      Cartesian components [Ang]:       [  0.527870,   0.515807,   0.599273]

  Decomposition into state-averaged NTOs
    H- 0 -> L+ 0: -0.6695 ( 89.6%)
    H- 2 -> L+ 5: -0.0836 (  1.4%)
                   omega =  95.3%
  ----------------------------------------------------------------------------


  Excited state 2 (singlet, A)                                     [converged]
  ----------------------------------------------------------------------------
  Term symbol:  3 (1) A                                     R^2 =  1.51675e-13

  Total energy:                                            -77.9868483366 a.u.
  Excitation energy:                                               9.055106 eV

  Osc. strength:                                                      0.000774
  Trans. dip. moment [a.u.]:           [   0.043637,   -0.039688,    0.003102]
  <i|r^2|0> [a.u.]:                    [   0.191487,   -0.089177,    0.145102]
  Two-photon absorption cross-section (SoS) [a.u.]:                   4.897376
  Two-photon absorption matrix (SoS) [a.u.]:
                                       |   -0.059741   -0.057159    0.539552 |
                                       |   -0.057159   -0.053670    0.555059 |
                                       |    0.539552    0.555059    0.113783 |
  Two-photon absorption cross-section [a.u.]:                         0.081247
  Two-photon absorption matrix [a.u.]:
                                       |   -0.023294    0.005216   -0.057544 |
                                       |    0.005216    0.037735   -0.075746 |
                                       |   -0.057544   -0.075746   -0.013904 |

  Dip. moment [a.u.]:                  [  -0.003201,    0.010663,   -0.004693]
  Total dipole [Debye]:                                               0.030709
  <r^2> [a.u.]:                        [ 174.529565,   33.972412,   13.167629]
  Total <r^2> [a.u.]:                                               221.669606

  V1^2 = 0.9542, V2^2 = 0.0458

  Important amplitudes:
      occ i     occ j     vir a      vir b          v   
    -----------------------------------------------------
     7 (A) A              9 (A) A                -0.6688
     8 (A) A             11 (A) A                 0.1482
     7 (A) A             20 (A) A                -0.0758
     5 (A) A   8 (A) B    9 (A) A    9 (A) B     -0.0316
     8 (A) A             16 (A) A                -0.0273
     8 (A) A              9 (A) A                -0.0243
     8 (A) A             21 (A) A                 0.0176
     5 (A) A             28 (A) A                 0.0149
     4 (A) A   7 (A) B    9 (A) A   19 (A) B      0.0135
     5 (A) A   7 (A) B    9 (A) A   16 (A) B     -0.0134
     7 (A) A   8 (A) B   20 (A) A   17 (A) B      0.0105
     7 (A) A   8 (A) A    9 (A) A   28 (A) A      0.0096
     5 (A) A   8 (A) B    9 (A) A   20 (A) B     -0.0095
     4 (A) A   6 (A) B    9 (A) A   16 (A) B     -0.0091
     5 (A) A   6 (A) A    9 (A) A   23 (A) A      0.0091
     5 (A) A   6 (A) A    9 (A) A   14 (A) A      0.0089
     5 (A) A   6 (A) B    9 (A) A   19 (A) B      0.0087
     4 (A) A   5 (A) A    9 (A) A   10 (A) A     -0.0084
     8 (A) A   7 (A) B    9 (A) A   28 (A) B     -0.0084
     6 (A) A   7 (A) B    9 (A) A   18 (A) B      0.0083
     5 (A) A   6 (A) B    9 (A) A   23 (A) B      0.0080
     3 (A) A   7 (A) B    9 (A) A   18 (A) B     -0.0080
     5 (A) A   7 (A) A    9 (A) A   16 (A) A     -0.0079
     4 (A) A   8 (A) B    9 (A) A   25 (A) B     -0.0077
     7 (A) A   8 (A) B   17 (A) A   20 (A) B      0.0074
     4 (A) A   7 (A) B   19 (A) A    9 (A) B      0.0074
     5 (A) A   5 (A) B    9 (A) A   13 (A) B      0.0072
     7 (A) A   8 (A) B   19 (A) A   18 (A) B      0.0072
     5 (A) A   8 (A) A    9 (A) A   20 (A) A     -0.0069
     4 (A) A   5 (A) B    9 (A) A   18 (A) B      0.0068
     8 (A) A             10 (A) A                -0.0066
     7 (A) A   7 (A) B   20 (A) A   22 (A) B      0.0065
     7 (A) A   8 (A) B   17 (A) A    9 (A) B      0.0065
     5 (A) A   6 (A) B    9 (A) A   14 (A) B      0.0063
     4 (A) A   7 (A) A    9 (A) A   19 (A) A      0.0061
     4 (A) A   5 (A) B   10 (A) A    9 (A) B      0.0061
     5 (A) A   7 (A) B   11 (A) A   20 (A) B      0.0060
     5 (A) A             38 (A) A                -0.0060
     4 (A) A   7 (A) B    9 (A) A   14 (A) B     -0.0060
     4 (A) A   8 (A) A    9 (A) A   25 (A) A     -0.0057
    -----------------------------------------------------

  Density matrix analysis:
  ------------------------
  NOs
    Occupation of frontier NOs:
       0.9579   1.0537
    Number of electrons: 16.000000
    Number of unpaired electrons: n_u =  2.35522, n_u,nl =  2.06270
    NO participation ratio (PR_NO):  3.027204
  
  
  Mulliken Population Analysis
  Atom      Charge (e)              h+              e-           Del q
  --------------------------------------------------------------------
   1 H        0.148645        0.121107       -0.023264        0.097843
   2 C       -0.301334        0.271093       -0.471908       -0.200815
   3 H        0.151849        0.127093       -0.025750        0.101342
   4 C       -0.302171        0.273416       -0.474106       -0.200691
   5 H        0.154614        0.127841       -0.023358        0.104483
   6 H        0.148396        0.123208       -0.025371        0.097837
  --------------------------------------------------------------------
  Sum:        0.000000        1.043758       -1.043758        0.000000
  
  Multipole moment analysis of the density matrix
    Molecular charge:                      0.000000
    Number of electrons:                   16.000000
      Center of electronic charge [Ang]: [ -1.560470,  -0.065955,   0.001508]
    Total nuclear charge:                  16.000000
      Center of nuclear charge [Ang]:    [ -1.560576,  -0.065602,   0.001353]
    Dipole moment [D]:                     0.030709
      Cartesian components [D]:          [ -0.008135,   0.027103,  -0.011927]
    RMS size of the density [Ang]:         1.200080
      Cartesian components [Ang]:        [  0.787090,   0.768263,   0.480057]
  
  Exciton analysis of the difference density matrix
    <r_h> [Ang]:                  [ -1.565415,  -0.063123,   0.001065]
    <r_e> [Ang]:                  [ -1.564032,  -0.068173,   0.002300]
    |<r_e - r_h>| [Ang]:            0.005379
    Hole size [Ang]:                1.485952
      Cartesian components [Ang]: [  0.998414,   1.002092,   0.455011]
    Electron size [Ang]:            1.477170
      Cartesian components [Ang]: [  0.881210,   0.859470,   0.816584]

  Transition density matrix analysis:
  -----------------------------------
  
  CT numbers (Mulliken)
    omega =     0.9218
    <Phe> =    -0.0124
  
  Exciton analysis of the transition density matrix
    Trans. dipole moment [D]:             0.075067
      Cartesian components [D]:         [  0.055457,  -0.050439,   0.003943]
    <r_h> [Ang]:                        [ -1.566079,  -0.062509,   0.000708]
    <r_e> [Ang]:                        [ -1.563652,  -0.068827,   0.002620]
    |<r_e - r_h>| [Ang]:                  0.007032
    Hole size [Ang]:                      1.514401
      Cartesian components [Ang]:       [  1.020827,   1.026440,   0.444684]
    Electron size [Ang]:                  1.474290
      Cartesian components [Ang]:       [  0.871892,   0.848850,   0.832340]
    RMS electron-hole separation [Ang]:   2.093751
      Cartesian components [Ang]:       [  1.326671,   1.317067,   0.942906]
    Covariance(r_h, r_e) [Ang^2]:         0.041600
    Correlation coefficient:              0.018632
    Center-of-mass size [Ang]:            1.066553
      Cartesian components [Ang]:       [  0.679065,   0.673354,   0.472229]

  Decomposition into state-averaged NTOs
    H- 1 -> L+ 0: -0.6612 ( 87.4%)
    H- 0 -> L+ 2: -0.1482 (  4.4%)
                   omega =  92.2%
  ----------------------------------------------------------------------------


  Excited state 3 (singlet, A)                                     [converged]
  ----------------------------------------------------------------------------
  Term symbol:  4 (1) A                                     R^2 =  1.67301e-13

  Total energy:                                            -77.9825696362 a.u.
  Excitation energy:                                               9.171535 eV

  Osc. strength:                                                      0.025226
  Trans. dip. moment [a.u.]:           [   0.010761,    0.023453,   -0.334064]
  <i|r^2|0> [a.u.]:                    [   0.086901,   -0.015495,    0.002042]
  Two-photon absorption cross-section (SoS) [a.u.]:                   0.183049
  Two-photon absorption matrix (SoS) [a.u.]:
                                       |    0.146420    0.007797   -0.005779 |
                                       |    0.007797   -0.150754   -0.015298 |
                                       |   -0.005779   -0.015298   -0.023510 |
  Two-photon absorption cross-section [a.u.]:                         0.099432
  Two-photon absorption matrix [a.u.]:
                                       |    0.098278    0.009158   -0.011135 |
                                       |    0.009158   -0.116895   -0.012155 |
                                       |   -0.011135   -0.012155   -0.015524 |

  Dip. moment [a.u.]:                  [   0.006950,    0.013463,    0.004168]
  Total dipole [Debye]:                                               0.039941
  <r^2> [a.u.]:                        [ 180.904576,   40.610954,   11.021872]
  Total <r^2> [a.u.]:                                               232.537401

  V1^2 = 0.9587, V2^2 = 0.0413

  Important amplitudes:
      occ i     occ j     vir a      vir b          v   
    -----------------------------------------------------
     8 (A) A             10 (A) A                 0.6891
     8 (A) A             24 (A) A                 0.0507
     8 (A) A             18 (A) A                -0.0312
     4 (A) A              9 (A) A                 0.0238
     8 (A) A   8 (A) B    9 (A) A   12 (A) B     -0.0219
     8 (A) A   8 (A) B   10 (A) A   17 (A) B      0.0173
     8 (A) A             15 (A) A                 0.0169
     5 (A) A   8 (A) B   11 (A) A   10 (A) B      0.0165
     7 (A) A   8 (A) B   13 (A) A   10 (A) B     -0.0141
     4 (A) A   8 (A) B   12 (A) A   10 (A) B     -0.0111
     6 (A) A   8 (A) A   10 (A) A   15 (A) A     -0.0110
     7 (A) A   8 (A) B   22 (A) A   10 (A) B      0.0108
     6 (A) A   8 (A) B   15 (A) A   10 (A) B      0.0108
     4 (A) A   8 (A) A   10 (A) A   12 (A) A      0.0106
     7 (A) A   8 (A) A   10 (A) A   22 (A) A     -0.0099
     7 (A) A   8 (A) A   10 (A) A   13 (A) A      0.0097
     5 (A) A   8 (A) B   21 (A) A   10 (A) B      0.0094
     5 (A) A   8 (A) A   10 (A) A   11 (A) A     -0.0094
     6 (A) A   8 (A) A   10 (A) A   18 (A) A     -0.0088
     6 (A) A   8 (A) B   10 (A) A   10 (A) B     -0.0087
     7 (A) A   8 (A) A   12 (A) A   16 (A) A      0.0082
     5 (A) A   8 (A) A   10 (A) A   21 (A) A     -0.0080
     3 (A) A   4 (A) B   10 (A) A    9 (A) B     -0.0079
     4 (A) A   8 (A) B   19 (A) A   10 (A) B      0.0075
     8 (A) A   8 (A) B    9 (A) A   23 (A) B     -0.0075
     8 (A) A   8 (A) B   10 (A) A   28 (A) B      0.0072
     3 (A) A   8 (A) B   10 (A) A   10 (A) B      0.0072
     5 (A) A   8 (A) B   10 (A) A   11 (A) B      0.0071
     3 (A) A   8 (A) A   10 (A) A   24 (A) A     -0.0071
     7 (A) A   8 (A) B   16 (A) A   12 (A) B     -0.0070
     7 (A) A              9 (A) A                -0.0069
     3 (A) A   8 (A) B   10 (A) A   18 (A) B     -0.0069
     8 (A) A   8 (A) B    9 (A) A   19 (A) B      0.0068
     6 (A) A   8 (A) B   18 (A) A   10 (A) B      0.0067
     3 (A) A   6 (A) B   10 (A) A   28 (A) B      0.0062
     7 (A) A   8 (A) B   12 (A) A   11 (A) B      0.0058
     6 (A) A             28 (A) A                -0.0056
     3 (A) A   5 (A) B   10 (A) A   25 (A) B     -0.0056
     5 (A) A   8 (A) A   10 (A) A   16 (A) A      0.0056
     3 (A) A   8 (A) A   10 (A) A   18 (A) A     -0.0056
    -----------------------------------------------------

  Density matrix analysis:
  ------------------------
  NOs
    Occupation of frontier NOs:
       0.9815   0.9849
    Number of electrons: 16.000000
    Number of unpaired electrons: n_u =  2.28537, n_u,nl =  2.02443
    NO participation ratio (PR_NO):  2.692150
  
  
  Mulliken Population Analysis
  Atom      Charge (e)              h+              e-           Del q
  --------------------------------------------------------------------
   1 H       -0.161966        0.053923       -0.266692       -0.212768
   2 C        0.327973        0.538623       -0.110131        0.428492
   3 H       -0.166436        0.053733       -0.270675       -0.216942
   4 C        0.326977        0.537710       -0.109253        0.428457
   5 H       -0.162310        0.054007       -0.266447       -0.212441
   6 H       -0.164239        0.053840       -0.268638       -0.214798
  --------------------------------------------------------------------
  Sum:        0.000000        1.291836       -1.291836        0.000000
  
  Multipole moment analysis of the density matrix
    Molecular charge:                      0.000000
    Number of electrons:                   16.000000
      Center of electronic charge [Ang]: [ -1.560806,  -0.066048,   0.001215]
    Total nuclear charge:                  16.000000
      Center of nuclear charge [Ang]:    [ -1.560576,  -0.065602,   0.001353]
    Dipole moment [D]:                     0.039941
      Cartesian components [D]:          [  0.017666,   0.034219,   0.010595]
    RMS size of the density [Ang]:         1.276456
      Cartesian components [Ang]:        [  0.854422,   0.840477,   0.439205]
  
  Exciton analysis of the difference density matrix
    <r_h> [Ang]:                  [ -1.560266,  -0.065985,   0.002051]
    <r_e> [Ang]:                  [ -1.563307,  -0.071212,  -0.000581]
    |<r_e - r_h>| [Ang]:            0.006595
    Hole size [Ang]:                1.410270
      Cartesian components [Ang]: [  0.833949,   0.819862,   0.788173]
    Electron size [Ang]:            2.076163
      Cartesian components [Ang]: [  1.373455,   1.377135,   0.726344]

  Transition density matrix analysis:
  -----------------------------------
  
  CT numbers (Mulliken)
    omega =     0.9259
    <Phe> =    -0.0109
  
  Exciton analysis of the transition density matrix
    Trans. dipole moment [D]:             0.425818
      Cartesian components [D]:         [  0.013675,   0.029806,  -0.424553]
    <r_h> [Ang]:                        [ -1.559715,  -0.065636,   0.002721]
    <r_e> [Ang]:                        [ -1.564125,  -0.073131,  -0.001309]
    |<r_e - r_h>| [Ang]:                  0.009584
    Hole size [Ang]:                      1.212981
      Cartesian components [Ang]:       [  0.636393,   0.623595,   0.823077]
    Electron size [Ang]:                  2.296530
      Cartesian components [Ang]:       [  1.518068,   1.524692,   0.803017]
    RMS electron-hole separation [Ang]:   2.587295
      Cartesian components [Ang]:       [  1.638576,   1.640317,   1.148270]
    Covariance(r_h, r_e) [Ang^2]:         0.025686
    Correlation coefficient:              0.009221
    Center-of-mass size [Ang]:            1.303528
      Cartesian components [Ang]:       [  0.826762,   0.827123,   0.575777]

  Decomposition into state-averaged NTOs
    H- 0 -> L+ 1:  0.6797 ( 92.4%)
                   omega =  92.6%
  ----------------------------------------------------------------------------


  Excited state 4 (singlet, A)                                     [converged]
  ----------------------------------------------------------------------------
  Term symbol:  5 (1) A                                     R^2 =  3.65364e-13

  Total energy:                                            -77.9582122692 a.u.
  Excitation energy:                                               9.834333 eV

  Osc. strength:                                                      0.000126
  Trans. dip. moment [a.u.]:           [  -0.016590,    0.015657,   -0.001994]
  <i|r^2|0> [a.u.]:                    [  -0.115162,   -0.013789,    0.034928]
  Two-photon absorption cross-section (SoS) [a.u.]:                 149.742450
  Two-photon absorption matrix (SoS) [a.u.]:
                                       |   -0.305411   -0.314317    3.012177 |
                                       |   -0.314317   -0.322893    3.041488 |
                                       |    3.012177    3.041488    0.626713 |
  Two-photon absorption cross-section [a.u.]:                        91.982864
  Two-photon absorption matrix [a.u.]:
                                       |   -0.259865   -0.247457    2.353676 |
                                       |   -0.247457   -0.233387    2.390625 |
                                       |    2.353676    2.390625    0.491415 |

  Dip. moment [a.u.]:                  [  -0.017686,   -0.013842,    0.001847]
  Total dipole [Debye]:                                               0.057278
  <r^2> [a.u.]:                        [ 181.185143,   40.543741,   10.758700]
  Total <r^2> [a.u.]:                                               232.487583

  V1^2 = 0.9635, V2^2 = 0.0365

  Important amplitudes:
      occ i     occ j     vir a      vir b          v   
    -----------------------------------------------------
     8 (A) A             11 (A) A                 0.6697
     7 (A) A              9 (A) A                 0.1501
     8 (A) A             21 (A) A                 0.0781
     8 (A) A             16 (A) A                -0.0645
     8 (A) A   8 (A) B    9 (A) A   13 (A) B      0.0167
     5 (A) A   8 (A) B   11 (A) A   11 (A) B      0.0155
     8 (A) A   8 (A) B   11 (A) A   17 (A) B      0.0140
     7 (A) A             20 (A) A                 0.0137
     7 (A) A   8 (A) B   13 (A) A   11 (A) B     -0.0127
     5 (A) A   8 (A) A   11 (A) A   21 (A) A     -0.0110
     4 (A) A   8 (A) B   12 (A) A   11 (A) B     -0.0110
     8 (A) A             12 (A) A                 0.0109
     8 (A) A   8 (A) B    9 (A) A   22 (A) B     -0.0107
     7 (A) A   8 (A) A   11 (A) A   22 (A) A     -0.0096
     6 (A) A   8 (A) B   15 (A) A   11 (A) B      0.0090
     6 (A) A   8 (A) B   10 (A) A   11 (A) B     -0.0090
     7 (A) A   8 (A) B   22 (A) A   11 (A) B      0.0089
     3 (A) A   4 (A) B   11 (A) A    9 (A) B     -0.0083
     3 (A) A   8 (A) B   11 (A) A   18 (A) B     -0.0081
     6 (A) A   8 (A) A   11 (A) A   15 (A) A     -0.0080
     7 (A) A   8 (A) A   13 (A) A   16 (A) A     -0.0078
     7 (A) A   8 (A) A   11 (A) A   13 (A) A      0.0077
     6 (A) A              9 (A) A                -0.0075
     5 (A) A   8 (A) B   21 (A) A   11 (A) B      0.0071
     4 (A) A   8 (A) B   19 (A) A   11 (A) B      0.0070
     5 (A) A   8 (A) B    9 (A) A    9 (A) B      0.0068
     4 (A) A   8 (A) A   11 (A) A   12 (A) A      0.0062
     6 (A) A   8 (A) A   11 (A) A   18 (A) A     -0.0062
     3 (A) A   6 (A) B   11 (A) A   28 (A) B      0.0060
     6 (A) A   8 (A) B   18 (A) A   11 (A) B      0.0060
     7 (A) A   8 (A) B   16 (A) A   13 (A) B      0.0057
     3 (A) A   8 (A) A   11 (A) A   18 (A) A     -0.0056
     5 (A) A   8 (A) B   10 (A) A   10 (A) B      0.0056
     3 (A) A   8 (A) B   11 (A) A   30 (A) B     -0.0055
     3 (A) A   5 (A) B   11 (A) A   25 (A) B     -0.0055
     6 (A) A   8 (A) B   11 (A) A   10 (A) B     -0.0054
     7 (A) A   8 (A) B   12 (A) A   10 (A) B      0.0054
     8 (A) A   8 (A) B   20 (A) A   22 (A) B     -0.0053
     3 (A) A   8 (A) A   11 (A) A   24 (A) A     -0.0053
     5 (A) A   8 (A) A   11 (A) A   16 (A) A      0.0048
    -----------------------------------------------------

  Density matrix analysis:
  ------------------------
  NOs
    Occupation of frontier NOs:
       0.9408   1.0277
    Number of electrons: 16.000000
    Number of unpaired electrons: n_u =  2.31910, n_u,nl =  2.04905
    NO participation ratio (PR_NO):  2.913976
  
  
  Mulliken Population Analysis
  Atom      Charge (e)              h+              e-           Del q
  --------------------------------------------------------------------
   1 H       -0.147357        0.045777       -0.243936       -0.198160
   2 C        0.275239        0.497134       -0.121377        0.375758
   3 H       -0.127909        0.046923       -0.225338       -0.178416
   4 C        0.273245        0.496907       -0.122181        0.374725
   5 H       -0.132749        0.047062       -0.229942       -0.182880
   6 H       -0.140468        0.045819       -0.236847       -0.191027
  --------------------------------------------------------------------
  Sum:        0.000000        1.179621       -1.179621        0.000000
  
  Multipole moment analysis of the density matrix
    Molecular charge:                      0.000000
    Number of electrons:                   16.000000
      Center of electronic charge [Ang]: [ -1.559991,  -0.065145,   0.001292]
    Total nuclear charge:                  16.000000
      Center of nuclear charge [Ang]:    [ -1.560576,  -0.065602,   0.001353]
    Dipole moment [D]:                     0.057278
      Cartesian components [D]:          [ -0.044954,  -0.035183,   0.004694]
    RMS size of the density [Ang]:         1.277157
      Cartesian components [Ang]:        [  0.858772,   0.839848,   0.433929]
  
  Exciton analysis of the difference density matrix
    <r_h> [Ang]:                  [ -1.560000,  -0.065264,   0.002214]
    <r_e> [Ang]:                  [ -1.552278,  -0.058739,   0.000373]
    |<r_e - r_h>| [Ang]:            0.010276
    Hole size [Ang]:                1.394812
      Cartesian components [Ang]: [  0.818141,   0.806915,   0.790592]
    Electron size [Ang]:            2.124181
      Cartesian components [Ang]: [  1.440343,   1.406252,   0.678242]

  Transition density matrix analysis:
  -----------------------------------
  
  CT numbers (Mulliken)
    omega =     0.9298
    <Phe> =    -0.0135
  
  Exciton analysis of the transition density matrix
    Trans. dipole moment [D]:             0.029102
      Cartesian components [D]:         [ -0.021084,   0.019899,  -0.002534]
    <r_h> [Ang]:                        [ -1.560472,  -0.065707,   0.002604]
    <r_e> [Ang]:                        [ -1.550852,  -0.057304,   0.000147]
    |<r_e - r_h>| [Ang]:                  0.013008
    Hole size [Ang]:                      1.227930
      Cartesian components [Ang]:       [  0.657732,   0.650246,   0.807701]
    Electron size [Ang]:                  2.262291
      Cartesian components [Ang]:       [  1.534534,   1.498006,   0.720516]
    RMS electron-hole separation [Ang]:   2.563398
      Cartesian components [Ang]:       [  1.661024,   1.625269,   1.081900]
    Covariance(r_h, r_e) [Ang^2]:         0.027466
    Correlation coefficient:              0.009887
    Center-of-mass size [Ang]:            1.292353
      Cartesian components [Ang]:       [  0.839033,   0.820405,   0.541421]

  Decomposition into state-averaged NTOs
    H- 0 -> L+ 2: -0.6650 ( 88.5%)
    H- 1 -> L+ 0:  0.1481 (  4.4%)
                   omega =  93.0%
  ----------------------------------------------------------------------------


  Excited state 5 (singlet, A)                                     [converged]
  ----------------------------------------------------------------------------
  Term symbol:  6 (1) A                                     R^2 =  4.01238e-13

  Total energy:                                            -77.9443041722 a.u.
  Excitation energy:                                              10.212791 eV

  Osc. strength:                                                      0.000003
  Trans. dip. moment [a.u.]:           [   0.001693,    0.002614,    0.000698]
  <i|r^2|0> [a.u.]:                    [   0.093335,   -0.100566,    0.019877]
  Two-photon absorption cross-section (SoS) [a.u.]:                 178.801654
  Two-photon absorption matrix (SoS) [a.u.]:
                                       |    0.328870    0.033551   -3.360095 |
                                       |    0.033551   -0.358756    3.306938 |
                                       |   -3.360095    3.306938    0.086711 |
  Two-photon absorption cross-section [a.u.]:                        80.217930
  Two-photon absorption matrix [a.u.]:
                                       |    0.237142    0.032493   -2.235612 |
                                       |    0.032493   -0.222695    2.229899 |
[...]
    16   -1.165100002375e-03
    17   -1.765280805938e-03
    18   -1.379092833830e-04
    19   -3.327258607473e-03
    20    1.077828347040e-02
    21    9.355186084529e-01
    22   -2.546032345393e-04
    23    1.399054553055e-02
    24    8.388347769638e-04
    25    7.029455101679e-02
    26   -5.230091363247e-02
    27   -1.399772151940e+00
    28    9.805448155217e-02
    29   -9.255721086932e-02
    30   -1.776967994627e-03
    31    3.854588330474e-01
    32   -3.621323919282e-01
    33   -7.000389780301e-03
    34    1.563319033110e-02
    35   -1.436205483384e-03
    36   -1.889662240089e-03
    37   -4.172884368408e-05
    38   -3.141984384885e-03
    39    9.812456455252e-03
    40    9.317205871350e-01
    41    2.443212378785e-04
    42   -1.392641965089e-02
    43   -8.765605119999e-04
    44    1.015237243895e-02
    45    9.410752976975e-01
    46    1.413663798933e-02
    47    3.831243349821e-04
    48    6.684956512121e-04
Sym=X
Ene= 0.232995
Spin=Alpha
Occup=0
     1    2.607448784761e-02
     2    1.233321158085e+00
     3   -1.432923056872e-02
     4   -3.818341746828e-03
     5   -7.453477871174e-04
     6    2.928610933433e-03
     7   -3.330383146312e-03
     8   -4.690003090969e-02
     9   -1.548474903851e-01
    10   -1.586981490552e-01
    11   -1.466189933323e-02
    12   -5.568079202329e-01
    13   -5.584059862570e-01
    14   -5.122147254674e-02
    15    5.302986261145e-04
    16    1.339713359251e-04
    17    1.105529295387e-05
    18   -2.201516107747e-04
    19   -3.540177358369e-04
    20   -2.513372012665e-02
    21   -1.161471481170e+00
    22   -2.502426303285e-03
    23   -1.358953630312e-02
    24   -8.511164310266e-04
    25   -2.520161454074e-03
    26    3.002825650087e-03
    27    3.582778392434e-02
    28   -1.537623035252e-01
    29   -1.592223478121e-01
    30   -1.761490248972e-02
    31   -5.473809550157e-01
    32   -5.562735933702e-01
    33   -6.295439056803e-02
    34   -4.340875747227e-04
    35    7.510468180720e-05
    36   -1.044008702223e-04
    37    3.895308126512e-04
    38    3.149412200969e-04
    39    2.506593448394e-02
    40    1.161879623523e+00
    41   -2.474654089387e-03
    42   -1.367519183701e-02
    43   -1.010397892184e-03
    44   -2.616016655927e-02
    45   -1.219731412966e+00
    46   -1.419257645486e-02
    47   -3.744487123858e-03
    48   -9.138256522715e-04
Sym=X
Ene= 0.239419
Spin=Alpha
Occup=0
     1   -1.596151318147e-02
     2   -1.054752596350e+00
     3    1.659192069542e-02
     4    9.126893993803e-03
     5    1.142337551736e-03
     6   -8.652203379387e-02
     7    7.973155205669e-02
     8    1.594183860399e+00
     9    5.351983586828e-02
    10   -6.029657630136e-02
    11   -2.539949236550e-03
    12    2.128537288387e-01
    13   -2.345061893940e-01
    14   -9.597588787647e-03
    15   -2.260143085362e-02
    16    2.339249869833e-03
    17    2.937384976854e-03
    18   -4.742655086516e-04
    19    1.288420344924e-02
    20   -1.689931127575e-02
    21   -1.122743065114e+00
    22   -8.552649774785e-03
    23   -1.774317489668e-02
    24   -1.492056201078e-03
    25    8.640817410560e-02
    26   -7.928186519203e-02
    27   -1.595549741099e+00
    28    5.362694783832e-02
    29   -6.085952622798e-02
    30   -7.598359176619e-04
    31    2.119321700453e-01
    32   -2.399421546567e-01
    33   -2.398148270601e-03
    34    2.261565475226e-02
    35   -2.613182852651e-03
    36   -2.901290420429e-03
    37    7.247376750184e-04
    38   -1.278533273114e-02
    39    1.680891424129e-02
    40    1.128149686614e+00
    41   -8.621498058463e-03
    42   -1.786990541191e-02
    43   -1.435877801555e-03
    44    1.564104294601e-02
    45    1.050637410669e+00
    46    1.645610599938e-02
    47    9.274703942588e-03
    48    1.323592254662e-03
Sym=X
Ene= 0.303267
Spin=Alpha
Occup=0
     1   -2.082533435979e-02
     2    1.692660804918e+00
     3   -2.292319135838e-02
     4    2.785907172546e-04
     5   -9.087726531127e-04
     6   -2.154280353119e-04
     7    1.794071675251e-04
     8    1.550981252435e-03
     9   -1.339790791015e-01
    10   -1.396753366156e-01
    11   -1.329794227865e-02
    12   -1.145071114658e+00
    13   -1.194017022057e+00
    14   -1.179447011493e-01
    15   -6.468541450247e-05
    16   -1.262500888210e-03
    17    2.054792242754e-03
    18   -3.267970986645e-02
    19   -1.623856299436e-03
    20    1.991030619976e-02
    21   -1.690336442037e+00
    22    1.442555010051e-03
    23   -2.291496156497e-02
    24   -1.250262034636e-03
    25    9.970741626065e-05
    26    2.583755760534e-04
    27   -9.248294047002e-03
    28    1.346600650754e-01
    29    1.401871814088e-01
    30    1.501865264194e-02
    31    1.139758461760e+00
    32    1.197695788892e+00
    33    1.235035852104e-01
    34    6.427573536921e-05
    35   -1.672903440123e-03
    36    1.772504946044e-03
    37   -3.251161579204e-02
    38   -1.686310081230e-03
    39    1.955326369061e-02
    40   -1.691701903273e+00
    41   -1.616592288109e-03
    42    2.283339139987e-02
    43    1.264240867085e-03
    44   -2.011889117881e-02
    45    1.698495865146e+00
    46    2.304580351536e-02
    47   -3.628341623199e-04
    48    1.123629104058e-03
Sym=X
Ene= 0.462081
Spin=Alpha
Occup=0
     1   -1.151450344766e-01
     2   -7.159744346944e-01
     3   -1.567010555529e-02
     4   -1.033645506761e-02
     5   -1.248564749409e-03
     6    6.081125019951e-02
     7    1.731354245621e-02
     8   -3.591828400381e+00
     9    1.030894450093e-01
    10   -9.896958367977e-02
    11   -2.691650995301e-03
    12    2.427045040654e+00
    13   -2.303058198184e+00
    14   -2.488973546652e-02
    15    5.367318984765e-02
    16   -2.920759554839e-03
    17   -4.312551941545e-03
    18   -7.522786685264e-04
    19    1.798559726685e-02
    20   -1.210720597991e-01
    21   -7.021751558786e-01
    22    8.706116774769e-03
    23    1.638628135876e-02
    24    1.212365517194e-03
    25   -6.095881975448e-02
    26   -1.624784622044e-02
    27    3.591912506952e+00
    28    1.051715991075e-01
    29   -1.003714147076e-01
    30   -1.548536569583e-03
    31    2.423151464609e+00
    32   -2.299061605878e+00
    33   -1.969953043717e-02
    34   -5.270050058045e-02
    35    3.176044127728e-03
    36    4.807110153986e-03
    37    6.613662632785e-04
    38   -1.902844887624e-02
    39    1.153396738078e-01
    40    7.093087345655e-01
    41    8.584403530873e-03
    42    1.625275094674e-02
    43    1.427632973084e-03
    44    1.108219451796e-01
    45    7.182673215272e-01
    46   -1.544970950592e-02
    47   -9.951019111484e-03
    48   -1.354774924986e-03
Sym=X
Ene= 0.577523
Spin=Alpha
Occup=0
     1    2.467748122943e-01
     2    4.221122320718e-02
     3   -1.846027641063e-02
     4    2.567000233638e-02
     5    7.585156431157e-04
     6   -4.478338314591e-03
     7   -1.572472717159e-01
     8   -4.654668997907e-01
     9    2.987394809411e-01
    10   -2.879774943388e-01
    11   -2.951607443275e-03
    12   -7.210925861441e-01
    13    6.969166111176e-01
    14    1.027803864320e-02
    15   -5.854389772051e-03
    16    3.780200127163e-03
    17    3.534329132672e-03
    18   -4.411802750168e-03
    19    6.023011318970e-02
    20    2.552961844346e-01
    21    2.943252570739e-02
    22   -2.643847457501e-02
    23    1.646604722851e-02
    24   -1.095853479842e-04
    25   -5.618489296300e-03
    26   -1.579489221989e-01
    27   -4.108179710531e-01
    28   -2.974539864552e-01
    29    2.853052279630e-01
    30    2.983478944773e-03
    31    7.619812128839e-01
    32   -7.322562394520e-01
    33   -9.268481003532e-03
    34   -5.851274586262e-03
    35    3.849356574396e-03
    36    3.525223060711e-03
    37   -3.812250720775e-03
    38    6.018670457149e-02
    39    2.506886233240e-01
    40    4.963641379298e-02
    41    2.722239026414e-02
    42   -1.702162124683e-02
    43    2.485094944860e-04
    44    2.489806750110e-01
    45    5.594767857599e-02
    46    1.844853546119e-02
    47   -2.586044525033e-02
    48   -6.915728201428e-04
Sym=X
Ene= 0.615125
Spin=Alpha
Occup=0
     1   -5.220816979402e-01
     2    1.985424775915e-01
     3   -6.132529545179e-02
     4    3.756684422889e-02
     5   -4.224299293349e-04
     6   -5.915275095145e-04
     7   -7.118352754055e-05
     8   -1.647378000382e-02
     9   -4.065469972043e-02
    10   -3.860636953683e-02
    11   -4.531059453396e-03
    12    3.069324045289e-01
    13    2.792342997709e-01
    14    2.642463821639e-02
    15    1.977904316630e-03
    16   -6.351094833627e-03
    17    8.805596137457e-03
    18   -1.479570544587e-01
    19   -6.453598152621e-03
    20    5.082839120632e-01
    21   -2.050906335070e-01
    22    4.177674358973e-02
    23   -5.843602422106e-02
    24   -1.868926790075e-03
    25    4.156724890642e-04
    26   -9.868352217712e-04
    27    2.550213933285e-02
    28   -3.999013073934e-02
    29   -4.032195280173e-02
    30   -3.742597589029e-03
    31    3.038902374417e-01
    32    2.888622951124e-01
    33    3.404463427812e-02
    34   -1.466182316793e-03
    35    7.365518331808e-03
    36   -8.167840093466e-03
    37    1.491213498178e-01
    38    6.295783778042e-03
    39   -5.147180833955e-01
    40    2.075044807885e-01
    41    4.092512270802e-02
    42   -5.857453118689e-02
    43   -1.428827612665e-03
    44    5.219172794571e-01
    45   -2.040364424650e-01
    46   -6.148671475636e-02
    47    3.760097797453e-02
    48   -5.169938145261e-04
Sym=X
Ene= 0.689157
Spin=Alpha
Occup=0
     1   -2.349774763978e-04
     2    4.629803378583e-03
     3    1.818407557830e-04
     4    1.021833971127e-03
     5   -2.115708722515e-02
     6   -2.754296468719e-06
     7   -2.452615729021e-03
     8    3.231400866522e-03
     9    2.854965999747e-02
    10    3.748573389112e-02
    11   -6.705908969676e-01
    12   -2.971659089245e-02
    13   -2.964566026519e-02
    14    6.139465837464e-01
    15   -7.323896978909e-04
    16    8.263489365266e-02
    17   -7.838356215832e-02
    18   -8.790749959702e-03
    19   -1.117467251928e-03
    20    3.698792272701e-04
    21    1.783910795524e-03
    22    6.146246951044e-04
    23    1.673235530580e-03
    24   -2.091424087343e-02
    25   -1.447109578493e-04
    26   -1.048344133577e-03
    27   -1.242309845485e-03
    28    3.089473360943e-02
    29    4.107842633723e-02
    30   -6.701075893214e-01
    31   -3.309767380519e-02
    32   -3.429679752897e-02
    33    6.132059066966e-01
    34    1.824447697204e-03
    35   -8.287175858648e-02
    36    7.840075946878e-02
    37    7.768747867282e-03
    38    6.586750766997e-04
    39   -2.014591382544e-03
    40   -2.579756195105e-03
    41    9.205095052955e-04
    42    1.103130181581e-03
    43   -2.108611856189e-02
    44   -2.687404072679e-03
    45    2.789419384342e-04
    46    1.369626485529e-03
    47    1.755357015603e-03
    48   -2.100140932418e-02
Sym=X
Ene= 0.708993
Spin=Alpha
Occup=0
     1   -4.750523780730e-01
     2    1.560961885392e-01
     3   -8.068246302290e-02
     4   -4.426384266518e-02
     5   -6.040397411755e-03
     6   -4.773824863371e-02
     7   -3.203636933254e-01
     8    5.086535809972e-01
     9    2.032983792899e-01
    10   -1.926094263313e-01
    11   -1.304350740739e-04
    12   -9.523754186820e-02
    13    8.057380483977e-02
    14   -5.023605401910e-03
    15    1.941835307403e-01
    16   -1.892300729504e-02
    17   -2.280822138948e-02
    18    3.109679528693e-03
    19   -7.752274192683e-02
    20   -4.779537615915e-01
    21    1.496514162966e-01
    22    4.102141145276e-02
    23    8.165503634589e-02
    24    6.309365832568e-03
    25   -4.681569577634e-02
    26   -3.209850079624e-01
    27    4.653532288027e-01
    28   -2.042263854365e-01
    29    1.914958776384e-01
    30    3.905937670650e-03
    31    6.620854234544e-02
    32   -5.238080758346e-02
    33    5.985513368799e-04
    34    1.938605821937e-01
    35   -2.008312077786e-02
    36   -2.369590322826e-02
    37    2.444254732731e-03
    38   -7.567231146884e-02
    39   -4.730947334640e-01
    40    1.359160463554e-01
    41   -4.068626171880e-02
    42   -8.111309531262e-02
    43   -6.518322059082e-03
    44   -4.747301648210e-01
    45    1.469726150885e-01
    46    8.058417354253e-02
    47    4.404858197899e-02
    48    6.625578867360e-03
Sym=X
Ene= 0.784618
Spin=Alpha
Occup=0
     1    5.267354296274e-01
     2   -4.667570533314e-01
     3    1.103148513930e-01
     4    2.602420822397e-02
     5    6.029670430855e-03
     6    9.103495947887e-02
     7   -2.150627151001e-01
     8   -6.426522578248e-01
     9    1.112024032758e-01
    10   -1.053543366267e-01
    11   -4.170907138882e-03
    12    3.146233900308e-01
    13   -2.934494925917e-01
    14    4.468546520549e-03
    15   -2.068627994654e-01
    16    1.470142131585e-02
    17    2.123687886532e-02
    18   -1.091606885061e-03
    19    9.353565031940e-03
    20    5.366995982213e-01
    21   -4.688233453880e-01
    22   -2.037387955899e-02
    23   -1.124939417010e-01
    24   -7.238462477337e-03
    25   -9.133533980626e-02
    26    2.134249819460e-01
    27    6.544130828879e-01
    28    1.117302173295e-01
    29   -1.060175801989e-01
    30    3.307664921077e-03
    31    3.092220889217e-01
    32   -2.867552417986e-01
    33   -1.002634877120e-02
    34    2.074699700077e-01
    35   -1.780880829666e-02
    36   -2.243201808184e-02
    37    1.894298039561e-03
    38   -8.673036414888e-03
    39   -5.411851277023e-01
    40    4.663928456200e-01
    41   -2.046752761644e-02
    42   -1.128632943074e-01
    43   -7.705549025668e-03
    44   -5.311310456298e-01
    45    4.642439314209e-01
    46    1.099288979290e-01
    47    2.668371225463e-02
    48    6.902978294178e-03
Sym=X
Ene= 0.807969
Spin=Alpha
Occup=0
     1    2.251834447348e-03
     2    7.481433755468e-04
     3   -7.521349052557e-04
     4   -2.448747806767e-03
     5    3.390662701227e-02
     6    3.943044300449e-04
     7    2.718862670428e-04
     8   -1.452483646286e-03
     9   -3.023952040550e-02
    10   -4.301303673742e-02
    11    7.633744303824e-01
    12    4.722521112742e-02
    13    6.007448332149e-02
    14   -1.127620304907e+00
    15   -2.456912945387e-03
    16    6.529759664273e-02
    17   -6.166082378817e-02
    18   -7.553782508805e-03
    19   -1.161882237631e-03
    20    2.449592945998e-03
    21   -7.144866023387e-03
    22   -1.550828974846e-03
    23   -3.543993089620e-03
    24    3.439319906384e-02
    25   -5.024795771899e-04
    26    2.133606770295e-03
    27    1.900121919656e-04
    28    3.829593504812e-02
    29    4.559482522236e-02
    30   -7.631019085168e-01
    31   -5.441877034539e-02
    32   -7.023734302432e-02
    33    1.126772182858e+00
    34    2.541719006951e-04
    35    6.519014573192e-02
    36   -6.201924298094e-02
    37   -5.495999219439e-03
    38   -4.777376210023e-04
    39   -2.487344962436e-03
    40    6.421510682491e-03
    41    1.334858237992e-03
    42    1.052170933879e-03
    43   -3.432865351846e-02
    44   -2.257847045179e-03
    45   -1.378227544801e-03
    46    1.675433756861e-03
    47    1.664354739847e-03
    48   -3.375962361174e-02
Sym=X
Ene= 0.862291
Spin=Alpha
Occup=0
     1    1.366375089451e-02
     2   -1.095889621500e+00
     3    1.485108482461e-01
     4    5.635805218324e-02
     5    9.131455305815e-03
     6    2.924743333727e-04
     7    1.222326039068e-04
     8    1.587926928766e-03
     9   -4.065099066195e-01
    10   -4.291883259921e-01
    11   -3.885683636380e-02
    12    9.476825625422e-01
    13    9.992546603303e-01
    14    9.095000399731e-02
    15   -1.144397409300e-03
    16    1.071021736061e-02
    17   -1.362470572845e-02
    18    2.354551505091e-01
    19    9.395903533720e-03
    20   -1.313144848257e-02
    21    1.103035967701e+00
    22    5.033502103030e-02
    23    1.512477226794e-01
    24    1.122370909556e-02
    25   -1.496506777042e-04
    26    2.401853125861e-03
    27   -3.050113250167e-03
    28   -4.064820223094e-01
    29   -4.298839400626e-01
    30   -4.753142362810e-02
    31    9.466336393882e-01
    32    1.002791926982e+00
    33    1.103571343150e-01
    34    5.162236442404e-04
    35   -1.096443647205e-02
    36    1.357300550563e-02
    37   -2.365741679918e-01
    38   -1.016094039354e-02
    39    1.200124938161e-02
    40   -1.102813714964e+00
    41    4.892042322093e-02
    42    1.516348787189e-01
    43    1.149067549520e-02
    44   -1.195980743711e-02
    45    1.095713486676e+00
    46    1.489293920022e-01
    47    5.566354190711e-02
    48    1.005812602028e-02
Sym=X
Ene= 0.935999
Spin=Alpha
Occup=0
     1   -1.133044262449e-01
     2    1.278267234460e+00
     3   -1.811551622930e-01
     4    5.677364046856e-03
     5   -7.277067448334e-03
     6   -1.409147507196e-04
     7   -4.253281151918e-03
     8   -1.857805488406e-04
     9    4.719196753994e-01
    10    5.009364700877e-01
    11    4.884874350667e-02
    12   -1.463710259635e+00
    13   -1.545144445890e+00
    14   -1.514017908354e-01
    15   -4.714898451487e-04
    16   -4.461990636520e-03
    17    6.775569132110e-03
    18   -1.206901719828e-01
    19   -1.589037470785e-03
    20    1.170675088892e-01
    21   -1.290190622061e+00
    22    1.133376126849e-02
    23   -1.832890078041e-01
    24   -9.818113936302e-03
    25    1.276396887969e-04
    26   -1.664427670647e-03
    27    4.476700109591e-03
    28   -4.755737568056e-01
    29   -4.961962960321e-01
    30   -5.157123976887e-02
    31    1.472953960896e+00
    32    1.529177077746e+00
    33    1.589125673924e-01
    34   -9.145547776916e-04
    35   -6.915274035726e-03
    36    6.786036358602e-03
    37   -1.204563836129e-01
    38   -5.314103728746e-03
    39    1.166012780406e-01
    40   -1.279850662965e+00
    41   -1.357113432821e-02
    42    1.819073909352e-01
    43    9.984452646384e-03
    44   -1.150047749954e-01
    45    1.287058636595e+00
    46    1.818560906246e-01
    47   -5.339534837116e-03
    48    8.671614571494e-03
Sym=X
Ene= 0.972496
Spin=Alpha
Occup=0
     1   -6.457217474495e-02
     2    9.310764052747e-01
     3   -9.166034768446e-02
     4   -9.854956792774e-02
     5   -9.053096849619e-03
     6    2.528454987623e-02
     7    2.524307867110e-01
     8    5.194264206302e-01
     9    4.825972072310e-01
    10   -4.525956990509e-01
    11   -6.569131391767e-03
    12   -1.501117649524e+00
    13    1.401081847089e+00
    14    1.884614068898e-02
    15   -5.358016764935e-02
    16   -1.217023693500e-02
    17   -9.618184175180e-03
    18    1.286687168042e-02
    19   -3.015016903651e-01
    20   -6.266947804356e-02
    21    9.044244128230e-01
    22    9.529630907088e-02
    23    9.233667227874e-02
    24    1.018896544280e-02
    25   -2.513485556252e-02
    26   -2.386616875506e-01
    27   -5.422955814524e-01
    28    4.766983589503e-01
    29   -4.565420770008e-01
    30   -4.213185773371e-03
    31   -1.479392702400e+00
    32    1.422047867720e+00
    33    1.320011257581e-02
    34    5.263515861064e-02
    35    1.216150912272e-02
    36    9.451413169755e-03
    37   -1.436007713162e-02
    38    2.991397637158e-01
    39    6.224915523988e-02
    40   -9.139818382554e-01
    41    9.425520181218e-02
    42    9.350852387834e-02
    43    9.864865771325e-03
    44    6.614123026253e-02
    45   -9.076794644525e-01
    46   -8.860419519290e-02
    47   -9.793188189715e-02
    48   -9.681749646300e-03
[5D]

======= END OF MOLDEN-FORMATTED INPUT FILE =======


        *************************************************************
        *                                                           *
        *  Thank you very much for using Q-Chem.  Have a nice day.  *
        *                                                           *
        *************************************************************


