                  Welcome to Q-Chem
     A Quantum Leap Into The Future Of Chemistry


 Q-Chem 5.4 (devel), Q-Chem, Inc., Pleasanton, CA (2021)

 E. Epifanovsky,  A. T. B. Gilbert,  Xintian Feng,  Joonho Lee,  Yuezhi Mao,  
 N. Mardirossian,  P. Pokhilko,  A. White,  M. Wormit,  M. P. Coons,  
 A. L. Dempwolff,  Zhengting Gan,  D. Hait,  P. R. Horn,  L. D. Jacobson,  
 I. Kaliman,  J. Kussmann,  A. W. Lange,  Ka Un Lao,  D. S. Levine,  Jie Liu,  
 S. C. McKenzie,  A. F. Morrison,  K. Nanda,  F. Plasser,  D. R. Rehn,  
 M. L. Vidal,  Zhi-Qiang You,  Ying Zhu,  B. Alam,  B. Albrecht,  
 A. Aldossary,  E. Alguire,  J. H. Andersen,  D. Barton,  K. Begam,  A. Behn,  
 Y. A. Bernard,  E. J. Berquist,  H. Burton,  A. Carreras,  K. Carter-Fenk,  
 R. Chakraborty,  A. D. Chien,  K. D. Closser,  V. Cofer-Shabica,  
 S. Dasgupta,  Jia Deng,  M. de Wergifosse,  M. Diedenhofen,  Hainam Do,  
 S. Ehlert,  Po-Tung Fang,  S. Fatehi,  Qingguo Feng,  T. Friedhoff,  
 J. Gayvert,  Qinghui Ge,  G. Gidofalvi,  M. Goldey,  J. Gomes,  
 C. Gonzalez-Espinoza,  S. Gulania,  A. Gunina,  M. W. D. Hanson-Heine,  
 P. H. P. Harbach,  A. W. Hauser,  M. F. Herbst,  M. Hernandez Vera,  
 M. Hodecker,  Z. C. Holden,  S. Houck,  Xunkun Huang,  Kerwin Hui,  
 B. C. Huynh,  M. Ivanov,  Hyunjun Ji,  Hanjie Jiang,  B. Kaduk,  S. Kaehler,  
 K. Khistyaev,  Jaehoon Kim,  P. Klunzinger,  Z. Koczor-Benda,  
 Joong Hoon Koh,  D. Kosenkov,  L. Koulias,  T. Kowalczyk,  C. M. Krauter,  
 K. Kue,  A. Kunitsa,  T. Kus,  A. Landau,  K. V. Lawler,  D. Lefrancois,  
 S. Lehtola,  Rain Li,  Yi-Pei Li,  Jiashu Liang,  M. Liebenthal,  
 Hung-Hsuan Lin,  You-Sheng Lin,  Fenglai Liu,  Kuan-Yu Liu,  
 M. Loipersberger,  A. Luenser,  A. Manjanath,  P. Manohar,  E. Mansoor,  
 S. F. Manzer,  Shan-Ping Mao,  A. V. Marenich,  T. Markovich,  S. Mason,  
 S. A. Maurer,  P. F. McLaughlin,  M. F. S. J. Menger,  J.-M. Mewes,  
 S. A. Mewes,  P. Morgante,  J. W. Mullinax,  K. J. Oosterbaan,  G. Paran,  
 Alexander C. Paul,  Suranjan K. Paul,  F. Pavosevic,  Zheng Pei,  S. Prager,  
 E. I. Proynov,  E. Ramos,  B. Rana,  A. E. Rask,  A. Rettig,  R. M. Richard,  
 F. Rob,  E. Rossomme,  T. Scheele,  M. Scheurer,  M. Schneider,  
 N. Sergueev,  S. M. Sharada,  W. Skomorowski,  D. W. Small,  C. J. Stein,  
 Yu-Chuan Su,  E. J. Sundstrom,  Zhen Tao,  J. Thirman,  T. Tsuchimochi,  
 N. M. Tubman,  S. P. Veccham,  O. Vydrov,  J. Wenzel,  J. Witte,  A. Yamada,  
 Kun Yao,  S. Yeganeh,  S. R. Yost,  A. Zech,  Igor Ying Zhang,  Xing Zhang,  
 Yu Zhang,  D. Zuev,  A. Aspuru-Guzik,  A. T. Bell,  N. A. Besley,  
 K. B. Bravaya,  B. R. Brooks,  D. Casanova,  Jeng-Da Chai,  S. Coriani,  
 C. J. Cramer,  A. E. DePrince, III,  R. A. DiStasio Jr.,  A. Dreuw,  
 B. D. Dunietz,  T. R. Furlani,  W. A. Goddard III,  S. Grimme,  
 S. Hammes-Schiffer,  T. Head-Gordon,  W. J. Hehre,  Chao-Ping Hsu,  
 T.-C. Jagau,  Yousung Jung,  A. Klamt,  Jing Kong,  D. S. Lambrecht,  
 WanZhen Liang,  N. J. Mayhall,  C. W. McCurdy,  J. B. Neaton,  
 C. Ochsenfeld,  J. A. Parkhill,  R. Peverati,  V. A. Rassolov,  Yihan Shao,  
 L. V. Slipchenko,  T. Stauch,  R. P. Steele,  J. E. Subotnik,  
 A. J. W. Thom,  A. Tkatchenko,  D. G. Truhlar,  T. Van Voorhis,  
 T. A. Wesolowski,  K. B. Whaley,  H. L. Woodcock III,  P. M. Zimmerman,  
 S. Faraji,  P. M. W. Gill,  M. Head-Gordon,  J. M. Herbert,  A. I. Krylov

 Additional authors for Version 5.4.1: 
 S. Kotaru,  Shaozhi Li,  Xiangyuan Li,  F. Matz,  A. Molle,  Haisheng Ren,  
 Yingli Su,  Hung-Yi Tsai,  C. Utku,  Fang Wang

 Contributors to earlier versions of Q-Chem not listed above: 
 R. D. Adamson,  B. Austin,  R. Baer,  J. Baker,  G. J. O. Beran,  
 K. Brandhorst,  S. T. Brown,  E. F. C. Byrd,  A. K. Chakraborty,  
 G. K. L. Chan,  Chun-Min Chang,  Yunqing Chen,  C.-L. Cheng,  
 Siu Hung Chien,  D. M. Chipman,  D. L. Crittenden,  H. Dachsel,  
 R. J. Doerksen,  A. D. Dutoi,  R. G. Edgar,  J. Fosso-Tande,  
 L. Fusti-Molnar,  D. Ghosh,  A. Ghysels,  A. Golubeva-Zadorozhnaya,  
 J. Gonthier,  M. S. Gordon,  S. R. Gwaltney,  G. Hawkins,  J. E. Herr,  
 A. Heyden,  S. Hirata,  E. G. Hohenstein,  G. Kedziora,  F. J. Keil,  
 C. Kelley,  Jihan Kim,  R. A. King,  R. Z. Khaliullin,  P. P. Korambath,  
 W. Kurlancheek,  A. Laurent,  A. M. Lee,  M. S. Lee,  S. V. Levchenko,  
 Ching Yeh Lin,  D. Liotard,  E. Livshits,  R. C. Lochan,  I. Lotan,  
 L. A. Martinez-Martinez,  P. E. Maslen,  N. Nair,  D. P. O'Neill,  
 D. Neuhauser,  E. Neuscamman,  C. M. Oana,  R. Olivares-Amaya,  R. Olson,  
 T. M. Perrine,  B. Peters,  P. A. Pieniazek,  A. Prociuk,  Y. M. Rhee,  
 J. Ritchie,  M. A. Rohrdanz,  E. Rosta,  N. J. Russ,  H. F. Schaefer III,  
 M. W. Schmidt,  N. E. Schultz,  S. Sharma,  N. Shenvi,  C. D. Sherrill,  
 A. C. Simmonett,  A. Sodt,  T. Stein,  D. Stuck,  K. S. Thanthiriwatte,  
 V. Vanovschi,  L. Vogt,  Tao Wang,  A. Warshel,  M. A. Watson,  
 C. F. Williams,  Q. Wu,  X. Xu,  Jun Yang,  W. Zhang,  Yan Zhao

 Please cite Q-Chem as follows:
 Y. Shao et al., Mol. Phys. 113, 184-215 (2015)
 DOI: 10.1080/00268976.2014.952696

 Q-Chem 5.4.1 for Intel X86 EM64T Linux

 Parts of Q-Chem use Armadillo 9.800.1 (Horizon Scraper).
 http://arma.sourceforge.net/

 Q-Chem begins on Wed Mar 15 16:19:38 2023  

 Host: cpu121.yggdrasil
0

     Scratch files written to /srv/beegfs/scratch/users/f/fum/qchem68124//
 Processing $rem in /home/share/wesolowski/qc5.aug2021.FDE/config/preferences:
 Processing $rem in /home/fum/.qchemrc:

 Checking the input file for inconsistencies... 	...done.

--------------------------------------------------------------
User input:
--------------------------------------------------------------
$comment
generated from CCJob.Templates
$end

$rem
sym_ignore = true
method = adc(2)
ee_states = 10
basis = cc-pVDZ
mem_static = 1024
mem_total = 40000
adc_davidson_maxiter = 900
adc_davidson_conv = 6
adc_print = 3
adc_prop_es = true
adc_prop_es2es = true
adc_prop_tpa = true
molden_format = True
state_analysis = true
print_orbitals = 15
gen_scfman = false
fde_export_density = true
fde_details = 3
$end

$molecule
0 1
H -0.0348278765 -0.2442097827 0.0636489606
C -1.0765972949 -0.5242748755 -0.0023551776
H -1.313264467 -1.5767591607 -0.0757276926
C -2.043634118 0.3926884087 0.0061254933
H -1.8537616575 1.4459188338 0.0804456828
H -3.085977293 0.114931858 -0.0593381042                     
$end
--------------------------------------------------------------
 ----------------------------------------------------------------
             Standard Nuclear Orientation (Angstroms)
    I     Atom           X                Y                Z
 ----------------------------------------------------------------
    1      H      -0.0348278765    -0.2442097827     0.0636489606
    2      C      -1.0765972949    -0.5242748755    -0.0023551776
    3      H      -1.3132644670    -1.5767591607    -0.0757276926
    4      C      -2.0436341180     0.3926884087     0.0061254933
    5      H      -1.8537616575     1.4459188338     0.0804456828
    6      H      -3.0859772930     0.1149318580    -0.0593381042
 ----------------------------------------------------------------
 Nuclear Repulsion Energy =          33.43619749 hartrees
 There are        8 alpha and        8 beta electrons
 Requested basis set is cc-pVDZ
 There are 24 shells and 48 basis functions
 Total memory of 40000 MB is distributed as follows: 
   MEM_STATIC is set to 1024 MB
   QALLOC/CCMAN JOB total memory use is  38976 MB
 Warning: actual memory use might exceed 40000 MB

 Total QAlloc Memory Limit  40000 MB
 Mega-Array Size      1001 MB
 MEM_STATIC part      1024 MB

                       Distance Matrix (Angstroms)
             H (  1)   C (  2)   H (  3)   C (  4)   H (  5)
   C (  2)  1.080776
   H (  3)  1.851895  1.081258
   C (  4)  2.108139  1.332687  2.102109
   H (  5)  2.483010  2.119553  3.074591  1.072786
   H (  6)  3.074674  2.109370  2.450428  1.080700  1.819181

 A cutoff of  1.0D-11 yielded    300 shell pairs
 There are      1220 function pairs (      1329 Cartesian)
 Smallest overlap matrix eigenvalue = 4.80E-03

 Scale SEOQF with 1.000000e-01/1.000000e-01/1.000000e+00

 Standard Electronic Orientation quadrupole field applied
 Nucleus-field energy     =     0.0000000022 hartrees
 Guess from superposition of atomic densities
 Warning:  Energy on first SCF cycle will be non-variational
 SAD guess density has 16.000000 electrons
 A restricted Hartree-Fock SCF calculation will be
 performed using Pulay DIIS extrapolation
 SCF converges when DIIS error is below 1.0E-08
 using 10 threads for integral computing
 -------------------------------------------------------
 OpenMP Integral computing Module                
 Release: version 1.0, May 2013, Q-Chem Inc. Pittsburgh 
 -------------------------------------------------------
 ---------------------------------------
  Cycle       Energy         DIIS Error
 ---------------------------------------
    1     -78.4431532555      1.01E-01
    2     -78.0175063051      7.21E-03
    3     -78.0381479382      1.85E-03
    4     -78.0396310245      5.73E-04
    5     -78.0397527322      6.04E-05
    6     -78.0397546572      1.40E-05
    7     -78.0397547464      5.51E-06
    8     -78.0397547577      9.57E-07
    9     -78.0397547584      1.52E-07
   10     -78.0397547584      4.93E-08
   11     -78.0397547584      7.90E-09 Convergence criterion met
 ---------------------------------------
 SCF time:  CPU 2.00 s  wall 2.91 s
 SCF   energy in the final basis set = -78.03975476
 Total energy in the final basis set = -78.03975476
Exporting Density Matrix to file 'Densmat_SCF.txt'.
Export successful
================================================================================
|                                                                              |
|                                 A D C  M A N                                 |
|                                                                              |
 ------------------------------------------------------------------------------ 
|                                                                              |
| Components:                                                                  |
|                                                                              |
| - libvmm - 1.3-trunk                                                         |
|   Authors:                                                                   |
|   Evgeny Epifanovsky, Ilya Kaliman                                           |
|                                                                              |
| - libtensor - 2.5-trunk                                                      |
|   Authors:                                                                   |
|   Evgeny Epifanovsky, Michael Wormit, Dmitry Zuev, Sam Manzer,               |
|   Ilya Kaliman                                                               |
|                                                                              |
| - libwfa - 1.1-trunk                                                         |
|   Authors:                                                                   |
|   Felix Plasser, Stefanie Mewes (Baeppler), Benjamin Thomitzni,              |
|   Michael Wormit, Feng Chen, Anna I. Krylov, Pavel Pokhilko                  |
|                                                                              |
| - libadc - 1.1-trunk                                                         |
|   Authors:                                                                   |
|   Michael Wormit, Adrian L. Dempwolff, Philipp H. P. Harbach,                |
|   Caroline Krauter, Dirk Rehn, Matthias Schneider, Jan Wenzel                |
|                                                                              |
| - adcman - 2.6-trunk                                                         |
|   Authors:                                                                   |
|   Michael Wormit, Adrian L. Dempwolff, Philipp H. P. Harbach,                |
|   Caroline Krauter, Daniel Lefrancois, Jan-Michael Mewes, Dirk Rehn,         |
|   Matthias Schneider, Jan Wenzel, Andreas Dreuw                              |
|                                                                              |
| Authors of earlier versions of ADCMAN:                                       |
| Andreas Dreuw, Jan Hendrik Starcke, Dirk Rehn, Michael Wormit                |
|                                                                              |
================================================================================

 Created directory /srv/beegfs/scratch/users/f/fum/qchem68124/plots
  Import QC data ...  CPU 0.00 s  wall 0.01 s

 Alpha MOs, Restricted
 -- Occupied --                  
-11.235 -11.233  -1.032  -0.792  -0.640  -0.585  -0.504  -0.374
  1 A     2 A     3 A     4 A     5 A     6 A     7 A     8 A                  
 -- Virtual --                   
  0.168   0.204   0.234   0.239   0.304   0.464   0.580   0.611
  9 A    10 A    11 A    12 A    13 A    14 A    15 A    16 A                  
  0.689   0.712   0.785   0.808   0.862   0.936   0.974   1.011
 17 A    18 A    19 A    20 A    21 A    22 A    23 A    24 A                  
  1.132   1.234   1.244   1.263   1.295   1.602   1.734   1.768
 25 A    26 A    27 A    28 A    29 A    30 A    31 A    32 A                  
  1.818   1.849   1.869   1.916   1.972   1.985   2.231   2.257
 33 A    34 A    35 A    36 A    37 A    38 A    39 A    40 A                  
  2.373   2.453   2.516   2.653   2.721   2.830   3.132   3.413
 41 A    42 A    43 A    44 A    45 A    46 A    47 A    48 A                  

 Beta MOs, Restricted
 -- Occupied --                  
-11.235 -11.233  -1.032  -0.792  -0.640  -0.585  -0.504  -0.374
  1 A     2 A     3 A     4 A     5 A     6 A     7 A     8 A                  
 -- Virtual --                   
  0.168   0.204   0.234   0.239   0.304   0.464   0.580   0.611
  9 A    10 A    11 A    12 A    13 A    14 A    15 A    16 A                  
  0.689   0.712   0.785   0.808   0.862   0.936   0.974   1.011
 17 A    18 A    19 A    20 A    21 A    22 A    23 A    24 A                  
  1.132   1.234   1.244   1.263   1.295   1.602   1.734   1.768
 25 A    26 A    27 A    28 A    29 A    30 A    31 A    32 A                  
  1.818   1.849   1.869   1.916   1.972   1.985   2.231   2.257
 33 A    34 A    35 A    36 A    37 A    38 A    39 A    40 A                  
  2.373   2.453   2.516   2.653   2.721   2.830   3.132   3.413
 41 A    42 A    43 A    44 A    45 A    46 A    47 A    48 A                  
  Import AO data ...  CPU 0.00 s  wall 0.04 s
  Using point group: C1
  Irreducible representations in point group: A
  Molecular orbitals: 
  Occupied MOs:
  Block   0:   1 (  A) A   2 (  A) A   3 (  A) A   4 (  A) A   5 (  A) A
                  -11.24      -11.23      -1.032     -0.7921     -0.6398
               6 (  A) A   7 (  A) A   8 (  A) A
                 -0.5848     -0.5039      -0.374
  Block   1:   1 (  A) B   2 (  A) B   3 (  A) B   4 (  A) B   5 (  A) B
                  -11.24      -11.23      -1.032     -0.7921     -0.6398
               6 (  A) B   7 (  A) B   8 (  A) B
                 -0.5848     -0.5039      -0.374
  Virtual MOs:
  Block   0:   9 (  A) A  10 (  A) A  11 (  A) A  12 (  A) A  13 (  A) A
                  0.1682      0.2042      0.2337      0.2387      0.3035
              14 (  A) A  15 (  A) A  16 (  A) A  17 (  A) A  18 (  A) A
                   0.464      0.5796      0.6111      0.6891      0.7117
              19 (  A) A  20 (  A) A  21 (  A) A  22 (  A) A
                   0.785      0.8079      0.8623      0.9363
  Block   1:  23 (  A) A  24 (  A) A  25 (  A) A  26 (  A) A  27 (  A) A
                  0.9738       1.011       1.132       1.234       1.244
              28 (  A) A  29 (  A) A  30 (  A) A  31 (  A) A  32 (  A) A
                   1.263       1.295       1.602       1.734       1.768
              33 (  A) A  34 (  A) A  35 (  A) A  36 (  A) A
                   1.818       1.849       1.869       1.916
  Block   2:  37 (  A) A  38 (  A) A  39 (  A) A  40 (  A) A  41 (  A) A
                   1.972       1.985       2.231       2.257       2.373
              42 (  A) A  43 (  A) A  44 (  A) A  45 (  A) A  46 (  A) A
                   2.453       2.516       2.653       2.721        2.83
              47 (  A) A  48 (  A) A
                   3.132       3.413
  Block   3:   9 (  A) B  10 (  A) B  11 (  A) B  12 (  A) B  13 (  A) B
                  0.1682      0.2042      0.2337      0.2387      0.3035
              14 (  A) B  15 (  A) B  16 (  A) B  17 (  A) B  18 (  A) B
                   0.464      0.5796      0.6111      0.6891      0.7117
              19 (  A) B  20 (  A) B  21 (  A) B  22 (  A) B
                   0.785      0.8079      0.8623      0.9363
  Block   4:  23 (  A) B  24 (  A) B  25 (  A) B  26 (  A) B  27 (  A) B
                  0.9738       1.011       1.132       1.234       1.244
              28 (  A) B  29 (  A) B  30 (  A) B  31 (  A) B  32 (  A) B
                   1.263       1.295       1.602       1.734       1.768
              33 (  A) B  34 (  A) B  35 (  A) B  36 (  A) B
                   1.818       1.849       1.869       1.916
  Block   5:  37 (  A) B  38 (  A) B  39 (  A) B  40 (  A) B  41 (  A) B
                   1.972       1.985       2.231       2.257       2.373
              42 (  A) B  43 (  A) B  44 (  A) B  45 (  A) B  46 (  A) B
                   2.453       2.516       2.653       2.721        2.83
              47 (  A) B  48 (  A) B
                   3.132       3.413
  Import MO data ...  CPU 0.00 s  wall 0.00 s
  Import HF data ...  CPU 0.07 s  wall 0.03 s
  Import 2e integrals ...  CPU 0.92 s  wall 0.15 s

--------------------------------------------------------------------------------
                                   HF Summary                                   
--------------------------------------------------------------------------------
  Energy:                                                  -78.0397547584 a.u.
  Dip. moment [a.u.]:                  [  -0.003898,    0.004289,    0.001047]
  Total dipole [Debye]:                                               0.014969
  <r^2> [a.u.]:                        [ 175.839470,   34.883673,   11.617275]
  Total <r^2> [a.u.]:                                               222.340417
--------------------------------------------------------------------------------
  HF properties ...  CPU 0.01 s  wall 0.00 s
  MP(1) calculation ...  CPU 0.01 s  wall 0.00 s
  N^6 prerequesite intermediates ...  CPU 0.44 s  wall 0.07 s
  Difference density matrix of state mp2_gs printed to ASCII file 'State_mp2_gs_Difference.txt'
Exporting MP density matrix to file 'Densmat_MP.txt'.
Export successful
  Total density matrix of state mp2_gs printed to ASCII file 'State_mp2_gs_Total.txt'
Exporting MP density matrix to file 'Densmat_MP.txt'.
Export successful

--------------------------------------------------------------------------------
                                 MP(2) Summary                                  
--------------------------------------------------------------------------------
  MP energy contribution:                                   -0.2795792702 a.u.
  Total energy:                                            -78.3193340286 a.u.
  Dip. moment [a.u.]:                  [  -0.004069,    0.003465,    0.000977]
  Total dipole [Debye]:                                               0.013809
  <r^2> [a.u.]:                        [ 175.883455,   34.926165,   11.449711]
  Total <r^2> [a.u.]:                                               222.259331

  Density matrix analysis:
  ------------------------
  NOs
    Occupation of frontier NOs:
       0.0453   1.9383
    Number of electrons: 16.000000
    Number of unpaired electrons: n_u =  0.40295, n_u,nl =  0.04500
    NO participation ratio (PR_NO): 13.850191
  
  
  Mulliken Population Analysis
  Atom      Charge (e)              h+              e-           Del q
  --------------------------------------------------------------------
   1 H        0.051400        0.014013       -0.011204        0.002808
   2 C       -0.099459        0.093585       -0.098736       -0.005151
   3 H        0.051346        0.014017       -0.011193        0.002825
   4 C       -0.100296        0.092055       -0.098876       -0.006820
   5 H        0.048146        0.014309       -0.011155        0.003153
   6 H        0.048863        0.014315       -0.011130        0.003185
  --------------------------------------------------------------------
  Sum:        0.000000        0.242295       -0.242295       -0.000000
  
  Multipole moment analysis of the density matrix
    Molecular charge:                      0.000000
    Number of electrons:                   16.000000
      Center of electronic charge [Ang]: [ -1.562942,  -0.065717,   0.001946]
    Total nuclear charge:                  16.000000
      Center of nuclear charge [Ang]:    [ -1.563076,  -0.065602,   0.001978]
    Dipole moment [D]:                     0.013809
      Cartesian components [D]:          [ -0.010341,   0.008808,   0.002484]
    RMS size of the density [Ang]:         1.201177
      Cartesian components [Ang]:        [  0.797175,   0.779071,   0.447646]
  
  Exciton analysis of the difference density matrix
    <r_h> [Ang]:                  [ -1.562261,  -0.067930,   0.001688]
    <r_e> [Ang]:                  [ -1.561888,  -0.066131,   0.001840]
    |<r_e - r_h>| [Ang]:            0.001843
    Hole size [Ang]:                1.393718
      Cartesian components [Ang]: [  0.848187,   0.832814,   0.727632]
    Electron size [Ang]:            1.360199
      Cartesian components [Ang]: [  0.878307,   0.861934,   0.579473]
--------------------------------------------------------------------------------
  MP(2) calculation ...  CPU 0.11 s  wall 0.17 s
  Start ADC(2)-s ...  CPU 0.01 s  wall 0.00 s
  ADC(2) intermediates ...  CPU 0.02 s  wall 0.01 s
  Starting Davidson for singlet states of irrep A ... 
--------------------------------------------------------------------------------
   It NVec Conv  Avg. Norm  Max. Norm  Conv. states           Remark
--------------------------------------------------------------------------------
        10    0  1.330e-01  4.700e-01  0.4129 n n n n n n n n Guess.
    1   20    0  2.310e-02  1.120e-01  0.3261 n n n n n n n n 
    2   30    0  5.842e-03  2.529e-02  0.3214 n n n n n n n n 
    3   40    0  1.960e-03  1.288e-02  0.3210 n n n n n n n n 
    4   50    0  6.223e-04  4.410e-03  0.3210 n n n n n n n n 
    5   20    0  2.720e-04  1.896e-03  0.3210 n n n n n n n n Subspace collapsed.
    6   30    0  1.730e-04  1.422e-03  0.3210 n n n n n n n n 
    7   40    0  1.096e-04  8.118e-04  0.3210 n n n n n n n n 
    8   50    0  1.009e-04  8.984e-04  0.3210 n n n n n n n n 
    9   20    2  6.779e-05  6.241e-04  0.3210 n y n y n n n n Subspace collapsed.
   10   30    3  6.565e-05  6.236e-04  0.3210 n y y y n n n n 
   11   40    5  7.520e-05  7.446e-04  0.3210 n y y y y y n n 
   12   50    6  8.832e-05  8.815e-04  0.3210 y y y y y y n n 
   13   20    6  3.595e-05  3.588e-04  0.3210 y y y y y y n n Subspace collapsed.
   14   30    6  2.542e-05  2.538e-04  0.3210 y y y y y y n n 
   15   40    6  2.089e-05  2.086e-04  0.3210 y y y y y y n n 
   16   50    6  2.160e-05  2.159e-04  0.3210 y y y y y y n n 
   17   20    6  1.365e-05  1.364e-04  0.3210 y y y y y y n n Subspace collapsed.
   18   30    6  1.449e-05  1.449e-04  0.3210 y y y y y y n n 
   19   40    8  1.876e-05  1.876e-04  0.3210 y y y y y y y y 
   20   50    8  1.855e-05  1.854e-04  0.3210 y y y y y y y y 
   21   20    9  9.306e-06  9.305e-05  0.3210 y y y y y y y y Subspace collapsed.
   22   30    9  6.217e-06  6.217e-05  0.3210 y y y y y y y y 
   23   32    9  6.245e-06  6.244e-05  0.3210 y y y y y y y y 
   24   34    9  6.066e-06  6.065e-05  0.3210 y y y y y y y y 
   25   35    9  6.126e-06  6.126e-05  0.3210 y y y y y y y y 
   26   36    9  6.118e-06  6.118e-05  0.3210 y y y y y y y y 
   27   36    9  6.118e-06  6.118e-05  0.3210 y y y y y y y y 
   28   46    9  3.337e-06  3.337e-05  0.3210 y y y y y y y y 
   29   50    9  5.245e-06  5.245e-05  0.3210 y y y y y y y y 
   30   16    9  3.141e-06  3.141e-05  0.3210 y y y y y y y y Subspace collapsed.
   31   22    9  3.337e-06  3.337e-05  0.3210 y y y y y y y y 
   32   27    9  4.563e-06  4.563e-05  0.3210 y y y y y y y y 
   33   32    9  4.917e-06  4.917e-05  0.3210 y y y y y y y y 
   34   32    9  4.917e-06  4.917e-05  0.3210 y y y y y y y y 
   35   41    9  3.759e-06  3.759e-05  0.3210 y y y y y y y y 
   36   41    9  3.759e-06  3.759e-05  0.3210 y y y y y y y y 
   37   48    9  1.655e-06  1.655e-05  0.3210 y y y y y y y y 
   38   50    9  8.494e-07  8.494e-06  0.3210 y y y y y y y y 
   39   14    9  4.610e-07  4.610e-06  0.3210 y y y y y y y y Subspace collapsed.
   40   18    9  3.899e-07  3.899e-06  0.3210 y y y y y y y y 
   41   22    9  2.464e-07  2.464e-06  0.3210 y y y y y y y y 
   42   26    9  1.706e-07  1.706e-06  0.3210 y y y y y y y y 
   43   30    9  1.035e-07  1.035e-06  0.3210 y y y y y y y y 
   44   34   10  6.016e-08  6.016e-07  0.3210 y y y y y y y y Converged.
--------------------------------------------------------------------------------
  Davidson Summary: 
 ------------------------------------------------------------
  State  0: excitation energy =   0.3210 a.u.   (converged)
  State  1: excitation energy =   0.3317 a.u.   (converged)
  State  2: excitation energy =   0.3382 a.u.   (converged)
  State  3: excitation energy =   0.3618 a.u.   (converged)
  State  4: excitation energy =   0.3761 a.u.   (converged)
  State  5: excitation energy =   0.3882 a.u.   (converged)
  State  6: excitation energy =   0.4250 a.u.   (converged)
  State  7: excitation energy =   0.4462 a.u.   (converged)
  State  8: excitation energy =   0.4558 a.u.   (converged)
  State  9: excitation energy =   0.4646 a.u.   (converged)
 ------------------------------------------------------------

  Singlet states of irrep A ...  CPU 117.16 s  wall 30.94 s
  TDMs ...  CPU 0.57 s  wall 0.23 s
  SDMs ...  CPU 1.29 s  wall 0.42 s
  Starting TPA DIIS iterations ... 
------------------------------------ 
   It     Res. Norm  Remark
------------------------------------
                       Guess.
    1     4.407e+00  
    2     5.850e+00  
    3     1.083e+00  
    4     2.578e-01  
    5     6.551e-02  
    6     2.697e-02  
    7     8.313e-03  
    8     1.455e-03  
    9     5.373e-04  
   10     9.135e-05  
   11     2.872e-05  
   12     4.610e-06  
   13     1.570e-06  
   14     5.612e-07  Converged.
   ... Converged in 14 steps (norm: 5.61176e-07)
------------------------------------
  Starting TPA DIIS iterations ... 
------------------------------------ 
   It     Res. Norm  Remark
------------------------------------
                       Guess.
    1     4.198e+00  
    2     5.557e+00  
    3     1.026e+00  
    4     2.531e-01  
    5     6.514e-02  
    6     2.663e-02  
    7     8.115e-03  
    8     1.444e-03  
    9     5.386e-04  
   10     8.959e-05  
   11     2.836e-05  
   12     4.538e-06  
   13     1.482e-06  
   14     5.413e-07  Converged.
   ... Converged in 14 steps (norm: 5.41314e-07)
------------------------------------
  Starting TPA DIIS iterations ... 
------------------------------------ 
   It     Res. Norm  Remark
------------------------------------
                       Guess.
    1     6.829e-01  
    2     4.813e-01  
    3     1.709e-01  
    4     5.832e-02  
    5     1.814e-02  
    6     6.629e-03  
    7     1.036e-03  
    8     4.315e-04  
    9     1.307e-04  
   10     2.067e-05  
   11     9.454e-06  
   12     3.264e-06  
   13     2.171e-06  
   14     8.416e-07  Converged.
   ... Converged in 14 steps (norm: 8.41612e-07)
------------------------------------
  Starting TPA DIIS iterations ... 
------------------------------------ 
   It     Res. Norm  Remark
------------------------------------
                       Guess.
    1     4.672e+00  
    2     6.326e+00  
    3     1.158e+00  
    4     2.842e-01  
    5     7.315e-02  
    6     3.036e-02  
    7     9.341e-03  
    8     1.632e-03  
    9     6.067e-04  
   10     1.037e-04  
   11     3.293e-05  
   12     5.344e-06  
   13     1.842e-06  
   14     6.714e-07  Converged.
   ... Converged in 14 steps (norm: 6.71431e-07)
------------------------------------
  Starting TPA DIIS iterations ... 
------------------------------------ 
   It     Res. Norm  Remark
------------------------------------
                       Guess.
    1     4.450e+00  
    2     6.008e+00  
    3     1.097e+00  
    4     2.788e-01  
    5     7.274e-02  
    6     2.998e-02  
    7     9.118e-03  
    8     1.620e-03  
    9     6.086e-04  
   10     1.018e-04  
   11     3.251e-05  
   12     5.268e-06  
   13     1.730e-06  
   14     6.492e-07  Converged.
   ... Converged in 14 steps (norm: 6.49221e-07)
------------------------------------
  Starting TPA DIIS iterations ... 
------------------------------------ 
   It     Res. Norm  Remark
------------------------------------
                       Guess.
    1     6.940e-01  
    2     4.973e-01  
    3     1.800e-01  
    4     6.529e-02  
    5     1.946e-02  
    6     7.187e-03  
    7     1.158e-03  
    8     4.968e-04  
    9     1.515e-04  
   10     2.262e-05  
   11     1.093e-05  
   12     3.820e-06  
   13     2.670e-06  
   14     1.048e-06  
   15     3.828e-07  Converged.
   ... Converged in 15 steps (norm: 3.82849e-07)
------------------------------------
  Starting TPA DIIS iterations ... 
------------------------------------ 
   It     Res. Norm  Remark
------------------------------------
                       Guess.
    1     4.843e+00  
    2     6.637e+00  
    3     1.206e+00  
    4     3.017e-01  
    5     7.823e-02  
    6     3.263e-02  
    7     1.002e-02  
    8     1.749e-03  
    9     6.531e-04  
   10     1.120e-04  
   11     3.578e-05  
   12     5.843e-06  
   13     2.030e-06  
   14     7.494e-07  Converged.
   ... Converged in 14 steps (norm: 7.49357e-07)
------------------------------------
  Starting TPA DIIS iterations ... 
------------------------------------ 
   It     Res. Norm  Remark
------------------------------------
                       Guess.
    1     4.612e+00  
    2     6.303e+00  
    3     1.142e+00  
    4     2.959e-01  
    5     7.780e-02  
    6     3.222e-02  
    7     9.784e-03  
    8     1.738e-03  
    9     6.553e-04  
   10     1.099e-04  
   11     3.532e-05  
   12     5.767e-06  
   13     1.901e-06  
   14     7.259e-07  Converged.
   ... Converged in 14 steps (norm: 7.25947e-07)
------------------------------------
  Starting TPA DIIS iterations ... 
------------------------------------ 
   It     Res. Norm  Remark
------------------------------------
                       Guess.
    1     7.007e-01  
    2     5.073e-01  
    3     1.858e-01  
    4     7.000e-02  
    5     2.029e-02  
    6     7.557e-03  
    7     1.241e-03  
    8     5.411e-04  
    9     1.656e-04  
   10     2.385e-05  
   11     1.195e-05  
   12     4.208e-06  
   13     3.029e-06  
   14     1.199e-06  
   15     4.329e-07  Converged.
   ... Converged in 15 steps (norm: 4.32922e-07)
------------------------------------
  Starting TPA DIIS iterations ... 
------------------------------------ 
   It     Res. Norm  Remark
------------------------------------
                       Guess.
    1     5.569e+00  
    2     7.994e+00  
    3     1.410e+00  
    4     3.810e-01  
    5     1.011e-01  
    6     4.296e-02  
    7     1.311e-02  
    8     2.278e-03  
    9     8.642e-04  
   10     1.500e-04  
   11     4.905e-05  
   12     8.203e-06  
   13     2.951e-06  
   14     1.148e-06  
   15     4.399e-07  Converged.
   ... Converged in 15 steps (norm: 4.39921e-07)
------------------------------------
  Starting TPA DIIS iterations ... 
------------------------------------ 
   It     Res. Norm  Remark
------------------------------------
                       Guess.
    1     5.301e+00  
    2     7.591e+00  
    3     1.335e+00  
    4     3.727e-01  
    5     1.006e-01  
    6     4.245e-02  
    7     1.280e-02  
    8     2.266e-03  
    9     8.684e-04  
   10     1.473e-04  
   11     4.841e-05  
   12     8.141e-06  
   13     2.727e-06  
   14     1.124e-06  
   15     3.273e-07  Converged.
   ... Converged in 15 steps (norm: 3.27256e-07)
------------------------------------
  Starting TPA DIIS iterations ... 
------------------------------------ 
   It     Res. Norm  Remark
------------------------------------
                       Guess.
    1     7.266e-01  
    2     5.477e-01  
    3     2.097e-01  
    4     9.200e-02  
    5     2.377e-02  
    6     9.229e-03  
    7     1.630e-03  
    8     7.416e-04  
    9     2.295e-04  
   10     2.943e-05  
   11     1.687e-05  
   12     6.144e-06  
   13     4.910e-06  
   14     2.004e-06  
   15     6.568e-07  Converged.
   ... Converged in 15 steps (norm: 6.56848e-07)
------------------------------------
  Starting TPA DIIS iterations ... 
------------------------------------ 
   It     Res. Norm  Remark
------------------------------------
                       Guess.
    1     6.097e+00  
    2     9.016e+00  
    3     1.558e+00  
    4     4.430e-01  
    5     1.191e-01  
    6     5.113e-02  
    7     1.552e-02  
    8     2.689e-03  
    9     1.031e-03  
   10     1.800e-04  
   11     5.978e-05  
   12     1.015e-05  
   13     3.742e-06  
   14     1.513e-06  
   15     5.843e-07  Converged.
   ... Converged in 15 steps (norm: 5.84302e-07)
------------------------------------
  Starting TPA DIIS iterations ... 
------------------------------------ 
   It     Res. Norm  Remark
------------------------------------
                       Guess.
    1     5.802e+00  
    2     8.561e+00  
    3     1.474e+00  
    4     4.327e-01  
    5     1.185e-01  
    6     5.055e-02  
    7     1.515e-02  
    8     2.678e-03  
    9     1.037e-03  
   10     1.768e-04  
   11     5.900e-05  
   12     1.012e-05  
   13     3.425e-06  
   14     1.497e-06  
   15     4.453e-07  Converged.
   ... Converged in 15 steps (norm: 4.45298e-07)
------------------------------------
  Starting TPA DIIS iterations ... 
------------------------------------ 
   It     Res. Norm  Remark
------------------------------------
                       Guess.
    1     7.432e-01  
    2     5.750e-01  
    3     2.265e-01  
    4     1.099e-01  
    5     2.632e-02  
    6     1.054e-02  
    7     1.947e-03  
    8     8.899e-04  
    9     2.778e-04  
   10     3.458e-05  
   11     2.106e-05  
   12     7.870e-06  
   13     6.682e-06  
   14     2.760e-06  
   15     8.327e-07  Converged.
   ... Converged in 15 steps (norm: 8.32711e-07)
------------------------------------
  Starting TPA DIIS iterations ... 
------------------------------------ 
   It     Res. Norm  Remark
------------------------------------
                       Guess.
    1     6.614e+00  
    2     1.004e+01  
    3     1.701e+00  
    4     5.068e-01  
    5     1.375e-01  
    6     5.962e-02  
    7     1.801e-02  
    8     3.111e-03  
    9     1.204e-03  
   10     2.112e-04  
   11     7.103e-05  
   12     1.222e-05  
   13     4.613e-06  
   14     1.937e-06  
   15     7.472e-07  Converged.
   ... Converged in 15 steps (norm: 7.47169e-07)
------------------------------------
  Starting TPA DIIS iterations ... 
------------------------------------ 
   It     Res. Norm  Remark
------------------------------------
                       Guess.
    1     6.292e+00  
    2     9.534e+00  
    3     1.609e+00  
    4     4.943e-01  
    5     1.368e-01  
    6     5.896e-02  
    7     1.757e-02  
    8     3.101e-03  
    9     1.212e-03  
   10     2.076e-04  
   11     7.013e-05  
   12     1.226e-05  
   13     4.186e-06  
   14     1.941e-06  
   15     5.940e-07  Converged.
   ... Converged in 15 steps (norm: 5.93995e-07)
------------------------------------
  Starting TPA DIIS iterations ... 
------------------------------------ 
   It     Res. Norm  Remark
------------------------------------
                       Guess.
    1     7.580e-01  
    2     6.004e-01  
    3     2.425e-01  
    4     1.287e-01  
    5     2.888e-02  
    6     1.189e-02  
    7     2.285e-03  
    8     1.029e-03  
    9     3.253e-04  
   10     4.081e-05  
   11     2.568e-05  
   12     9.840e-06  
   13     8.786e-06  
   14     3.640e-06  
   15     1.032e-06  
   16     5.467e-07  Converged.
   ... Converged in 16 steps (norm: 5.46658e-07)
------------------------------------
  Starting TPA DIIS iterations ... 
------------------------------------ 
   It     Res. Norm  Remark
------------------------------------
                       Guess.
    1     8.703e+00  
    2     1.443e+01  
    3     2.270e+00  
    4     7.921e-01  
    5     2.200e-01  
    6     9.839e-02  
    7     2.913e-02  
    8     4.985e-03  
    9     1.988e-03  
   10     3.527e-04  
   11     1.221e-04  
   12     2.222e-05  
   13     9.029e-06  
   14     4.429e-06  
   15     1.602e-06  
   16     8.289e-07  Converged.
   ... Converged in 16 steps (norm: 8.2886e-07)
------------------------------------
  Starting TPA DIIS iterations ... 
------------------------------------ 
   It     Res. Norm  Remark
------------------------------------
                       Guess.
    1     8.275e+00  
    2     1.369e+01  
    3     2.147e+00  
    4     7.687e-01  
    5     2.190e-01  
    6     9.742e-02  
    7     2.842e-02  
    8     4.985e-03  
    9     2.007e-03  
   10     3.475e-04  
   11     1.211e-04  
   12     2.297e-05  
   13     7.992e-06  
   14     4.702e-06  
   15     1.693e-06  
   16     1.265e-06  
   17     4.032e-07  Converged.
   ... Converged in 17 steps (norm: 4.03161e-07)
------------------------------------
  Starting TPA DIIS iterations ... 
------------------------------------ 
   It     Res. Norm  Remark
------------------------------------
                       Guess.
    1     8.067e-01  
    2     6.923e-01  
    3     3.033e-01  
    4     2.148e-01  
    5     3.999e-02  
    6     1.782e-02  
    7     3.878e-03  
    8     1.460e-03  
    9     5.116e-04  
   10     7.520e-05  
   11     4.949e-05  
   12     2.095e-05  
   13     2.148e-05  
   14     8.564e-06  
   15     2.549e-06  
   16     1.394e-06  
   17     3.965e-07  Converged.
   ... Converged in 17 steps (norm: 3.96508e-07)
------------------------------------
  Starting TPA DIIS iterations ... 
------------------------------------ 
   It     Res. Norm  Remark
------------------------------------
                       Guess.
    1     1.044e+01  
    2     1.833e+01  
    3     2.732e+00  
    4     1.055e+00  
    5     2.967e-01  
    6     1.353e-01  
    7     3.947e-02  
    8     6.714e-03  
    9     2.729e-03  
   10     4.858e-04  
   11     1.685e-04  
   12     3.257e-05  
   13     1.375e-05  
   14     7.580e-06  
   15     2.541e-06  
   16     1.447e-06  
   17     2.620e-07  Converged.
   ... Converged in 17 steps (norm: 2.61952e-07)
------------------------------------
  Starting TPA DIIS iterations ... 
------------------------------------ 
   It     Res. Norm  Remark
------------------------------------
                       Guess.
    1     9.924e+00  
    2     1.740e+01  
    3     2.582e+00  
    4     1.021e+00  
    5     2.954e-01  
    6     1.341e-01  
    7     3.849e-02  
    8     6.729e-03  
    9     2.761e-03  
   10     4.796e-04  
   11     1.684e-04  
   12     3.462e-05  
   13     1.213e-05  
   14     8.414e-06  
   15     3.446e-06  
   16     2.402e-06  
   17     7.429e-07  Converged.
   ... Converged in 17 steps (norm: 7.42861e-07)
------------------------------------
  Starting TPA DIIS iterations ... 
------------------------------------ 
   It     Res. Norm  Remark
------------------------------------
                       Guess.
    1     8.383e-01  
    2     7.593e-01  
    3     3.501e-01  
    4     2.922e-01  
    5     5.001e-02  
    6     2.296e-02  
    7     5.396e-03  
    8     1.666e-03  
    9     6.592e-04  
   10     1.094e-04  
   11     7.529e-05  
   12     3.424e-05  
   13     3.714e-05  
   14     1.423e-05  
   15     5.006e-06  
   16     2.442e-06  
   17     6.012e-07  Converged.
   ... Converged in 17 steps (norm: 6.01166e-07)
------------------------------------
  Starting TPA DIIS iterations ... 
------------------------------------ 
   It     Res. Norm  Remark
------------------------------------
                       Guess.
    1     1.141e+01  
    2     2.059e+01  
    3     2.983e+00  
    4     1.209e+00  
    5     3.421e-01  
    6     1.574e-01  
    7     4.557e-02  
    8     7.731e-03  
    9     3.171e-03  
   10     5.648e-04  
   11     1.953e-04  
   12     3.919e-05  
   13     1.685e-05  
   14     9.799e-06  
   15     3.178e-06  
   16     1.884e-06  
   17     3.464e-07  Converged.
   ... Converged in 17 steps (norm: 3.46389e-07)
------------------------------------
  Starting TPA DIIS iterations ... 
------------------------------------ 
   It     Res. Norm  Remark
------------------------------------
                       Guess.
    1     1.084e+01  
    2     1.954e+01  
    3     2.820e+00  
    4     1.167e+00  
    5     3.405e-01  
    6     1.560e-01  
    7     4.444e-02  
    8     7.756e-03  
    9     3.211e-03  
   10     5.582e-04  
   11     1.961e-04  
   12     4.231e-05  
   13     1.496e-05  
   14     1.109e-05  
   15     4.813e-06  
   16     3.228e-06  
   17     9.732e-07  Converged.
   ... Converged in 17 steps (norm: 9.73227e-07)
------------------------------------
  Starting TPA DIIS iterations ... 
------------------------------------ 
   It     Res. Norm  Remark
------------------------------------
                       Guess.
    1     8.534e-01  
    2     7.938e-01  
    3     3.748e-01  
    4     3.347e-01  
    5     5.579e-02  
    6     2.575e-02  
    7     6.284e-03  
    8     1.747e-03  
    9     7.393e-04  
   10     1.293e-04  
   11     9.183e-05  
   12     4.322e-05  
   13     4.774e-05  
   14     1.796e-05  
   15     6.853e-06  
   16     3.159e-06  
   17     7.206e-07  Converged.
   ... Converged in 17 steps (norm: 7.20618e-07)
------------------------------------
  Starting TPA DIIS iterations ... 
------------------------------------ 
   It     Res. Norm  Remark
------------------------------------
                       Guess.
    1     1.243e+01  
    2     2.305e+01  
    3     3.246e+00  
    4     1.377e+00  
    5     3.919e-01  
    6     1.819e-01  
    7     5.227e-02  
    8     8.846e-03  
    9     3.659e-03  
   10     6.517e-04  
   11     2.243e-04  
   12     4.692e-05  
   13     2.055e-05  
   14     1.253e-05  
   15     3.977e-06  
   16     2.429e-06  
   17     4.619e-07  Converged.
   ... Converged in 17 steps (norm: 4.61887e-07)
------------------------------------
  Starting TPA DIIS iterations ... 
------------------------------------ 
   It     Res. Norm  Remark
------------------------------------
                       Guess.
    1     1.181e+01  
    2     2.188e+01  
    3     3.068e+00  
    4     1.327e+00  
    5     3.901e-01  
    6     1.803e-01  
    7     5.098e-02  
    8     8.884e-03  
    9     3.709e-03  
   10     6.449e-04  
   11     2.265e-04  
   12     5.142e-05  
   13     1.847e-05  
   14     1.440e-05  
   15     6.583e-06  
   16     4.265e-06  
   17     1.242e-06  
   18     4.729e-07  Converged.
   ... Converged in 18 steps (norm: 4.72874e-07)
------------------------------------
  Starting TPA DIIS iterations ... 
------------------------------------ 
   It     Res. Norm  Remark
------------------------------------
                       Guess.
    1     8.680e-01  
    2     8.286e-01  
    3     4.000e-01  
    4     3.781e-01  
    5     6.204e-02  
    6     2.859e-02  
    7     7.243e-03  
    8     1.824e-03  
    9     8.230e-04  
   10     1.509e-04  
   11     1.110e-04  
   12     5.398e-05  
   13     6.041e-05  
   14     2.232e-05  
   15     9.173e-06  
   16     4.020e-06  
   17     8.599e-07  Converged.
   ... Converged in 17 steps (norm: 8.59857e-07)
------------------------------------
  Two-photon absorbption ...  CPU 116.98 s  wall 20.95 s
  Transition density matrix of state singlet_A_1 printed to ASCII file 'State_singlet_A_1_Transition.txt'
  Transition density matrix of state singlet_A_2 printed to ASCII file 'State_singlet_A_2_Transition.txt'
  Transition density matrix of state singlet_A_3 printed to ASCII file 'State_singlet_A_3_Transition.txt'
  Transition density matrix of state singlet_A_4 printed to ASCII file 'State_singlet_A_4_Transition.txt'
  Transition density matrix of state singlet_A_5 printed to ASCII file 'State_singlet_A_5_Transition.txt'
  Transition density matrix of state singlet_A_6 printed to ASCII file 'State_singlet_A_6_Transition.txt'
  Transition density matrix of state singlet_A_7 printed to ASCII file 'State_singlet_A_7_Transition.txt'
  Transition density matrix of state singlet_A_8 printed to ASCII file 'State_singlet_A_8_Transition.txt'
  Transition density matrix of state singlet_A_9 printed to ASCII file 'State_singlet_A_9_Transition.txt'
  Transition density matrix of state singlet_A_10 printed to ASCII file 'State_singlet_A_10_Transition.txt'
  Transition properties ...  CPU 0.16 s  wall 3.07 s
  Difference density matrix of state singlet_A_1 printed to ASCII file 'State_singlet_A_1_Difference.txt'
  Total density matrix of state singlet_A_1 printed to ASCII file 'State_singlet_A_1_Total.txt'
  Difference density matrix of state singlet_A_2 printed to ASCII file 'State_singlet_A_2_Difference.txt'
  Total density matrix of state singlet_A_2 printed to ASCII file 'State_singlet_A_2_Total.txt'
  Difference density matrix of state singlet_A_3 printed to ASCII file 'State_singlet_A_3_Difference.txt'
  Total density matrix of state singlet_A_3 printed to ASCII file 'State_singlet_A_3_Total.txt'
  Difference density matrix of state singlet_A_4 printed to ASCII file 'State_singlet_A_4_Difference.txt'
  Total density matrix of state singlet_A_4 printed to ASCII file 'State_singlet_A_4_Total.txt'
  Difference density matrix of state singlet_A_5 printed to ASCII file 'State_singlet_A_5_Difference.txt'
  Total density matrix of state singlet_A_5 printed to ASCII file 'State_singlet_A_5_Total.txt'
  Difference density matrix of state singlet_A_6 printed to ASCII file 'State_singlet_A_6_Difference.txt'
  Total density matrix of state singlet_A_6 printed to ASCII file 'State_singlet_A_6_Total.txt'
  Difference density matrix of state singlet_A_7 printed to ASCII file 'State_singlet_A_7_Difference.txt'
  Total density matrix of state singlet_A_7 printed to ASCII file 'State_singlet_A_7_Total.txt'
  Difference density matrix of state singlet_A_8 printed to ASCII file 'State_singlet_A_8_Difference.txt'
  Total density matrix of state singlet_A_8 printed to ASCII file 'State_singlet_A_8_Total.txt'
  Difference density matrix of state singlet_A_9 printed to ASCII file 'State_singlet_A_9_Difference.txt'
  Total density matrix of state singlet_A_9 printed to ASCII file 'State_singlet_A_9_Total.txt'
  Difference density matrix of state singlet_A_10 printed to ASCII file 'State_singlet_A_10_Difference.txt'
  Total density matrix of state singlet_A_10 printed to ASCII file 'State_singlet_A_10_Total.txt'
  Properties ...  CPU 0.27 s  wall 2.37 s
  ISR TDMS ...  CPU 8.08 s  wall 2.71 s
  ISR transition properties ...  CPU 0.15 s  wall 0.07 s
  Sum-over-states TPA ...  CPU 0.00 s  wall 0.00 s

--------------------------------------------------------------------------------
                   State-averaged natural transition orbitals
--------------------------------------------------------------------------------
--------------------------------------------------------------------------------
  SA-NTO decomposition ...  CPU 0.01 s  wall 0.30 s

--------------------------------------------------------------------------------
                             Excited State Summary
--------------------------------------------------------------------------------
--------------------------------------------------------------------------------

  Excited state 1 (singlet, A)                                     [converged]
  ----------------------------------------------------------------------------
  Term symbol:  2 (1) A                                     R^2 =  4.92022e-14

  Total energy:                                            -77.9983662266 a.u.
  Excitation energy:                                               8.733978 eV

  Osc. strength:                                                      0.445069
  Trans. dip. moment [a.u.]:           [  -1.048667,    0.990046,    0.008739]
  <i|r^2|0> [a.u.]:                    [  -6.192427,    0.257255,    0.000884]
  Two-photon absorption cross-section (SoS) [a.u.]:                   0.019390
  Two-photon absorption matrix (SoS) [a.u.]:
                                       |   -0.038158    0.013768    0.001438 |
                                       |    0.013768    0.000305    0.002089 |
                                       |    0.001438    0.002089   -0.028385 |
  Two-photon absorption cross-section [a.u.]:                         0.013477
  Two-photon absorption matrix [a.u.]:
                                       |   -0.015792    0.016283   -0.002325 |
                                       |    0.016283    0.044202   -0.001827 |
                                       |   -0.002325   -0.001827   -0.024729 |

  Dip. moment [a.u.]:                  [  -0.003939,    0.002157,    0.001149]
  Total dipole [Debye]:                                               0.011782
  <r^2> [a.u.]:                        [ 176.634828,   35.616314,   11.861010]
  Total <r^2> [a.u.]:                                               224.112152

  V1^2 = 0.9715, V2^2 = 0.0285

  Important amplitudes:
      occ i     occ j     vir a      vir b          v   
    -----------------------------------------------------
     8 (A) A              9 (A) A                -0.6811
     6 (A) A             14 (A) A                 0.0620
     4 (A) A             10 (A) A                 0.0598
     7 (A) A             16 (A) A                 0.0577
     5 (A) A             13 (A) A                 0.0514
     6 (A) A             23 (A) A                 0.0479
     8 (A) A             20 (A) A                -0.0347
     6 (A) A             19 (A) A                 0.0312
     3 (A) A             12 (A) A                -0.0282
     5 (A) A             22 (A) A                -0.0214
     7 (A) A             11 (A) A                 0.0194
     4 (A) A             24 (A) A                 0.0187
     8 (A) A   8 (A) B   17 (A) A   20 (A) B      0.0184
     3 (A) A             26 (A) A                -0.0182
     8 (A) A   8 (A) B    9 (A) A   28 (A) B      0.0168
     6 (A) A             26 (A) A                -0.0164
     7 (A) A             21 (A) A                 0.0143
     3 (A) A             14 (A) A                 0.0140
     3 (A) A   4 (A) B    9 (A) A    9 (A) B     -0.0129
     6 (A) A             12 (A) A                 0.0127
     3 (A) A             19 (A) A                 0.0120
     8 (A) A   8 (A) B   18 (A) A   19 (A) B     -0.0113
     7 (A) A             36 (A) A                 0.0086
     7 (A) A             32 (A) A                 0.0083
     3 (A) A             23 (A) A                 0.0077
     8 (A) A   8 (A) B   25 (A) A   29 (A) B      0.0076
     6 (A) A             35 (A) A                 0.0070
     7 (A) A              9 (A) A                -0.0069
     6 (A) A             40 (A) A                 0.0068
     3 (A) A   6 (A) B    9 (A) A   28 (A) B      0.0065
     6 (A) A   8 (A) A   19 (A) A   28 (A) A      0.0061
     5 (A) A   7 (A) B    9 (A) A    9 (A) B     -0.0060
     5 (A) A   8 (A) B   11 (A) A    9 (A) B     -0.0060
     7 (A) A   8 (A) B   13 (A) A   20 (A) B      0.0059
     5 (A) A   8 (A) B   11 (A) A   20 (A) B      0.0059
     5 (A) A   8 (A) B   16 (A) A    9 (A) B      0.0059
     3 (A) A   5 (A) B    9 (A) A   25 (A) B      0.0058
     7 (A) A   8 (A) B   22 (A) A   20 (A) B     -0.0057
     3 (A) A             40 (A) A                 0.0057
     6 (A) A   8 (A) A    9 (A) A   18 (A) A      0.0056
    -----------------------------------------------------

  Density matrix analysis:
  ------------------------
  NOs
    Occupation of frontier NOs:
       0.9497   1.0215
    Number of electrons: 16.000000
    Number of unpaired electrons: n_u =  2.31300, n_u,nl =  2.03252
    NO participation ratio (PR_NO):  2.861715
  
  
  Mulliken Population Analysis
  Atom      Charge (e)              h+              e-           Del q
  --------------------------------------------------------------------
   1 H        0.059112        0.020228       -0.012516        0.007712
   2 C       -0.114496        0.491146       -0.506183       -0.015037
   3 H        0.059141        0.020338       -0.012543        0.007795
   4 C       -0.116919        0.490324       -0.506947       -0.016623
   5 H        0.056274        0.020469       -0.012341        0.008128
   6 H        0.056888        0.020468       -0.012444        0.008025
  --------------------------------------------------------------------
  Sum:        0.000000        1.062974       -1.062974       -0.000000
  
  Multipole moment analysis of the density matrix
    Molecular charge:                      0.000000
    Number of electrons:                   16.000000
      Center of electronic charge [Ang]: [ -1.562946,  -0.065674,   0.001940]
    Total nuclear charge:                  16.000000
      Center of nuclear charge [Ang]:    [ -1.563076,  -0.065602,   0.001978]
    Dipole moment [D]:                     0.011782
      Cartesian components [D]:          [ -0.010012,   0.005483,   0.002919]
    RMS size of the density [Ang]:         1.214597
      Cartesian components [Ang]:        [  0.805372,   0.786788,   0.455615]
  
  Exciton analysis of the difference density matrix
    <r_h> [Ang]:                  [ -1.560989,  -0.066118,   0.001545]
    <r_e> [Ang]:                  [ -1.561054,  -0.065466,   0.001460]
    |<r_e - r_h>| [Ang]:            0.000660
    Hole size [Ang]:                1.285588
      Cartesian components [Ang]: [  0.729011,   0.712589,   0.783261]
    Electron size [Ang]:            1.463122
      Cartesian components [Ang]: [  0.853930,   0.830470,   0.849617]

  Transition density matrix analysis:
  -----------------------------------
  
  CT numbers (Mulliken)
    omega =     0.9536
    <Phe> =    -0.1610
  
  Exciton analysis of the transition density matrix
    Trans. dipole moment [D]:             1.832866
      Cartesian components [D]:         [ -1.332723,   1.258223,   0.011107]
    <r_h> [Ang]:                        [ -1.560143,  -0.066571,   0.001639]
    <r_e> [Ang]:                        [ -1.561178,  -0.065452,   0.001373]
    |<r_e - r_h>| [Ang]:                  0.001548
    Hole size [Ang]:                      1.214117
      Cartesian components [Ang]:       [  0.649791,   0.636302,   0.804346]
    Electron size [Ang]:                  1.486093
      Cartesian components [Ang]:       [  0.864516,   0.839348,   0.869815]
    RMS electron-hole separation [Ang]:   1.937341
      Cartesian components [Ang]:       [  1.107162,   1.075784,   1.170542]
    Covariance(r_h, r_e) [Ang^2]:        -0.035367
    Correlation coefficient:             -0.019602
    Center-of-mass size [Ang]:            0.950239
      Cartesian components [Ang]:       [  0.527595,   0.515136,   0.599361]

  Decomposition into state-averaged NTOs
    H- 0 -> L+ 0: -0.6700 ( 89.8%)
    H- 2 -> L+ 5:  0.0833 (  1.4%)
                   omega =  95.4%
  ----------------------------------------------------------------------------


  Excited state 2 (singlet, A)                                     [converged]
  ----------------------------------------------------------------------------
  Term symbol:  3 (1) A                                     R^2 =  8.73836e-14

  Total energy:                                            -77.9875892499 a.u.
  Excitation energy:                                               9.027235 eV

  Osc. strength:                                                      0.000134
  Trans. dip. moment [a.u.]:           [   0.010447,   -0.012703,    0.018356]
  <i|r^2|0> [a.u.]:                    [  -0.006263,   -0.085430,    0.150069]
  Two-photon absorption cross-section (SoS) [a.u.]:                   4.503884
  Two-photon absorption matrix (SoS) [a.u.]:
                                       |   -0.053694   -0.057055    0.521763 |
                                       |   -0.057055   -0.059795    0.527094 |
                                       |    0.521763    0.527094    0.113455 |
  Two-photon absorption cross-section [a.u.]:                         0.085242
  Two-photon absorption matrix [a.u.]:
                                       |   -0.000442    0.007027   -0.084250 |
                                       |    0.007027    0.015035   -0.057304 |
                                       |   -0.084250   -0.057304   -0.014903 |

  Dip. moment [a.u.]:                  [  -0.019629,    0.046764,    0.004080]
  Total dipole [Debye]:                                               0.129326
  <r^2> [a.u.]:                        [ 174.821054,   34.060685,   13.167867]
  Total <r^2> [a.u.]:                                               222.049607

  V1^2 = 0.9542, V2^2 = 0.0458

  Important amplitudes:
      occ i     occ j     vir a      vir b          v   
    -----------------------------------------------------
     7 (A) A              9 (A) A                -0.6696
     8 (A) A             11 (A) A                 0.1418
     7 (A) A             20 (A) A                -0.0758
     8 (A) A             10 (A) A                -0.0368
     5 (A) A   8 (A) B    9 (A) A    9 (A) B     -0.0317
     8 (A) A             16 (A) A                -0.0268
     8 (A) A             21 (A) A                 0.0170
     5 (A) A             28 (A) A                -0.0151
     4 (A) A   7 (A) B    9 (A) A   19 (A) B      0.0135
     5 (A) A   7 (A) B    9 (A) A   16 (A) B     -0.0134
     7 (A) A   8 (A) B   20 (A) A   17 (A) B      0.0105
     7 (A) A   8 (A) A    9 (A) A   28 (A) A     -0.0098
     5 (A) A   8 (A) B    9 (A) A   20 (A) B     -0.0096
     4 (A) A   6 (A) B    9 (A) A   16 (A) B      0.0091
     5 (A) A   6 (A) A    9 (A) A   23 (A) A     -0.0090
     5 (A) A   6 (A) A    9 (A) A   14 (A) A     -0.0089
     5 (A) A   6 (A) B    9 (A) A   19 (A) B     -0.0087
     8 (A) A   7 (A) B    9 (A) A   28 (A) B      0.0085
     4 (A) A   5 (A) A    9 (A) A   10 (A) A      0.0084
     6 (A) A   7 (A) B    9 (A) A   18 (A) B      0.0084
     3 (A) A   7 (A) B    9 (A) A   18 (A) B     -0.0080
     5 (A) A   7 (A) A    9 (A) A   16 (A) A     -0.0080
     5 (A) A   6 (A) B    9 (A) A   23 (A) B     -0.0079
     4 (A) A   8 (A) B    9 (A) A   25 (A) B      0.0076
     7 (A) A   8 (A) B   17 (A) A   20 (A) B      0.0074
     4 (A) A   7 (A) B   19 (A) A    9 (A) B      0.0074
     5 (A) A   5 (A) B    9 (A) A   13 (A) B     -0.0072
     7 (A) A   8 (A) B   19 (A) A   18 (A) B     -0.0071
     5 (A) A   8 (A) A    9 (A) A   20 (A) A     -0.0069
     4 (A) A   5 (A) B    9 (A) A   18 (A) B     -0.0068
     8 (A) A              9 (A) A                 0.0067
     7 (A) A   7 (A) B   20 (A) A   22 (A) B     -0.0065
     7 (A) A   8 (A) B   17 (A) A    9 (A) B      0.0065
     5 (A) A   6 (A) B    9 (A) A   14 (A) B     -0.0064
     4 (A) A   5 (A) B   10 (A) A    9 (A) B     -0.0061
     4 (A) A   7 (A) A    9 (A) A   19 (A) A      0.0061
     5 (A) A   7 (A) B   11 (A) A   20 (A) B      0.0060
     5 (A) A             38 (A) A                -0.0060
     4 (A) A   6 (A) B   16 (A) A    9 (A) B      0.0058
     6 (A) A   7 (A) A   19 (A) A   28 (A) A      0.0057
    -----------------------------------------------------

  Density matrix analysis:
  ------------------------
  NOs
    Occupation of frontier NOs:
       0.9592   1.0526
    Number of electrons: 16.000000
    Number of unpaired electrons: n_u =  2.35484, n_u,nl =  2.06191
    NO participation ratio (PR_NO):  3.019446
  
  
  Mulliken Population Analysis
  Atom      Charge (e)              h+              e-           Del q
  --------------------------------------------------------------------
   1 H        0.155390        0.122656       -0.018665        0.103991
   2 C       -0.301596        0.266795       -0.468931       -0.202136
   3 H        0.141988        0.120686       -0.030045        0.090642
   4 C       -0.301734        0.278189       -0.479626       -0.201437
   5 H        0.153035        0.122416       -0.017528        0.104888
   6 H        0.152917        0.134020       -0.029966        0.104053
  --------------------------------------------------------------------
  Sum:        0.000000        1.044762       -1.044762       -0.000000
  
  Multipole moment analysis of the density matrix
    Molecular charge:                      0.000000
    Number of electrons:                   16.000000
      Center of electronic charge [Ang]: [ -1.562427,  -0.067149,   0.001843]
    Total nuclear charge:                  16.000000
      Center of nuclear charge [Ang]:    [ -1.563076,  -0.065602,   0.001978]
    Dipole moment [D]:                     0.129326
      Cartesian components [D]:          [ -0.049893,   0.118863,   0.010369]
    RMS size of the density [Ang]:         1.200239
      Cartesian components [Ang]:        [  0.786449,   0.769164,   0.480060]
  
  Exciton analysis of the difference density matrix
    <r_h> [Ang]:                  [ -1.588577,  -0.056814,   0.001382]
    <r_e> [Ang]:                  [ -1.580696,  -0.078746,  -0.000189]
    |<r_e - r_h>| [Ang]:            0.023357
    Hole size [Ang]:                1.486928
      Cartesian components [Ang]: [  1.018511,   0.983615,   0.453972]
    Electron size [Ang]:            1.475381
      Cartesian components [Ang]: [  0.881809,   0.855892,   0.816463]

  Transition density matrix analysis:
  -----------------------------------
  
  CT numbers (Mulliken)
    omega =     0.9218
    <Phe> =    -0.0123
  
  Exciton analysis of the transition density matrix
    Trans. dipole moment [D]:             0.031322
      Cartesian components [D]:         [  0.013277,  -0.016144,   0.023328]
    <r_h> [Ang]:                        [ -1.592262,  -0.054479,   0.001496]
    <r_e> [Ang]:                        [ -1.578373,  -0.081421,  -0.000381]
    |<r_e - r_h>| [Ang]:                  0.030369
    Hole size [Ang]:                      1.515890
      Cartesian components [Ang]:       [  1.043515,   1.006140,   0.443488]
    Electron size [Ang]:                  1.472458
      Cartesian components [Ang]:       [  0.871869,   0.845614,   0.832416]
    RMS electron-hole separation [Ang]:   2.093692
      Cartesian components [Ang]:       [  1.344123,   1.299491,   0.942444]
    Covariance(r_h, r_e) [Ang^2]:         0.041716
    Correlation coefficient:              0.018689
    Center-of-mass size [Ang]:            1.066477
      Cartesian components [Ang]:       [  0.687692,   0.664607,   0.471963]

  Decomposition into state-averaged NTOs
    H- 1 -> L+ 0:  0.6620 ( 87.6%)
    H- 0 -> L+ 2:  0.1398 (  3.9%)
                   omega =  92.2%
  ----------------------------------------------------------------------------


  Excited state 3 (singlet, A)                                     [converged]
  ----------------------------------------------------------------------------
  Term symbol:  4 (1) A                                     R^2 =  8.88830e-14

  Total energy:                                            -77.9811729993 a.u.
  Excitation energy:                                               9.201830 eV

  Osc. strength:                                                      0.025943
  Trans. dip. moment [a.u.]:           [   0.015715,    0.020577,   -0.338238]
  <i|r^2|0> [a.u.]:                    [   0.094822,   -0.004646,    0.009231]
  Two-photon absorption cross-section (SoS) [a.u.]:                   0.233335
  Two-photon absorption matrix (SoS) [a.u.]:
                                       |    0.051223    0.015205   -0.122874 |
                                       |    0.015205   -0.024075   -0.109905 |
                                       |   -0.122874   -0.109905   -0.015798 |
  Two-photon absorption cross-section [a.u.]:                         0.185950
  Two-photon absorption matrix [a.u.]:
                                       |    0.043966    0.011553   -0.127037 |
                                       |    0.011553   -0.014653   -0.075695 |
                                       |   -0.127037   -0.075695   -0.015538 |

  Dip. moment [a.u.]:                  [   0.064436,    0.145396,    0.010494]
  Total dipole [Debye]:                                               0.405104
  <r^2> [a.u.]:                        [ 181.807349,   40.638164,   11.042048]
  Total <r^2> [a.u.]:                                               233.487561

  V1^2 = 0.9587, V2^2 = 0.0413

  Important amplitudes:
      occ i     occ j     vir a      vir b          v   
    -----------------------------------------------------
     8 (A) A             10 (A) A                 0.6879
     8 (A) A             24 (A) A                 0.0505
     7 (A) A              9 (A) A                -0.0393
     8 (A) A             18 (A) A                -0.0309
     4 (A) A              9 (A) A                -0.0233
     8 (A) A   8 (A) B    9 (A) A   12 (A) B      0.0219
     8 (A) A   8 (A) B   10 (A) A   17 (A) B      0.0173
     5 (A) A   8 (A) B   11 (A) A   10 (A) B      0.0166
     8 (A) A             15 (A) A                 0.0153
     7 (A) A   8 (A) B   13 (A) A   10 (A) B      0.0142
     6 (A) A   8 (A) A   10 (A) A   15 (A) A     -0.0112
     4 (A) A   8 (A) B   12 (A) A   10 (A) B     -0.0111
     6 (A) A   8 (A) B   15 (A) A   10 (A) B      0.0109
     7 (A) A   8 (A) B   22 (A) A   10 (A) B     -0.0108
     4 (A) A   8 (A) A   10 (A) A   12 (A) A      0.0106
     7 (A) A   8 (A) A   10 (A) A   22 (A) A      0.0099
     7 (A) A   8 (A) A   10 (A) A   13 (A) A     -0.0098
     5 (A) A   8 (A) A   10 (A) A   11 (A) A     -0.0095
     5 (A) A   8 (A) B   21 (A) A   10 (A) B      0.0094
     6 (A) A   8 (A) B   10 (A) A   10 (A) B     -0.0087
     8 (A) A             12 (A) A                -0.0086
     6 (A) A   8 (A) A   10 (A) A   18 (A) A     -0.0085
     8 (A) A             11 (A) A                -0.0082
     7 (A) A   8 (A) A   12 (A) A   16 (A) A     -0.0082
     5 (A) A   8 (A) A   10 (A) A   21 (A) A     -0.0080
     3 (A) A   4 (A) B   10 (A) A    9 (A) B      0.0079
     8 (A) A   8 (A) B    9 (A) A   23 (A) B      0.0075
     4 (A) A   8 (A) B   19 (A) A   10 (A) B      0.0074
     8 (A) A   8 (A) B   10 (A) A   28 (A) B     -0.0073
     3 (A) A   8 (A) B   10 (A) A   10 (A) B      0.0071
     3 (A) A   8 (A) A   10 (A) A   24 (A) A     -0.0071
     7 (A) A   8 (A) B   16 (A) A   12 (A) B      0.0071
     5 (A) A   8 (A) B   10 (A) A   11 (A) B      0.0070
     3 (A) A   8 (A) B   10 (A) A   18 (A) B     -0.0069
     8 (A) A   8 (A) B    9 (A) A   19 (A) B     -0.0066
     6 (A) A   8 (A) B   18 (A) A   10 (A) B      0.0064
     3 (A) A   6 (A) B   10 (A) A   28 (A) B     -0.0062
     7 (A) A   8 (A) B   12 (A) A   11 (A) B     -0.0057
     3 (A) A   5 (A) B   10 (A) A   25 (A) B     -0.0056
     6 (A) A             28 (A) A                 0.0056
    -----------------------------------------------------

  Density matrix analysis:
  ------------------------
  NOs
    Occupation of frontier NOs:
       0.9819   0.9846
    Number of electrons: 16.000000
    Number of unpaired electrons: n_u =  2.29139, n_u,nl =  2.02579
    NO participation ratio (PR_NO):  2.705743
  
  
  Mulliken Population Analysis
  Atom      Charge (e)              h+              e-           Del q
  --------------------------------------------------------------------
   1 H       -0.153765        0.054558       -0.259723       -0.205165
   2 C        0.334096        0.539643       -0.106088        0.433555
   3 H       -0.188172        0.053291       -0.292810       -0.239518
   4 C        0.329992        0.531061       -0.100773        0.430288
   5 H       -0.144017        0.054835       -0.246999       -0.192164
   6 H       -0.178133        0.054189       -0.281185       -0.226996
  --------------------------------------------------------------------
  Sum:        0.000000        1.287577       -1.287577       -0.000000
  
  Multipole moment analysis of the density matrix
    Molecular charge:                      0.000000
    Number of electrons:                   16.000000
      Center of electronic charge [Ang]: [ -1.565207,  -0.070411,   0.001631]
    Total nuclear charge:                  16.000000
      Center of nuclear charge [Ang]:    [ -1.563076,  -0.065602,   0.001978]
    Dipole moment [D]:                     0.405104
      Cartesian components [D]:          [  0.163780,   0.369559,   0.026673]
    RMS size of the density [Ang]:         1.277346
      Cartesian components [Ang]:        [  0.855616,   0.840406,   0.439605]
  
  Exciton analysis of the difference density matrix
    <r_h> [Ang]:                  [ -1.560764,  -0.069646,   0.001551]
    <r_e> [Ang]:                  [ -1.588918,  -0.127977,  -0.002360]
    |<r_e - r_h>| [Ang]:            0.064889
    Hole size [Ang]:                1.411997
      Cartesian components [Ang]: [  0.836433,   0.820785,   0.787672]
    Electron size [Ang]:            2.082186
      Cartesian components [Ang]: [  1.378151,   1.380012,   0.729222]

  Transition density matrix analysis:
  -----------------------------------
  
  CT numbers (Mulliken)
    omega =     0.9259
    <Phe> =    -0.0108
  
  Exciton analysis of the transition density matrix
    Trans. dipole moment [D]:             0.431115
      Cartesian components [D]:         [  0.019972,   0.026150,  -0.429857]
    <r_h> [Ang]:                        [ -1.557661,  -0.064908,   0.001719]
    <r_e> [Ang]:                        [ -1.597372,  -0.149164,  -0.003792]
    |<r_e - r_h>| [Ang]:                  0.093309
    Hole size [Ang]:                      1.214086
      Cartesian components [Ang]:       [  0.638613,   0.625006,   0.821916]
    Electron size [Ang]:                  2.300258
      Cartesian components [Ang]:       [  1.521597,   1.525081,   0.806260]
    RMS electron-hole separation [Ang]:   2.592667
      Cartesian components [Ang]:       [  1.643098,   1.643272,   1.149699]
    Covariance(r_h, r_e) [Ang^2]:         0.025987
    Correlation coefficient:              0.009305
    Center-of-mass size [Ang]:            1.305485
      Cartesian components [Ang]:       [  0.828851,   0.827612,   0.576503]

  Decomposition into state-averaged NTOs
    H- 0 -> L+ 1:  0.6781 ( 92.0%)
                   omega =  92.6%
  ----------------------------------------------------------------------------


  Excited state 4 (singlet, A)                                     [converged]
  ----------------------------------------------------------------------------
  Term symbol:  5 (1) A                                     R^2 =  7.77946e-14

  Total energy:                                            -77.9575354729 a.u.
  Excitation energy:                                               9.845039 eV

  Osc. strength:                                                      0.000081
  Trans. dip. moment [a.u.]:           [   0.003299,   -0.005019,    0.017263]
  <i|r^2|0> [a.u.]:                    [   0.035166,    0.020469,   -0.037508]
  Two-photon absorption cross-section (SoS) [a.u.]:                 150.830824
  Two-photon absorption matrix (SoS) [a.u.]:
                                       |    0.290278    0.327301   -2.956262 |
                                       |    0.327301    0.368166   -3.111340 |
                                       |   -2.956262   -3.111340   -0.658632 |
  Two-photon absorption cross-section [a.u.]:                        91.572825
  Two-photon absorption matrix [a.u.]:
                                       |    0.232884    0.255761   -2.316447 |
                                       |    0.255761    0.279274   -2.411977 |
                                       |   -2.316447   -2.411977   -0.512869 |

  Dip. moment [a.u.]:                  [  -0.151523,   -0.114314,   -0.015438]
  Total dipole [Debye]:                                               0.484036
  <r^2> [a.u.]:                        [ 180.883808,   40.579452,   10.739157]
  Total <r^2> [a.u.]:                                               232.202417

  V1^2 = 0.9636, V2^2 = 0.0364

  Important amplitudes:
      occ i     occ j     vir a      vir b          v   
    -----------------------------------------------------
     8 (A) A             11 (A) A                -0.6711
     7 (A) A              9 (A) A                -0.1432
     8 (A) A             21 (A) A                -0.0784
     8 (A) A             16 (A) A                 0.0653
     8 (A) A   8 (A) B    9 (A) A   13 (A) B      0.0167
     8 (A) A             10 (A) A                -0.0163
     5 (A) A   8 (A) B   11 (A) A   11 (A) B     -0.0156
     8 (A) A   8 (A) B   11 (A) A   17 (A) B     -0.0140
     7 (A) A             20 (A) A                -0.0129
     7 (A) A   8 (A) B   13 (A) A   11 (A) B     -0.0128
     5 (A) A   8 (A) A   11 (A) A   21 (A) A      0.0111
     4 (A) A   8 (A) B   12 (A) A   11 (A) B      0.0110
     8 (A) A   8 (A) B    9 (A) A   22 (A) B     -0.0108
     7 (A) A   8 (A) A   11 (A) A   22 (A) A     -0.0096
     6 (A) A   8 (A) B   15 (A) A   11 (A) B     -0.0091
     7 (A) A   8 (A) B   22 (A) A   11 (A) B      0.0089
     6 (A) A   8 (A) B   10 (A) A   11 (A) B      0.0089
     3 (A) A   4 (A) B   11 (A) A    9 (A) B     -0.0083
     6 (A) A   8 (A) A   11 (A) A   15 (A) A      0.0082
     3 (A) A   8 (A) B   11 (A) A   18 (A) B      0.0081
     7 (A) A   8 (A) A   13 (A) A   16 (A) A     -0.0078
     7 (A) A   8 (A) A   11 (A) A   13 (A) A      0.0076
     5 (A) A   8 (A) B   21 (A) A   11 (A) B     -0.0071
     4 (A) A   8 (A) B   19 (A) A   11 (A) B     -0.0069
     5 (A) A   8 (A) B    9 (A) A    9 (A) B     -0.0064
     4 (A) A   8 (A) A   11 (A) A   12 (A) A     -0.0062
     3 (A) A   6 (A) B   11 (A) A   28 (A) B      0.0061
     6 (A) A   8 (A) A   11 (A) A   18 (A) A      0.0060
     6 (A) A   8 (A) B   18 (A) A   11 (A) B     -0.0058
     7 (A) A   8 (A) B   16 (A) A   13 (A) B      0.0057
     3 (A) A   8 (A) A   11 (A) A   18 (A) A      0.0056
     3 (A) A   8 (A) B   11 (A) A   30 (A) B      0.0055
     3 (A) A   5 (A) B   11 (A) A   25 (A) B      0.0055
     5 (A) A   8 (A) B   10 (A) A   10 (A) B     -0.0055
     7 (A) A   8 (A) B   12 (A) A   10 (A) B      0.0053
     6 (A) A   8 (A) B   11 (A) A   10 (A) B      0.0053
     8 (A) A   8 (A) B   20 (A) A   22 (A) B     -0.0053
     3 (A) A   8 (A) A   11 (A) A   24 (A) A      0.0052
     5 (A) A   8 (A) A   11 (A) A   16 (A) A     -0.0048
     6 (A) A   8 (A) A   10 (A) A   16 (A) A      0.0047
    -----------------------------------------------------

  Density matrix analysis:
  ------------------------
  NOs
    Occupation of frontier NOs:
       0.9451   1.0234
    Number of electrons: 16.000000
    Number of unpaired electrons: n_u =  2.31831, n_u,nl =  2.04605
    NO participation ratio (PR_NO):  2.888085
  
  
  Mulliken Population Analysis
  Atom      Charge (e)              h+              e-           Del q
  --------------------------------------------------------------------
   1 H       -0.170165        0.045884       -0.267449       -0.221565
   2 C        0.279432        0.500854       -0.121962        0.378891
   3 H       -0.112535        0.044979       -0.208860       -0.163881
   4 C        0.272810        0.498083       -0.124976        0.373106
   5 H       -0.155819        0.045880       -0.249845       -0.203965
   6 H       -0.113724        0.046001       -0.208588       -0.162587
  --------------------------------------------------------------------
  Sum:        0.000000        1.181681       -1.181681       -0.000000
  
  Multipole moment analysis of the density matrix
    Molecular charge:                      -0.000000
    Number of electrons:                   16.000000
      Center of electronic charge [Ang]: [ -1.558065,  -0.061822,   0.002489]
    Total nuclear charge:                  16.000000
      Center of nuclear charge [Ang]:    [ -1.563076,  -0.065602,   0.001978]
    Dipole moment [D]:                     0.484036
      Cartesian components [D]:          [ -0.385133,  -0.290557,  -0.039239]
    RMS size of the density [Ang]:         1.277718
      Cartesian components [Ang]:        [  0.859199,   0.840471,   0.433530]
  
  Exciton analysis of the difference density matrix
    <r_h> [Ang]:                  [ -1.557722,  -0.062446,   0.002077]
    <r_e> [Ang]:                  [ -1.491690,  -0.009702,   0.009428]
    |<r_e - r_h>| [Ang]:            0.084831
    Hole size [Ang]:                1.393061
      Cartesian components [Ang]: [  0.819305,   0.802273,   0.791022]
    Electron size [Ang]:            2.121783
      Cartesian components [Ang]: [  1.434427,   1.409657,   0.676201]

  Transition density matrix analysis:
  -----------------------------------
  
  CT numbers (Mulliken)
    omega =     0.9299
    <Phe> =    -0.0135
  
  Exciton analysis of the transition density matrix
    Trans. dipole moment [D]:             0.023229
      Cartesian components [D]:         [  0.004192,  -0.006379,   0.021940]
    <r_h> [Ang]:                        [ -1.562013,  -0.065474,   0.001510]
    <r_e> [Ang]:                        [ -1.478585,   0.001529,   0.010873]
    |<r_e - r_h>| [Ang]:                  0.107412
    Hole size [Ang]:                      1.226414
      Cartesian components [Ang]:       [  0.659497,   0.644154,   0.808840]
    Electron size [Ang]:                  2.261143
      Cartesian components [Ang]:       [  1.528902,   1.502856,   0.718782]
    RMS electron-hole separation [Ang]:   2.563750
      Cartesian components [Ang]:       [  1.658408,   1.628683,   1.081613]
    Covariance(r_h, r_e) [Ang^2]:         0.027791
    Correlation coefficient:              0.010021
    Center-of-mass size [Ang]:            1.291553
      Cartesian components [Ang]:       [  0.836899,   0.821417,   0.541281]

  Decomposition into state-averaged NTOs
    H- 0 -> L+ 2: -0.6662 ( 88.8%)
    H- 1 -> L+ 0:  0.1413 (  4.0%)
                   omega =  93.0%
  ----------------------------------------------------------------------------


  Excited state 5 (singlet, A)                                     [converged]
  ----------------------------------------------------------------------------
  Term symbol:  6 (1) A                                     R^2 =  1.30517e-13

  Total energy:                                            -77.9432811584 a.u.
  Excitation energy:                                              10.232919 eV

  Osc. strength:                                                      0.000000
  Trans. dip. moment [a.u.]:           [  -0.000510,   -0.000896,    0.000899]
  <i|r^2|0> [a.u.]:                    [  -0.086845,    0.101910,   -0.018815]
  Two-photon absorption cross-section (SoS) [a.u.]:                 227.863623
[...]
    16   -1.493580972242e-03
    17   -1.803305568028e-03
    18   -1.605496270828e-05
    19   -3.630208749434e-03
    20    1.263757797597e-02
    21    9.658529439672e-01
    22   -1.416161181585e-04
    23    1.449267098962e-02
    24    8.526246684284e-04
    25    6.941059576880e-02
    26   -5.095110551832e-02
    27   -1.395262609041e+00
    28    1.024490773561e-01
    29   -8.616450334581e-02
    30   -6.956031989326e-04
    31    4.128014048106e-01
    32   -3.586885285520e-01
    33   -3.569769564935e-03
    34    1.614401152140e-02
    35   -1.428751902355e-03
    36   -1.919915410765e-03
    37    7.028393736578e-04
    38   -2.473474347301e-03
    39    5.360798203616e-03
    40    9.225482196052e-01
    41    2.962132761686e-04
    42   -1.397621756142e-02
    43   -8.585472160392e-04
    44    8.923824941993e-03
    45    9.623292618306e-01
    46    1.414854308049e-02
    47    1.236203241206e-03
    48    7.367343283249e-04
Sym=X
Ene= 0.233690
Spin=Alpha
Occup=0
     1    2.653966950385e-02
     2    1.249804296382e+00
     3   -1.446452040277e-02
     4   -3.669443635497e-03
     5   -8.827464375906e-04
     6    2.321424018262e-03
     7   -1.386812863382e-03
     8   -6.082108611321e-02
     9   -1.580782328710e-01
    10   -1.579105205603e-01
    11   -1.662176027306e-02
    12   -5.660045937169e-01
    13   -5.687829693016e-01
    14   -5.949943608179e-02
    15    6.119373789340e-04
    16   -1.249095856458e-05
    17   -9.955912029078e-05
    18    3.969961370414e-04
    19   -2.213318422400e-04
    20   -2.607055391430e-02
    21   -1.178480510449e+00
    22   -2.723413919940e-03
    23   -1.341167179647e-02
    24   -9.188261766737e-04
    25    1.052891305249e-03
    26   -1.163411172308e-03
    27   -3.121268642128e-02
    28   -1.486365589827e-01
    29   -1.630446149644e-01
    30   -1.722018709414e-02
    31   -5.015131441861e-01
    32   -5.697545178932e-01
    33   -5.956725098975e-02
    34    6.114512439047e-05
    35   -6.809065619365e-06
    36   -8.623000202108e-05
    37    3.417013955734e-04
    38    3.393257861193e-06
    39    2.589696023544e-02
    40    1.200977809169e+00
    41   -2.670847768688e-03
    42   -1.425961159395e-02
    43   -1.013223042227e-03
    44   -2.730812014282e-02
    45   -1.156287367599e+00
    46   -1.350652199357e-02
    47   -3.215953188765e-03
    48   -8.460488469462e-04
Sym=X
Ene= 0.238701
Spin=Alpha
Occup=0
     1   -1.707554957807e-02
     2   -1.092725329293e+00
     3    1.703598947466e-02
     4    9.120105659177e-03
     5    1.365338978884e-03
     6   -8.624414331973e-02
     7    8.077584806780e-02
     8    1.567045043277e+00
     9    5.719120097637e-02
    10   -5.413675992795e-02
    11   -2.665484635637e-04
    12    2.443934514235e-01
    13   -2.114729976740e-01
    14    1.855430944787e-04
    15   -2.227372914894e-02
    16    2.631976843896e-03
    17    2.870027292218e-03
    18    1.667400114449e-04
    19    1.254938868514e-02
    20   -1.627012884822e-02
    21   -1.071876817379e+00
    22   -8.510673085277e-03
    23   -1.683152976031e-02
    24   -1.392842797377e-03
    25    8.618377341892e-02
    26   -7.863327088804e-02
    27   -1.595131729788e+00
    28    5.772987546623e-02
    29   -5.770889620220e-02
    30   -1.257462989486e-03
    31    2.342286145541e-01
    32   -2.544686360146e-01
    33   -6.282823961022e-03
    34    2.287466420506e-02
    35   -2.505887111990e-03
    36   -3.145343158222e-03
    37    1.909925154736e-03
    38   -1.210632615030e-02
    39    1.559810743450e-02
    40    1.132609908486e+00
    41   -8.775195782430e-03
    42   -1.825490512069e-02
    43   -1.559978898661e-03
    44    1.436486183362e-02
    45    1.064043163038e+00
    46    1.621165078607e-02
    47    1.025326765892e-02
    48    1.356823258684e-03
Sym=X
Ene= 0.303536
Spin=Alpha
Occup=0
     1   -2.150091150801e-02
     2    1.660221345264e+00
     3   -2.263554693035e-02
     4    5.836096761483e-04
     5   -1.048578859992e-03
     6   -1.470325739657e-03
     7   -6.371881747119e-04
     8    6.263853498739e-02
     9   -1.305879798916e-01
    10   -1.399339567385e-01
    11   -1.440173175121e-02
    12   -1.150740129588e+00
    13   -1.177828408038e+00
    14   -1.247155105654e-01
    15   -9.989041986026e-04
    16   -1.643802906438e-03
    17    2.026876831869e-03
    18   -3.399858510691e-02
    19   -1.248016112255e-03
    20    2.142909129996e-02
    21   -1.693561023892e+00
    22    1.316006912205e-03
    23   -2.362751223784e-02
    24   -1.316341215487e-03
    25    1.435909869425e-03
    26    3.569734732835e-04
    27   -4.276129326299e-02
    28    1.355527402861e-01
    29    1.434489329583e-01
    30    1.526394219699e-02
    31    1.109431571006e+00
    32    1.221391961563e+00
    33    1.267381038565e-01
    34    8.698494681264e-04
    35   -1.714354127826e-03
    36    1.907094879244e-03
    37   -3.330494105936e-02
    38   -2.260125353948e-03
    39    2.028380534690e-02
    40   -1.704562637964e+00
    41   -2.509780988649e-03
    42    2.278472281525e-02
    43    1.280673472159e-03
    44   -1.780476269151e-02
    45    1.716512178503e+00
    46    2.384744833260e-02
    47   -8.716199177771e-04
    48    1.077914129801e-03
Sym=X
Ene= 0.464041
Spin=Alpha
Occup=0
     1   -1.253855249737e-01
     2   -7.112798804054e-01
     3   -1.613331208342e-02
     4   -1.096425748020e-02
     5   -1.397121488997e-03
     6    6.164857398822e-02
     7    1.744358107774e-02
     8   -3.623456795658e+00
     9    9.881831847814e-02
    10   -9.606739834135e-02
    11   -1.095227913098e-03
    12    2.457973052335e+00
    13   -2.337475684034e+00
    14   -2.114705128890e-02
    15    5.477588775116e-02
    16   -3.557414849525e-03
    17   -4.760494966203e-03
    18   -2.242199912433e-03
    19    1.649298980375e-02
    20   -1.248714163389e-01
    21   -7.112811391531e-01
    22    9.627057477472e-03
    23    1.583632832875e-02
    24    1.388366686576e-03
    25   -6.236290280355e-02
    26   -1.174455566456e-02
    27    3.617076169478e+00
    28    1.112634809636e-01
    29   -1.012349652781e-01
    30   -1.277582048630e-03
    31    2.443522703609e+00
    32   -2.311303684975e+00
    33   -2.241211091597e-02
    34   -4.972204180611e-02
    35    2.929306821264e-03
    36    4.142780801983e-03
    37    9.742191495941e-04
    38   -2.176138626753e-02
    39    8.976694061207e-02
    40    7.596074521376e-01
    41    9.452050279240e-03
    42    1.556758060401e-02
    43    1.394274538627e-03
    44    1.029610947499e-01
    45    7.222401471429e-01
    46   -1.488536634905e-02
    47   -8.300191902079e-03
    48   -1.239839608182e-03
Sym=X
Ene= 0.579558
Spin=Alpha
Occup=0
     1    2.224111925203e-01
     2    2.136872734879e-02
     3   -2.183651521917e-02
     4    2.668605625814e-02
     5    5.456095222787e-04
     6   -2.735337644605e-03
     7   -1.645224974575e-01
     8   -5.836114306385e-01
     9    3.080493383337e-01
    10   -2.962790381964e-01
    11   -3.049882380459e-03
    12   -6.409443995082e-01
    13    6.243688506193e-01
    14    7.080528551313e-03
    15   -2.154178154886e-03
    16    3.426942629317e-03
    17    3.427077016856e-03
    18   -6.575551140307e-03
    19    5.896616550079e-02
    20    2.625664849943e-01
    21    6.465366636327e-04
    22   -2.339421656418e-02
    23    1.627473100079e-02
    24   -1.469972169796e-04
    25   -9.040136683250e-03
    26   -1.676424715848e-01
    27   -2.977964748865e-01
    28   -3.047630127648e-01
    29    2.770965047427e-01
    30    1.911572109971e-03
    31    8.761771204512e-01
    32   -7.966061204489e-01
    33   -6.590275736872e-03
    34   -1.390923837172e-03
    35    3.838683528702e-03
    36    2.819091273724e-03
    37    2.824356413757e-03
    38    5.964099347868e-02
    39    2.086465806421e-01
    40    1.314601943812e-01
    41    2.977961788755e-02
    42   -2.178790578686e-02
    43    7.826018355348e-05
    44    2.605405028353e-01
    45    7.985166582396e-02
    46    1.879787222159e-02
    47   -2.515265142395e-02
    48   -6.488645221872e-04
Sym=X
Ene= 0.611067
Spin=Alpha
Occup=0
     1   -5.223383821223e-01
     2    2.046662194136e-01
     3   -5.852046951740e-02
     4    3.604344945901e-02
     5   -6.860746082415e-04
     6   -4.675901423834e-04
     7   -7.972493154266e-05
     8    7.952008470844e-02
     9   -4.857415752991e-02
    10   -3.203751345432e-02
    11   -4.338759853052e-03
    12    2.813676794203e-01
    13    2.782722851651e-01
    14    2.912910696790e-02
    15    3.364965943561e-04
    16   -7.571760146896e-03
    17    7.942991580740e-03
    18   -1.433640788549e-01
    19   -1.060773335519e-02
    20    4.930541912842e-01
    21   -1.977072639670e-01
    22    4.313228539004e-02
    23   -5.823590183973e-02
    24   -1.428512032742e-03
    25   -6.612722917674e-04
    26   -1.752435719596e-03
    27    1.351385747996e-02
    28   -3.151101100640e-02
    29   -5.730617799221e-02
    30   -4.806400323192e-03
    31    2.274472110365e-01
    32    3.883858814705e-01
    33    3.507357618027e-02
    34    2.071242772568e-03
    35    7.169250552113e-03
    36   -9.041271692454e-03
    37    1.487555380230e-01
    38    8.302345864214e-03
    39   -5.431662821610e-01
    40    1.895545208969e-01
    41    3.597780097910e-02
    42   -5.763220642132e-02
    43   -1.799000164270e-03
    44    5.021362190159e-01
    45   -2.302486860442e-01
    46   -6.051871734258e-02
    47    3.816483352982e-02
    48   -4.798998343098e-04
Sym=X
Ene= 0.689104
Spin=Alpha
Occup=0
     1    8.239186299089e-04
     2    4.707053799373e-04
     3    1.119008837421e-03
     4    1.301927138796e-03
     5   -2.099660811671e-02
     6    6.197192342053e-05
     7    6.487490412793e-04
     8    2.075093849832e-05
     9    3.130011297013e-02
    10    4.007256549296e-02
    11   -6.707686998778e-01
    12   -2.960964533389e-02
    13   -3.543870875642e-02
    14    6.143766361820e-01
    15   -1.533565822823e-03
    16    8.250955744197e-02
    17   -7.810758887916e-02
    18   -8.765630118975e-03
    19   -1.001250620341e-03
    20    1.039806826763e-03
    21   -2.541838228983e-04
    22    8.382305732561e-04
    23    1.044349232367e-03
    24   -2.094201220649e-02
    25    2.727915551294e-05
    26    1.034791685438e-03
    27   -1.098397284722e-03
    28    3.233179723385e-02
    29    4.041933708590e-02
    30   -6.692793221409e-01
    31   -3.088240576167e-02
    32   -3.611058281325e-02
    33    6.127783099792e-01
    34    9.956227703330e-04
    35   -8.306615335613e-02
    36    7.890845877247e-02
    37    8.554626903131e-03
    38    1.186699901548e-03
    39    3.373600073129e-04
    40   -1.432717068441e-03
    41    1.133846672703e-03
    42    1.663465396464e-03
    43   -2.257233543099e-02
    44    2.304690510803e-04
    45   -7.243683051998e-04
    46    7.800712511008e-04
    47    1.313205723025e-03
    48   -2.109771681280e-02
Sym=X
Ene= 0.711730
Spin=Alpha
Occup=0
     1   -4.902049455026e-01
     2    1.743206254866e-01
     3   -8.062845180839e-02
     4   -4.639867295339e-02
     5   -6.652160899262e-03
     6   -5.112746028771e-02
     7   -3.145876588081e-01
     8    6.476516829846e-01
     9    1.909208699702e-01
    10   -1.858242864240e-01
    11   -3.113475200253e-03
    12   -1.398178882918e-01
    13    1.346920517746e-01
    14    1.790833719506e-03
    15    1.978626705027e-01
    16   -2.088763043217e-02
    17   -2.482102336932e-02
    18    6.837480320133e-03
    19   -8.188639622843e-02
    20   -5.036500642540e-01
    21    1.873392722059e-01
    22    4.216180766738e-02
    23    8.545467292333e-02
    24    6.986583822173e-03
    25   -4.343620931499e-02
    26   -3.261338033531e-01
    27    3.864576506442e-01
    28   -1.996270317945e-01
    29    1.813577103209e-01
    30    3.894566330530e-04
    31   -4.501577900658e-02
    32    3.979053241440e-02
    33    2.225036151938e-03
    34    1.915923931303e-01
    35   -2.025751924380e-02
    36   -2.369585584896e-02
    37    1.908509745500e-03
    38   -7.184130021009e-02
    39   -4.543848625508e-01
    40    8.112884201885e-02
    41   -3.985028570614e-02
    42   -7.920643759464e-02
    43   -6.697843954300e-03
    44   -4.765526309858e-01
    45    1.039042805895e-01
    46    7.788821078299e-02
    47    4.537374414827e-02
    48    6.481206222074e-03
Sym=X
Ene= 0.784956
Spin=Alpha
Occup=0
     1    5.197400359712e-01
     2   -4.603674477024e-01
     3    1.121102628339e-01
     4    2.313057076487e-02
     5    6.673631278655e-03
     6    8.904918121352e-02
     7   -2.262906033275e-01
     8   -5.216061330572e-01
     9    1.091029677533e-01
    10   -1.153969484169e-01
    11   -6.187451338246e-05
    12    2.721377921546e-01
    13   -2.379487731848e-01
    14   -4.320331644176e-03
    15   -2.024800159991e-01
    16    1.710243644681e-02
    17    2.057761455296e-02
    18    5.424416906352e-03
    19    3.012444199728e-03
    20    5.104583914869e-01
    21   -4.330063995184e-01
    22   -1.904762690161e-02
    23   -1.070999869872e-01
    24   -7.209389382624e-03
    25   -9.247380956817e-02
    26    1.995523497841e-01
    27    6.225988392118e-01
    28    1.136871944705e-01
    29   -1.092097953185e-01
    30   -2.508458299125e-03
    31    2.246385041633e-01
    32   -2.101749999078e-01
    33    1.311217451267e-03
    34    2.148962487464e-01
    35   -1.785166393080e-02
    36   -2.324764229560e-02
    37    1.353350262292e-03
    38   -2.754300604279e-03
    39   -5.488636922745e-01
    40    4.208008266294e-01
    41   -1.993083875841e-02
    42   -1.138473164711e-01
    43   -7.888739307721e-03
    44   -5.562085581613e-01
    45    4.348525274372e-01
    46    1.109651832710e-01
    47    2.960704468140e-02
    48    7.105830404365e-03
Sym=X
Ene= 0.807881
Spin=Alpha
Occup=0
     1    1.008317292481e-03
     2   -2.083056902431e-03
     3    1.984339447744e-03
     4    2.067112905275e-03
     5   -3.376263890346e-02
     6    1.961844601128e-04
     7   -7.002563848193e-04
     8    5.381697258936e-05
     9    3.627532020397e-02
    10    4.438961221108e-02
    11   -7.624811089195e-01
    12   -5.251195179670e-02
    13   -6.646674164861e-02
    14    1.126636538318e+00
    15    4.500338833146e-04
    16   -6.521039605010e-02
    17    6.177273048110e-02
    18    7.108522642790e-03
    19    7.965214243592e-04
    20    8.916851190339e-04
    21   -1.803921393734e-06
    22    1.746966715200e-03
    23    1.909541447734e-03
    24   -3.444396490270e-02
    25   -1.659142278942e-04
    26    1.871376839585e-05
    27    4.480308284442e-04
    28   -3.642222743111e-02
    29   -4.706198366800e-02
    30    7.636332406201e-01
    31    5.505623811504e-02
    32    6.864098727363e-02
    33   -1.127206579700e+00
    34    1.575901359668e-03
    35   -6.508768021117e-02
    36    6.170752088191e-02
    37    6.516341847927e-03
    38    1.034163534659e-03
    39   -9.447894901936e-04
    40    8.708645677191e-05
    41   -1.425185880477e-03
    42   -2.311243387563e-03
    43    3.352372310268e-02
    44   -9.580950469812e-04
    45    2.247561324696e-03
    46   -1.089270325948e-03
    47   -2.044771157503e-03
    48    3.399067098802e-02
Sym=X
Ene= 0.862320
Spin=Alpha
Occup=0
     1    2.045136504502e-02
     2   -1.108861504571e+00
     3    1.486660994298e-01
     4    5.605200267557e-02
     5    1.034245637158e-02
     6   -4.390404173284e-04
     7    1.095977920305e-02
     8   -1.045505869335e-02
     9   -4.132814053464e-01
    10   -4.248611919535e-01
    11   -4.401063696256e-02
    12    9.594887981097e-01
    13    9.796754970906e-01
    14    1.019209186755e-01
    15    1.746706631796e-04
    16    1.192187562566e-02
    17   -1.364793916353e-02
    18    2.363072218040e-01
    19    1.262270233134e-02
    20   -2.394441470678e-02
    21    1.105707872354e+00
    22    4.954750150268e-02
    23    1.530188375437e-01
    24    1.147204879679e-02
    25    1.603004558418e-03
    26    8.226481102590e-03
    27    9.745915145565e-05
    28   -4.049738825089e-01
    29   -4.242399634741e-01
    30   -4.583146468690e-02
    31    9.351170729257e-01
    32    9.984339444235e-01
    33    1.068279359493e-01
    34   -4.983247386474e-03
    35   -1.210446543357e-02
    36    1.418200277242e-02
    37   -2.409555400792e-01
    38   -1.971964263114e-02
    39    1.324379124491e-02
    40   -1.093717825558e+00
    41    4.029196456126e-02
    42    1.524880286338e-01
    43    1.129649875239e-02
    44   -5.044833530570e-03
    45    1.096719344435e+00
    46    1.486594955110e-01
    47    5.357419952845e-02
    48    1.019679281944e-02
Sym=X
Ene= 0.936349
Spin=Alpha
Occup=0
     1   -1.115222291789e-01
     2    1.235675592051e+00
     3   -1.793208113833e-01
     4    7.829102885016e-03
     5   -8.108263245734e-03
     6   -5.333426285173e-04
     7    2.322511760290e-03
     8   -3.459613203573e-02
     9    4.560649295699e-01
    10    5.108761283675e-01
    11    5.198714384884e-02
    12   -1.398458412246e+00
    13   -1.574804691739e+00
    14   -1.599569318883e-01
    15   -3.839564626083e-04
    16   -5.513123708611e-03
    17    7.265386463115e-03
    18   -1.223340765490e-01
    19    6.113774649557e-03
    20    1.209743536890e-01
    21   -1.302326688587e+00
    22    9.816437929913e-03
    23   -1.850301751229e-01
    24   -1.036211577677e-02
    25    1.100393333704e-03
    26    2.481471753943e-02
    27   -3.484155248745e-03
    28   -4.907456270450e-01
    29   -4.828080900238e-01
    30   -5.264117244053e-02
    31    1.496241950436e+00
    32    1.478293834192e+00
    33    1.607947457661e-01
    34   -2.616197292237e-04
    35   -7.510049620462e-03
    36    6.744168384902e-03
    37   -1.265860813877e-01
    38   -2.562084114298e-02
    39    1.136695517949e-01
    40   -1.240495905311e+00
    41   -2.547740337067e-02
    42    1.761497385214e-01
    43    9.516965225437e-03
    44   -1.272352906904e-01
    45    1.333758298095e+00
    46    1.899311060554e-01
    47   -1.555187497061e-03
    48    8.966851505203e-03
Sym=X
Ene= 0.973829
Spin=Alpha
Occup=0
     1   -5.974737921680e-02
     2    1.005378545225e+00
     3   -1.026875590993e-01
     4   -1.011258445764e-01
     5   -1.093703739042e-02
     6    2.509969290272e-02
     7    3.081594467594e-01
     8    4.166942582310e-01
     9    4.999272384108e-01
    10   -4.401916702507e-01
    11   -2.098954777286e-03
    12   -1.577589661917e+00
    13    1.342849788443e+00
    14    3.907452075820e-03
    15   -5.192639395711e-02
    16   -1.325549050750e-02
    17   -1.010621473073e-02
    18    1.334227905195e-02
    19   -3.041453610400e-01
    20   -7.223335401536e-02
    21    8.972059816244e-01
    22    9.737174962050e-02
    23    9.491326740191e-02
    24    1.028044797421e-02
    25   -2.385502583183e-02
    26   -2.007071246864e-01
    27   -5.950470048774e-01
    28    4.531393124962e-01
    29   -4.673456605534e-01
    30   -7.161698659294e-03
    31   -1.401811064826e+00
    32    1.496826521950e+00
    33    2.482196452627e-02
    34    4.537050311915e-02
    35    1.211713309815e-02
    36    1.073157507092e-02
    37   -2.512422772265e-02
    38    2.874555387949e-01
    39    6.485986410558e-02
    40   -9.701257619216e-01
    41    8.900602313931e-02
    42    1.028024215225e-01
    43    1.062497089198e-02
    44    7.021790446079e-02
    45   -8.194049798071e-01
    46   -7.790338163528e-02
    47   -9.765705033497e-02
    48   -9.371291524125e-03
[5D]

======= END OF MOLDEN-FORMATTED INPUT FILE =======


        *************************************************************
        *                                                           *
        *  Thank you very much for using Q-Chem.  Have a nice day.  *
        *                                                           *
        *************************************************************


