                  Welcome to Q-Chem
     A Quantum Leap Into The Future Of Chemistry


 Q-Chem 5.4 (devel), Q-Chem, Inc., Pleasanton, CA (2021)

 E. Epifanovsky,  A. T. B. Gilbert,  Xintian Feng,  Joonho Lee,  Yuezhi Mao,  
 N. Mardirossian,  P. Pokhilko,  A. White,  M. Wormit,  M. P. Coons,  
 A. L. Dempwolff,  Zhengting Gan,  D. Hait,  P. R. Horn,  L. D. Jacobson,  
 I. Kaliman,  J. Kussmann,  A. W. Lange,  Ka Un Lao,  D. S. Levine,  Jie Liu,  
 S. C. McKenzie,  A. F. Morrison,  K. Nanda,  F. Plasser,  D. R. Rehn,  
 M. L. Vidal,  Zhi-Qiang You,  Ying Zhu,  B. Alam,  B. Albrecht,  
 A. Aldossary,  E. Alguire,  J. H. Andersen,  D. Barton,  K. Begam,  A. Behn,  
 Y. A. Bernard,  E. J. Berquist,  H. Burton,  A. Carreras,  K. Carter-Fenk,  
 R. Chakraborty,  A. D. Chien,  K. D. Closser,  V. Cofer-Shabica,  
 S. Dasgupta,  Jia Deng,  M. de Wergifosse,  M. Diedenhofen,  Hainam Do,  
 S. Ehlert,  Po-Tung Fang,  S. Fatehi,  Qingguo Feng,  T. Friedhoff,  
 J. Gayvert,  Qinghui Ge,  G. Gidofalvi,  M. Goldey,  J. Gomes,  
 C. Gonzalez-Espinoza,  S. Gulania,  A. Gunina,  M. W. D. Hanson-Heine,  
 P. H. P. Harbach,  A. W. Hauser,  M. F. Herbst,  M. Hernandez Vera,  
 M. Hodecker,  Z. C. Holden,  S. Houck,  Xunkun Huang,  Kerwin Hui,  
 B. C. Huynh,  M. Ivanov,  Hyunjun Ji,  Hanjie Jiang,  B. Kaduk,  S. Kaehler,  
 K. Khistyaev,  Jaehoon Kim,  P. Klunzinger,  Z. Koczor-Benda,  
 Joong Hoon Koh,  D. Kosenkov,  L. Koulias,  T. Kowalczyk,  C. M. Krauter,  
 K. Kue,  A. Kunitsa,  T. Kus,  A. Landau,  K. V. Lawler,  D. Lefrancois,  
 S. Lehtola,  Rain Li,  Yi-Pei Li,  Jiashu Liang,  M. Liebenthal,  
 Hung-Hsuan Lin,  You-Sheng Lin,  Fenglai Liu,  Kuan-Yu Liu,  
 M. Loipersberger,  A. Luenser,  A. Manjanath,  P. Manohar,  E. Mansoor,  
 S. F. Manzer,  Shan-Ping Mao,  A. V. Marenich,  T. Markovich,  S. Mason,  
 S. A. Maurer,  P. F. McLaughlin,  M. F. S. J. Menger,  J.-M. Mewes,  
 S. A. Mewes,  P. Morgante,  J. W. Mullinax,  K. J. Oosterbaan,  G. Paran,  
 Alexander C. Paul,  Suranjan K. Paul,  F. Pavosevic,  Zheng Pei,  S. Prager,  
 E. I. Proynov,  E. Ramos,  B. Rana,  A. E. Rask,  A. Rettig,  R. M. Richard,  
 F. Rob,  E. Rossomme,  T. Scheele,  M. Scheurer,  M. Schneider,  
 N. Sergueev,  S. M. Sharada,  W. Skomorowski,  D. W. Small,  C. J. Stein,  
 Yu-Chuan Su,  E. J. Sundstrom,  Zhen Tao,  J. Thirman,  T. Tsuchimochi,  
 N. M. Tubman,  S. P. Veccham,  O. Vydrov,  J. Wenzel,  J. Witte,  A. Yamada,  
 Kun Yao,  S. Yeganeh,  S. R. Yost,  A. Zech,  Igor Ying Zhang,  Xing Zhang,  
 Yu Zhang,  D. Zuev,  A. Aspuru-Guzik,  A. T. Bell,  N. A. Besley,  
 K. B. Bravaya,  B. R. Brooks,  D. Casanova,  Jeng-Da Chai,  S. Coriani,  
 C. J. Cramer,  A. E. DePrince, III,  R. A. DiStasio Jr.,  A. Dreuw,  
 B. D. Dunietz,  T. R. Furlani,  W. A. Goddard III,  S. Grimme,  
 S. Hammes-Schiffer,  T. Head-Gordon,  W. J. Hehre,  Chao-Ping Hsu,  
 T.-C. Jagau,  Yousung Jung,  A. Klamt,  Jing Kong,  D. S. Lambrecht,  
 WanZhen Liang,  N. J. Mayhall,  C. W. McCurdy,  J. B. Neaton,  
 C. Ochsenfeld,  J. A. Parkhill,  R. Peverati,  V. A. Rassolov,  Yihan Shao,  
 L. V. Slipchenko,  T. Stauch,  R. P. Steele,  J. E. Subotnik,  
 A. J. W. Thom,  A. Tkatchenko,  D. G. Truhlar,  T. Van Voorhis,  
 T. A. Wesolowski,  K. B. Whaley,  H. L. Woodcock III,  P. M. Zimmerman,  
 S. Faraji,  P. M. W. Gill,  M. Head-Gordon,  J. M. Herbert,  A. I. Krylov

 Additional authors for Version 5.4.1: 
 S. Kotaru,  Shaozhi Li,  Xiangyuan Li,  F. Matz,  A. Molle,  Haisheng Ren,  
 Yingli Su,  Hung-Yi Tsai,  C. Utku,  Fang Wang

 Contributors to earlier versions of Q-Chem not listed above: 
 R. D. Adamson,  B. Austin,  R. Baer,  J. Baker,  G. J. O. Beran,  
 K. Brandhorst,  S. T. Brown,  E. F. C. Byrd,  A. K. Chakraborty,  
 G. K. L. Chan,  Chun-Min Chang,  Yunqing Chen,  C.-L. Cheng,  
 Siu Hung Chien,  D. M. Chipman,  D. L. Crittenden,  H. Dachsel,  
 R. J. Doerksen,  A. D. Dutoi,  R. G. Edgar,  J. Fosso-Tande,  
 L. Fusti-Molnar,  D. Ghosh,  A. Ghysels,  A. Golubeva-Zadorozhnaya,  
 J. Gonthier,  M. S. Gordon,  S. R. Gwaltney,  G. Hawkins,  J. E. Herr,  
 A. Heyden,  S. Hirata,  E. G. Hohenstein,  G. Kedziora,  F. J. Keil,  
 C. Kelley,  Jihan Kim,  R. A. King,  R. Z. Khaliullin,  P. P. Korambath,  
 W. Kurlancheek,  A. Laurent,  A. M. Lee,  M. S. Lee,  S. V. Levchenko,  
 Ching Yeh Lin,  D. Liotard,  E. Livshits,  R. C. Lochan,  I. Lotan,  
 L. A. Martinez-Martinez,  P. E. Maslen,  N. Nair,  D. P. O'Neill,  
 D. Neuhauser,  E. Neuscamman,  C. M. Oana,  R. Olivares-Amaya,  R. Olson,  
 T. M. Perrine,  B. Peters,  P. A. Pieniazek,  A. Prociuk,  Y. M. Rhee,  
 J. Ritchie,  M. A. Rohrdanz,  E. Rosta,  N. J. Russ,  H. F. Schaefer III,  
 M. W. Schmidt,  N. E. Schultz,  S. Sharma,  N. Shenvi,  C. D. Sherrill,  
 A. C. Simmonett,  A. Sodt,  T. Stein,  D. Stuck,  K. S. Thanthiriwatte,  
 V. Vanovschi,  L. Vogt,  Tao Wang,  A. Warshel,  M. A. Watson,  
 C. F. Williams,  Q. Wu,  X. Xu,  Jun Yang,  W. Zhang,  Yan Zhao

 Please cite Q-Chem as follows:
 Y. Shao et al., Mol. Phys. 113, 184-215 (2015)
 DOI: 10.1080/00268976.2014.952696

 Q-Chem 5.4.1 for Intel X86 EM64T Linux

 Parts of Q-Chem use Armadillo 9.800.1 (Horizon Scraper).
 http://arma.sourceforge.net/

 Q-Chem begins on Thu Nov 17 00:22:07 2022  

 Host: cpu316.baobab
0

     Scratch files written to /scratch/fum/qchem15141//
 Processing $rem in /home/share/wesolowski/qc5.aug2021.FDE/config/preferences:
 Processing $rem in /home/fum/.qchemrc:

 Checking the input file for inconsistencies... 	...done.

--------------------------------------------------------------
User input:
--------------------------------------------------------------
$comment
generated from CCJob.Templates
$end

$rem
sym_ignore = true
method = adc(2)
ee_states = 10
basis = cc-pVDZ
mem_static = 1024
mem_total = 30000
adc_davidson_maxiter = 900
adc_davidson_conv = 6
adc_print = 3
adc_prop_es = true
adc_prop_es2es = true
adc_prop_tpa = true
molden_format = True
state_analysis = true
print_orbitals = 15
gen_scfman = false
fde_export_density = true
fde_details = 3
$end

$molecule
0 1
H -0.0348278765 -0.2442097827 0.0636489606
C -1.0765972949 -0.5242748755 -0.0023551776
H -1.313264467 -1.5767591607 -0.0757276926
C -2.043634118 0.3926884087 0.0111254933
H -1.8137616575 1.4459188338 0.0804456828
H -3.085977293 0.114931858 -0.0593381042                     
$end
--------------------------------------------------------------
 ----------------------------------------------------------------
             Standard Nuclear Orientation (Angstroms)
    I     Atom           X                Y                Z
 ----------------------------------------------------------------
    1      H      -0.0348278765    -0.2442097827     0.0636489606
    2      C      -1.0765972949    -0.5242748755    -0.0023551776
    3      H      -1.3132644670    -1.5767591607    -0.0757276926
    4      C      -2.0436341180     0.3926884087     0.0111254933
    5      H      -1.8137616575     1.4459188338     0.0804456828
    6      H      -3.0859772930     0.1149318580    -0.0593381042
 ----------------------------------------------------------------
 Nuclear Repulsion Energy =          33.42320793 hartrees
 There are        8 alpha and        8 beta electrons
 Requested basis set is cc-pVDZ
 There are 24 shells and 48 basis functions
 Total memory of 30000 MB is distributed as follows: 
   MEM_STATIC is set to 1024 MB
   QALLOC/CCMAN JOB total memory use is  28976 MB
 Warning: actual memory use might exceed 30000 MB

 Total QAlloc Memory Limit  30000 MB
 Mega-Array Size      1001 MB
 MEM_STATIC part      1024 MB

                       Distance Matrix (Angstroms)
             H (  1)   C (  2)   H (  3)   C (  4)   H (  5)
   C (  2)  1.080776
   H (  3)  1.851895  1.081258
   C (  4)  2.108009  1.332728  2.102310
   H (  5)  2.453859  2.105215  3.067812  1.080250
   H (  6)  3.074674  2.109370  2.450428  1.081015  1.846510

 A cutoff of  1.0D-11 yielded    300 shell pairs
 There are      1220 function pairs (      1329 Cartesian)
 Smallest overlap matrix eigenvalue = 4.80E-03

 Scale SEOQF with 1.000000e-01/1.000000e-01/1.000000e+00

 Standard Electronic Orientation quadrupole field applied
 Nucleus-field energy     =     0.0000000022 hartrees
 Guess from superposition of atomic densities
 Warning:  Energy on first SCF cycle will be non-variational
 SAD guess density has 16.000000 electrons
 A restricted Hartree-Fock SCF calculation will be
 performed using Pulay DIIS extrapolation
 SCF converges when DIIS error is below 1.0E-08
 using 8 threads for integral computing
 -------------------------------------------------------
 OpenMP Integral computing Module                
 Release: version 1.0, May 2013, Q-Chem Inc. Pittsburgh 
 -------------------------------------------------------
 ---------------------------------------
  Cycle       Energy         DIIS Error
 ---------------------------------------
    1     -78.4387625845      1.01E-01
    2     -78.0176838783      7.21E-03
    3     -78.0383154705      1.84E-03
    4     -78.0397983473      5.73E-04
    5     -78.0399199490      5.79E-05
    6     -78.0399218248      9.34E-06
    7     -78.0399218855      2.26E-06
    8     -78.0399218883      9.21E-07
    9     -78.0399218886      9.17E-08
   10     -78.0399218886      1.11E-08
   11     -78.0399218886      2.74E-09 Convergence criterion met
 ---------------------------------------
 SCF time:  CPU 1.50 s  wall 2.12 s
 SCF   energy in the final basis set = -78.03992189
 Total energy in the final basis set = -78.03992189
Exporting Density Matrix to file 'Densmat_SCF.txt'.
Export successful
================================================================================
|                                                                              |
|                                 A D C  M A N                                 |
|                                                                              |
 ------------------------------------------------------------------------------ 
|                                                                              |
| Components:                                                                  |
|                                                                              |
| - libvmm - 1.3-trunk                                                         |
|   Authors:                                                                   |
|   Evgeny Epifanovsky, Ilya Kaliman                                           |
|                                                                              |
| - libtensor - 2.5-trunk                                                      |
|   Authors:                                                                   |
|   Evgeny Epifanovsky, Michael Wormit, Dmitry Zuev, Sam Manzer,               |
|   Ilya Kaliman                                                               |
|                                                                              |
| - libwfa - 1.1-trunk                                                         |
|   Authors:                                                                   |
|   Felix Plasser, Stefanie Mewes (Baeppler), Benjamin Thomitzni,              |
|   Michael Wormit, Feng Chen, Anna I. Krylov, Pavel Pokhilko                  |
|                                                                              |
| - libadc - 1.1-trunk                                                         |
|   Authors:                                                                   |
|   Michael Wormit, Adrian L. Dempwolff, Philipp H. P. Harbach,                |
|   Caroline Krauter, Dirk Rehn, Matthias Schneider, Jan Wenzel                |
|                                                                              |
| - adcman - 2.6-trunk                                                         |
|   Authors:                                                                   |
|   Michael Wormit, Adrian L. Dempwolff, Philipp H. P. Harbach,                |
|   Caroline Krauter, Daniel Lefrancois, Jan-Michael Mewes, Dirk Rehn,         |
|   Matthias Schneider, Jan Wenzel, Andreas Dreuw                              |
|                                                                              |
| Authors of earlier versions of ADCMAN:                                       |
| Andreas Dreuw, Jan Hendrik Starcke, Dirk Rehn, Michael Wormit                |
|                                                                              |
================================================================================

 Created directory /scratch/fum/qchem15141/plots
  Import QC data ...  CPU 0.00 s  wall 0.00 s

 Alpha MOs, Restricted
 -- Occupied --                  
-11.235 -11.233  -1.032  -0.790  -0.641  -0.582  -0.505  -0.374
  1 A     2 A     3 A     4 A     5 A     6 A     7 A     8 A                  
 -- Virtual --                   
  0.168   0.204   0.233   0.239   0.303   0.462   0.578   0.615
  9 A    10 A    11 A    12 A    13 A    14 A    15 A    16 A                  
  0.689   0.709   0.785   0.808   0.862   0.936   0.972   1.010
 17 A    18 A    19 A    20 A    21 A    22 A    23 A    24 A                  
  1.130   1.235   1.254   1.266   1.293   1.601   1.727   1.750
 25 A    26 A    27 A    28 A    29 A    30 A    31 A    32 A                  
  1.819   1.859   1.867   1.921   1.977   1.978   2.221   2.258
 33 A    34 A    35 A    36 A    37 A    38 A    39 A    40 A                  
  2.376   2.454   2.506   2.634   2.721   2.822   3.140   3.399
 41 A    42 A    43 A    44 A    45 A    46 A    47 A    48 A                  

 Beta MOs, Restricted
 -- Occupied --                  
-11.235 -11.233  -1.032  -0.790  -0.641  -0.582  -0.505  -0.374
  1 A     2 A     3 A     4 A     5 A     6 A     7 A     8 A                  
 -- Virtual --                   
  0.168   0.204   0.233   0.239   0.303   0.462   0.578   0.615
  9 A    10 A    11 A    12 A    13 A    14 A    15 A    16 A                  
  0.689   0.709   0.785   0.808   0.862   0.936   0.972   1.010
 17 A    18 A    19 A    20 A    21 A    22 A    23 A    24 A                  
  1.130   1.235   1.254   1.266   1.293   1.601   1.727   1.750
 25 A    26 A    27 A    28 A    29 A    30 A    31 A    32 A                  
  1.819   1.859   1.867   1.921   1.977   1.978   2.221   2.258
 33 A    34 A    35 A    36 A    37 A    38 A    39 A    40 A                  
  2.376   2.454   2.506   2.634   2.721   2.822   3.140   3.399
 41 A    42 A    43 A    44 A    45 A    46 A    47 A    48 A                  
  Import AO data ...  CPU 0.00 s  wall 0.01 s
  Using point group: C1
  Irreducible representations in point group: A
  Molecular orbitals: 
  Occupied MOs:
  Block   0:   1 (  A) A   2 (  A) A   3 (  A) A   4 (  A) A   5 (  A) A
                  -11.24      -11.23      -1.032     -0.7898     -0.6411
               6 (  A) A   7 (  A) A   8 (  A) A
                 -0.5819     -0.5046      -0.374
  Block   1:   1 (  A) B   2 (  A) B   3 (  A) B   4 (  A) B   5 (  A) B
                  -11.24      -11.23      -1.032     -0.7898     -0.6411
               6 (  A) B   7 (  A) B   8 (  A) B
                 -0.5819     -0.5046      -0.374
  Virtual MOs:
  Block   0:   9 (  A) A  10 (  A) A  11 (  A) A  12 (  A) A  13 (  A) A
                  0.1684      0.2037       0.233      0.2394      0.3033
              14 (  A) A  15 (  A) A  16 (  A) A  17 (  A) A  18 (  A) A
                   0.462      0.5775      0.6152      0.6892      0.7089
              19 (  A) A  20 (  A) A  21 (  A) A  22 (  A) A
                  0.7845       0.808      0.8623      0.9359
  Block   1:  23 (  A) A  24 (  A) A  25 (  A) A  26 (  A) A  27 (  A) A
                  0.9724        1.01        1.13       1.235       1.254
              28 (  A) A  29 (  A) A  30 (  A) A  31 (  A) A  32 (  A) A
                   1.266       1.293       1.601       1.727        1.75
              33 (  A) A  34 (  A) A  35 (  A) A  36 (  A) A
                   1.819       1.859       1.867       1.921
  Block   2:  37 (  A) A  38 (  A) A  39 (  A) A  40 (  A) A  41 (  A) A
                   1.977       1.978       2.221       2.258       2.376
              42 (  A) A  43 (  A) A  44 (  A) A  45 (  A) A  46 (  A) A
                   2.454       2.506       2.634       2.721       2.822
              47 (  A) A  48 (  A) A
                    3.14       3.399
  Block   3:   9 (  A) B  10 (  A) B  11 (  A) B  12 (  A) B  13 (  A) B
                  0.1684      0.2037       0.233      0.2394      0.3033
              14 (  A) B  15 (  A) B  16 (  A) B  17 (  A) B  18 (  A) B
                   0.462      0.5775      0.6152      0.6892      0.7089
              19 (  A) B  20 (  A) B  21 (  A) B  22 (  A) B
                  0.7845       0.808      0.8623      0.9359
  Block   4:  23 (  A) B  24 (  A) B  25 (  A) B  26 (  A) B  27 (  A) B
                  0.9724        1.01        1.13       1.235       1.254
              28 (  A) B  29 (  A) B  30 (  A) B  31 (  A) B  32 (  A) B
                   1.266       1.293       1.601       1.727        1.75
              33 (  A) B  34 (  A) B  35 (  A) B  36 (  A) B
                   1.819       1.859       1.867       1.921
  Block   5:  37 (  A) B  38 (  A) B  39 (  A) B  40 (  A) B  41 (  A) B
                   1.977       1.978       2.221       2.258       2.376
              42 (  A) B  43 (  A) B  44 (  A) B  45 (  A) B  46 (  A) B
                   2.454       2.506       2.634       2.721       2.822
              47 (  A) B  48 (  A) B
                    3.14       3.399
  Import MO data ...  CPU 0.09 s  wall 0.18 s
  Import HF data ...  CPU 0.41 s  wall 0.22 s
  Import 2e integrals ...  CPU 0.68 s  wall 0.35 s

--------------------------------------------------------------------------------
                                   HF Summary                                   
--------------------------------------------------------------------------------
  Energy:                                                  -78.0399218886 a.u.
  Dip. moment [a.u.]:                  [  -0.000500,    0.000882,   -0.002268]
  Total dipole [Debye]:                                               0.006314
  <r^2> [a.u.]:                        [ 175.322793,   34.917349,   11.627972]
  Total <r^2> [a.u.]:                                               221.868114
--------------------------------------------------------------------------------
  HF properties ...  CPU 0.02 s  wall 0.08 s
  MP(1) calculation ...  CPU 0.01 s  wall 0.06 s
  N^6 prerequesite intermediates ...  CPU 0.36 s  wall 0.21 s
  Difference density matrix of state mp2_gs printed to ASCII file 'State_mp2_gs_Difference.txt'
Exporting MP density matrix to file 'Densmat_MP.txt'.
Export successful
  Total density matrix of state mp2_gs printed to ASCII file 'State_mp2_gs_Total.txt'
Exporting MP density matrix to file 'Densmat_MP.txt'.
Export successful

--------------------------------------------------------------------------------
                                 MP(2) Summary                                  
--------------------------------------------------------------------------------
  MP energy contribution:                                   -0.2797071965 a.u.
  Total energy:                                            -78.3196290852 a.u.
  Dip. moment [a.u.]:                  [  -0.000506,    0.000767,   -0.002246]
  Total dipole [Debye]:                                               0.006167
  <r^2> [a.u.]:                        [ 175.369306,   34.958003,   11.459798]
  Total <r^2> [a.u.]:                                               221.787107

  Density matrix analysis:
  ------------------------
  NOs
    Occupation of frontier NOs:
       0.0453   1.9383
    Number of electrons: 16.000000
    Number of unpaired electrons: n_u =  0.40344, n_u,nl =  0.04508
    NO participation ratio (PR_NO): 13.857066
  
  
  Mulliken Population Analysis
  Atom      Charge (e)              h+              e-           Del q
  --------------------------------------------------------------------
   1 H        0.050939        0.014033       -0.011202        0.002832
   2 C       -0.100765        0.093226       -0.098852       -0.005626
   3 H        0.050563        0.014073       -0.011191        0.002881
   4 C       -0.101427        0.092987       -0.098902       -0.005915
   5 H        0.050081        0.014124       -0.011185        0.002939
   6 H        0.050610        0.014081       -0.011192        0.002889
  --------------------------------------------------------------------
  Sum:        0.000000        0.242523       -0.242523        0.000000
  
  Multipole moment analysis of the density matrix
    Molecular charge:                      0.000000
    Number of electrons:                   16.000000
      Center of electronic charge [Ang]: [ -1.560559,  -0.065628,   0.003927]
    Total nuclear charge:                  16.000000
      Center of nuclear charge [Ang]:    [ -1.560576,  -0.065602,   0.003853]
    Dipole moment [D]:                     0.006167
      Cartesian components [D]:          [ -0.001286,   0.001948,  -0.005708]
    RMS size of the density [Ang]:         1.200834
      Cartesian components [Ang]:        [  0.796197,   0.779436,   0.447830]
  
  Exciton analysis of the difference density matrix
    <r_h> [Ang]:                  [ -1.560487,  -0.065949,   0.004280]
    <r_e> [Ang]:                  [ -1.560474,  -0.065696,   0.004232]
    |<r_e - r_h>| [Ang]:            0.000257
    Hole size [Ang]:                1.393711
      Cartesian components [Ang]: [  0.846718,   0.834080,   0.727880]
    Electron size [Ang]:            1.359768
      Cartesian components [Ang]: [  0.877882,   0.861780,   0.579334]
--------------------------------------------------------------------------------
  MP(2) calculation ...  CPU 0.38 s  wall 0.15 s
  Start ADC(2)-s ...  CPU 0.01 s  wall 0.02 s
  ADC(2) intermediates ...  CPU 0.02 s  wall 0.01 s
  Starting Davidson for singlet states of irrep A ... 
--------------------------------------------------------------------------------
   It NVec Conv  Avg. Norm  Max. Norm  Conv. states           Remark
--------------------------------------------------------------------------------
        10    0  1.330e-01  4.687e-01  0.4119 n n n n n n n n Guess.
    1   20    0  2.307e-02  1.109e-01  0.3262 n n n n n n n n 
    2   30    0  5.929e-03  2.508e-02  0.3215 n n n n n n n n 
    3   40    0  2.033e-03  1.113e-02  0.3211 n n n n n n n n 
    4   50    0  5.273e-04  3.350e-03  0.3211 n n n n n n n n 
    5   20    0  2.627e-04  1.628e-03  0.3211 n n n n n n n n Subspace collapsed.
    6   30    0  1.664e-04  1.172e-03  0.3211 n n n n n n n n 
    7   40    0  1.422e-04  1.057e-03  0.3211 n n n n n n n n 
    8   50    0  9.873e-05  8.554e-04  0.3211 n n n n n n n n 
    9   20    1  4.576e-05  3.401e-04  0.3211 n y n n n n n n Subspace collapsed.
   10   30    3  3.393e-05  2.315e-04  0.3211 n y y y n n n n 
   11   40    4  1.647e-05  1.217e-04  0.3211 n y y y y n n n 
   12   50    5  1.013e-05  8.993e-05  0.3211 n y y y y y n n 
   13   20    6  9.240e-06  8.651e-05  0.3211 y y y y y y n n Subspace collapsed.
   14   30    6  1.218e-05  1.162e-04  0.3211 y y y y y y n n 
   15   40    6  1.138e-05  1.112e-04  0.3211 y y y y y y n n 
   16   50    6  1.024e-05  1.011e-04  0.3211 y y y y y y n n 
   17   20    6  5.030e-06  4.972e-05  0.3211 y y y y y y n n Subspace collapsed.
   18   30    6  3.550e-06  3.510e-05  0.3211 y y y y y y n n 
   19   40    6  2.025e-06  2.005e-05  0.3211 y y y y y y n n 
   20   50    8  2.426e-06  2.410e-05  0.3211 y y y y y y y y 
   21   20    8  1.203e-06  1.196e-05  0.3211 y y y y y y y y Subspace collapsed.
   22   30    8  2.254e-06  2.245e-05  0.3211 y y y y y y y y 
   23   40    8  2.148e-06  2.143e-05  0.3211 y y y y y y y y 
   24   47    8  2.059e-06  2.056e-05  0.3211 y y y y y y y y 
   25   50    8  2.032e-06  2.029e-05  0.3211 y y y y y y y y 
   26   17    9  7.887e-07  7.877e-06  0.3211 y y y y y y y y Subspace collapsed.
   27   22    9  8.643e-07  8.633e-06  0.3211 y y y y y y y y 
   28   27    9  4.247e-07  4.243e-06  0.3211 y y y y y y y y 
   29   32    9  4.468e-07  4.465e-06  0.3211 y y y y y y y y 
   30   36    9  4.815e-07  4.813e-06  0.3211 y y y y y y y y 
   31   40    9  5.039e-07  5.038e-06  0.3211 y y y y y y y y 
   32   44    9  2.455e-07  2.455e-06  0.3211 y y y y y y y y 
   33   48    9  1.066e-07  1.066e-06  0.3211 y y y y y y y y 
   34   50   10  5.523e-08  5.522e-07  0.3211 y y y y y y y y Converged.
--------------------------------------------------------------------------------
  Davidson Summary: 
 ------------------------------------------------------------
  State  0: excitation energy =   0.3211 a.u.   (converged)
  State  1: excitation energy =   0.3327 a.u.   (converged)
  State  2: excitation energy =   0.3370 a.u.   (converged)
  State  3: excitation energy =   0.3614 a.u.   (converged)
  State  4: excitation energy =   0.3753 a.u.   (converged)
  State  5: excitation energy =   0.3872 a.u.   (converged)
  State  6: excitation energy =   0.4247 a.u.   (converged)
  State  7: excitation energy =   0.4471 a.u.   (converged)
  State  8: excitation energy =   0.4563 a.u.   (converged)
  State  9: excitation energy =   0.4647 a.u.   (converged)
 ------------------------------------------------------------

  Singlet states of irrep A ...  CPU 83.31 s  wall 26.89 s
  TDMs ...  CPU 0.93 s  wall 0.33 s
  SDMs ...  CPU 2.60 s  wall 0.66 s
  Starting TPA DIIS iterations ... 
------------------------------------ 
   It     Res. Norm  Remark
------------------------------------
                       Guess.
    1     4.407e+00  
    2     5.843e+00  
    3     1.078e+00  
    4     2.568e-01  
    5     6.577e-02  
    6     2.676e-02  
    7     8.241e-03  
    8     1.441e-03  
    9     5.346e-04  
   10     9.012e-05  
   11     2.830e-05  
   12     4.428e-06  
   13     1.423e-06  
   14     4.459e-07  Converged.
   ... Converged in 14 steps (norm: 4.45855e-07)
------------------------------------
  Starting TPA DIIS iterations ... 
------------------------------------ 
   It     Res. Norm  Remark
------------------------------------
                       Guess.
    1     4.184e+00  
    2     5.540e+00  
    3     1.029e+00  
    4     2.555e-01  
    5     6.536e-02  
    6     2.672e-02  
    7     8.116e-03  
    8     1.454e-03  
    9     5.373e-04  
   10     8.980e-05  
   11     2.842e-05  
   12     4.332e-06  
   13     1.466e-06  
   14     4.238e-07  Converged.
   ... Converged in 14 steps (norm: 4.23764e-07)
------------------------------------
  Starting TPA DIIS iterations ... 
------------------------------------ 
   It     Res. Norm  Remark
------------------------------------
                       Guess.
    1     6.919e-01  
    2     4.925e-01  
    3     1.739e-01  
    4     1.007e-01  
    5     1.733e-02  
    6     6.257e-03  
    7     1.037e-03  
    8     4.479e-04  
    9     1.236e-04  
   10     2.982e-05  
   11     5.077e-06  
   12     1.678e-06  
   13     1.089e-06  
   14     3.187e-07  Converged.
   ... Converged in 14 steps (norm: 3.18728e-07)
------------------------------------
  Starting TPA DIIS iterations ... 
------------------------------------ 
   It     Res. Norm  Remark
------------------------------------
                       Guess.
    1     4.695e+00  
    2     6.360e+00  
    3     1.159e+00  
    4     2.854e-01  
    5     7.411e-02  
    6     3.041e-02  
    7     9.348e-03  
    8     1.632e-03  
    9     6.100e-04  
   10     1.034e-04  
   11     3.282e-05  
   12     5.184e-06  
   13     1.679e-06  
   14     5.278e-07  Converged.
   ... Converged in 14 steps (norm: 5.2778e-07)
------------------------------------
  Starting TPA DIIS iterations ... 
------------------------------------ 
   It     Res. Norm  Remark
------------------------------------
                       Guess.
    1     4.456e+00  
    2     6.029e+00  
    3     1.106e+00  
    4     2.837e-01  
    5     7.367e-02  
    6     3.038e-02  
    7     9.209e-03  
    8     1.648e-03  
    9     6.132e-04  
   10     1.030e-04  
   11     3.292e-05  
   12     5.059e-06  
   13     1.733e-06  
   14     4.981e-07  Converged.
   ... Converged in 14 steps (norm: 4.98099e-07)
------------------------------------
  Starting TPA DIIS iterations ... 
------------------------------------ 
   It     Res. Norm  Remark
------------------------------------
                       Guess.
    1     7.045e-01  
    2     5.113e-01  
    3     1.843e-01  
    4     1.134e-01  
    5     1.871e-02  
    6     6.898e-03  
    7     1.171e-03  
    8     5.280e-04  
    9     1.495e-04  
   10     3.420e-05  
   11     5.755e-06  
   12     1.955e-06  
   13     1.313e-06  
   14     3.883e-07  Converged.
   ... Converged in 14 steps (norm: 3.88299e-07)
------------------------------------
  Starting TPA DIIS iterations ... 
------------------------------------ 
   It     Res. Norm  Remark
------------------------------------
                       Guess.
    1     4.808e+00  
    2     6.566e+00  
    3     1.191e+00  
    4     2.970e-01  
    5     7.748e-02  
    6     3.190e-02  
    7     9.797e-03  
    8     1.710e-03  
    9     6.408e-04  
   10     1.088e-04  
   11     3.468e-05  
   12     5.497e-06  
   13     1.785e-06  
   14     5.620e-07  Converged.
   ... Converged in 14 steps (norm: 5.61992e-07)
------------------------------------
  Starting TPA DIIS iterations ... 
------------------------------------ 
   It     Res. Norm  Remark
------------------------------------
                       Guess.
    1     4.563e+00  
    2     6.225e+00  
    3     1.137e+00  
    4     2.952e-01  
    5     7.703e-02  
    6     3.188e-02  
    7     9.652e-03  
    8     1.726e-03  
    9     6.441e-04  
   10     1.084e-04  
   11     3.478e-05  
   12     5.358e-06  
   13     1.846e-06  
   14     5.289e-07  Converged.
   ... Converged in 14 steps (norm: 5.28882e-07)
------------------------------------
  Starting TPA DIIS iterations ... 
------------------------------------ 
   It     Res. Norm  Remark
------------------------------------
                       Guess.
    1     7.092e-01  
    2     5.185e-01  
    3     1.884e-01  
    4     1.185e-01  
    5     1.926e-02  
    6     7.158e-03  
    7     1.226e-03  
    8     5.615e-04  
    9     1.603e-04  
   10     3.566e-05  
   11     6.025e-06  
   12     2.068e-06  
   13     1.406e-06  
   14     4.177e-07  Converged.
   ... Converged in 14 steps (norm: 4.17746e-07)
------------------------------------
  Starting TPA DIIS iterations ... 
------------------------------------ 
   It     Res. Norm  Remark
------------------------------------
                       Guess.
    1     5.549e+00  
    2     7.947e+00  
    3     1.398e+00  
    4     3.772e-01  
    5     1.008e-01  
    6     4.228e-02  
    7     1.290e-02  
    8     2.243e-03  
    9     8.553e-04  
   10     1.467e-04  
   11     4.796e-05  
   12     7.741e-06  
   13     2.567e-06  
   14     8.147e-07  Converged.
   ... Converged in 14 steps (norm: 8.14706e-07)
------------------------------------
  Starting TPA DIIS iterations ... 
------------------------------------ 
   It     Res. Norm  Remark
------------------------------------
                       Guess.
    1     5.264e+00  
    2     7.533e+00  
    3     1.334e+00  
    4     3.741e-01  
    5     1.003e-01  
    6     4.232e-02  
    7     1.272e-02  
    8     2.268e-03  
    9     8.595e-04  
   10     1.462e-04  
   11     4.798e-05  
   12     7.492e-06  
   13     2.674e-06  
   14     7.523e-07  Converged.
   ... Converged in 14 steps (norm: 7.52299e-07)
------------------------------------
  Starting TPA DIIS iterations ... 
------------------------------------ 
   It     Res. Norm  Remark
------------------------------------
                       Guess.
    1     7.374e-01  
    2     5.638e-01  
    3     2.145e-01  
    4     1.523e-01  
    5     2.295e-02  
    6     8.953e-03  
    7     1.624e-03  
    8     7.996e-04  
    9     2.358e-04  
   10     4.136e-05  
   11     7.856e-06  
   12     2.861e-06  
   13     2.078e-06  
   14     6.387e-07  Converged.
   ... Converged in 14 steps (norm: 6.38704e-07)
------------------------------------
  Starting TPA DIIS iterations ... 
------------------------------------ 
   It     Res. Norm  Remark
------------------------------------
                       Guess.
    1     6.059e+00  
    2     8.932e+00  
    3     1.540e+00  
    4     4.366e-01  
    5     1.181e-01  
    6     5.007e-02  
    7     1.521e-02  
    8     2.637e-03  
    9     1.016e-03  
   10     1.752e-04  
   11     5.816e-05  
   12     9.477e-06  
   13     3.190e-06  
   14     1.020e-06  
   15     3.171e-07  Converged.
   ... Converged in 15 steps (norm: 3.17086e-07)
------------------------------------
  Starting TPA DIIS iterations ... 
------------------------------------ 
   It     Res. Norm  Remark
------------------------------------
                       Guess.
    1     5.747e+00  
    2     8.467e+00  
    3     1.469e+00  
    4     4.325e-01  
    5     1.175e-01  
    6     5.016e-02  
    7     1.500e-02  
    8     2.668e-03  
    9     1.021e-03  
   10     1.745e-04  
   11     5.808e-05  
   12     9.123e-06  
   13     3.339e-06  
   14     9.302e-07  Converged.
   ... Converged in 14 steps (norm: 9.30236e-07)
------------------------------------
  Starting TPA DIIS iterations ... 
------------------------------------ 
   It     Res. Norm  Remark
------------------------------------
                       Guess.
    1     7.547e-01  
    2     5.935e-01  
    3     2.319e-01  
    4     1.758e-01  
    5     2.559e-02  
    6     1.029e-02  
    7     1.936e-03  
    8     9.716e-04  
    9     2.893e-04  
   10     4.260e-05  
   11     9.216e-06  
   12     3.442e-06  
   13     2.588e-06  
   14     8.190e-07  Converged.
   ... Converged in 14 steps (norm: 8.19043e-07)
------------------------------------
  Starting TPA DIIS iterations ... 
------------------------------------ 
   It     Res. Norm  Remark
------------------------------------
                       Guess.
    1     6.559e+00  
    2     9.922e+00  
    3     1.679e+00  
    4     4.978e-01  
    5     1.360e-01  
    6     5.816e-02  
    7     1.758e-02  
    8     3.041e-03  
    9     1.183e-03  
   10     2.047e-04  
   11     6.888e-05  
   12     1.131e-05  
   13     3.862e-06  
   14     1.249e-06  
   15     3.898e-07  Converged.
   ... Converged in 15 steps (norm: 3.89788e-07)
------------------------------------
  Starting TPA DIIS iterations ... 
------------------------------------ 
   It     Res. Norm  Remark
------------------------------------
                       Guess.
    1     6.220e+00  
    2     9.404e+00  
    3     1.601e+00  
    4     4.926e-01  
    5     1.353e-01  
    6     5.832e-02  
    7     1.734e-02  
    8     3.078e-03  
    9     1.188e-03  
   10     2.038e-04  
   11     6.866e-05  
   12     1.083e-05  
   13     4.064e-06  
   14     1.126e-06  
   15     5.702e-07  Converged.
   ... Converged in 15 steps (norm: 5.70184e-07)
------------------------------------
  Starting TPA DIIS iterations ... 
------------------------------------ 
   It     Res. Norm  Remark
------------------------------------
                       Guess.
    1     7.703e-01  
    2     6.216e-01  
    3     2.488e-01  
    4     1.985e-01  
    5     2.825e-02  
    6     1.166e-02  
    7     2.269e-03  
    8     1.135e-03  
    9     3.408e-04  
   10     4.310e-05  
   11     1.065e-05  
   12     4.031e-06  
   13     3.109e-06  
   14     1.017e-06  
   15     3.323e-07  Converged.
   ... Converged in 15 steps (norm: 3.32283e-07)
------------------------------------
  Starting TPA DIIS iterations ... 
------------------------------------ 
   It     Res. Norm  Remark
------------------------------------
                       Guess.
    1     8.668e+00  
    2     1.434e+01  
    3     2.252e+00  
    4     7.833e-01  
    5     2.192e-01  
    6     9.673e-02  
    7     2.867e-02  
    8     4.921e-03  
    9     1.977e-03  
   10     3.446e-04  
   11     1.200e-04  
   12     2.035e-05  
   13     7.273e-06  
   14     2.545e-06  
   15     7.874e-07  Converged.
   ... Converged in 15 steps (norm: 7.87423e-07)
------------------------------------
  Starting TPA DIIS iterations ... 
------------------------------------ 
   It     Res. Norm  Remark
------------------------------------
                       Guess.
    1     8.217e+00  
    2     1.359e+01  
    3     2.146e+00  
    4     7.722e-01  
    5     2.183e-01  
    6     9.724e-02  
    7     2.829e-02  
    8     4.988e-03  
    9     1.982e-03  
   10     3.426e-04  
   11     1.188e-04  
   12     1.895e-05  
   13     7.864e-06  
   14     2.261e-06  
   15     1.385e-06  
   16     5.311e-07  Converged.
   ... Converged in 16 steps (norm: 5.31059e-07)
------------------------------------
  Starting TPA DIIS iterations ... 
------------------------------------ 
   It     Res. Norm  Remark
------------------------------------
                       Guess.
    1     8.254e-01  
    2     7.322e-01  
    3     3.165e-01  
    4     2.846e-01  
    5     4.012e-02  
    6     1.797e-02  
    7     3.938e-03  
    8     1.657e-03  
    9     5.393e-04  
   10     5.198e-05  
   11     1.780e-05  
   12     6.726e-06  
   13     5.547e-06  
   14     2.083e-06  
   15     7.452e-07  Converged.
   ... Converged in 15 steps (norm: 7.45185e-07)
------------------------------------
  Starting TPA DIIS iterations ... 
------------------------------------ 
   It     Res. Norm  Remark
------------------------------------
                       Guess.
    1     1.049e+01  
    2     1.844e+01  
    3     2.735e+00  
    4     1.058e+00  
    5     3.000e-01  
    6     1.351e-01  
    7     3.942e-02  
    8     6.736e-03  
    9     2.764e-03  
   10     4.820e-04  
   11     1.691e-04  
   12     2.979e-05  
   13     1.087e-05  
   14     4.103e-06  
   15     1.322e-06  
   16     6.687e-07  Converged.
   ... Converged in 16 steps (norm: 6.68662e-07)
------------------------------------
  Starting TPA DIIS iterations ... 
------------------------------------ 
   It     Res. Norm  Remark
------------------------------------
                       Guess.
    1     9.943e+00  
    2     1.747e+01  
    3     2.605e+00  
    4     1.040e+00  
    5     2.990e-01  
    6     1.360e-01  
    7     3.892e-02  
    8     6.829e-03  
    9     2.765e-03  
   10     4.782e-04  
   11     1.665e-04  
   12     2.695e-05  
   13     1.213e-05  
   14     3.815e-06  
   15     2.525e-06  
   16     1.140e-06  
   17     7.536e-07  Converged.
   ... Converged in 17 steps (norm: 7.5356e-07)
------------------------------------
  Starting TPA DIIS iterations ... 
------------------------------------ 
   It     Res. Norm  Remark
------------------------------------
                       Guess.
    1     8.641e-01  
    2     8.215e-01  
    3     3.714e-01  
    4     3.434e-01  
    5     5.102e-02  
    6     2.370e-02  
    7     5.623e-03  
    8     1.872e-03  
    9     6.916e-04  
   10     7.012e-05  
   11     2.522e-05  
   12     9.469e-06  
   13     8.401e-06  
   14     3.340e-06  
   15     1.441e-06  
   16     1.100e-06  
   17     5.743e-07  Converged.
   ... Converged in 17 steps (norm: 5.74274e-07)
------------------------------------
  Starting TPA DIIS iterations ... 
------------------------------------ 
   It     Res. Norm  Remark
------------------------------------
                       Guess.
    1     1.143e+01  
    2     2.064e+01  
    3     2.980e+00  
    4     1.207e+00  
    5     3.443e-01  
    6     1.563e-01  
    7     4.532e-02  
    8     7.729e-03  
    9     3.201e-03  
   10     5.575e-04  
   11     1.955e-04  
   12     3.528e-05  
   13     1.295e-05  
   14     5.053e-06  
   15     1.719e-06  
   16     8.769e-07  Converged.
   ... Converged in 16 steps (norm: 8.76899e-07)
------------------------------------
  Starting TPA DIIS iterations ... 
------------------------------------ 
   It     Res. Norm  Remark
------------------------------------
                       Guess.
    1     1.083e+01  
    2     1.956e+01  
    3     2.837e+00  
    4     1.185e+00  
    5     3.431e-01  
    6     1.575e-01  
    7     4.475e-02  
    8     7.835e-03  
    9     3.198e-03  
   10     5.526e-04  
   11     1.921e-04  
   12     3.142e-05  
   13     1.474e-05  
   14     4.878e-06  
   15     3.314e-06  
   16     1.579e-06  
   17     9.850e-07  Converged.
   ... Converged in 17 steps (norm: 9.84982e-07)
------------------------------------
  Starting TPA DIIS iterations ... 
------------------------------------ 
   It     Res. Norm  Remark
------------------------------------
                       Guess.
    1     8.819e-01  
    2     8.663e-01  
    3     3.985e-01  
    4     3.686e-01  
    5     5.680e-02  
    6     2.661e-02  
    7     6.542e-03  
    8     1.930e-03  
    9     7.657e-04  
   10     8.106e-05  
   11     2.941e-05  
   12     1.111e-05  
   13     1.039e-05  
   14     4.140e-06  
   15     1.946e-06  
   16     1.446e-06  
   17     7.821e-07  Converged.
   ... Converged in 17 steps (norm: 7.8208e-07)
------------------------------------
  Starting TPA DIIS iterations ... 
------------------------------------ 
   It     Res. Norm  Remark
------------------------------------
                       Guess.
    1     1.241e+01  
    2     2.298e+01  
    3     3.230e+00  
    4     1.366e+00  
    5     3.920e-01  
    6     1.795e-01  
    7     5.167e-02  
    8     8.797e-03  
    9     3.675e-03  
   10     6.391e-04  
   11     2.238e-04  
   12     4.146e-05  
   13     1.531e-05  
   14     6.145e-06  
   15     2.244e-06  
   16     1.139e-06  
   17     6.096e-07  Converged.
   ... Converged in 17 steps (norm: 6.09585e-07)
------------------------------------
  Starting TPA DIIS iterations ... 
------------------------------------ 
   It     Res. Norm  Remark
------------------------------------
                       Guess.
    1     1.176e+01  
    2     2.178e+01  
    3     3.075e+00  
    4     1.339e+00  
    5     3.907e-01  
    6     1.809e-01  
    7     5.102e-02  
    8     8.918e-03  
    9     3.668e-03  
   10     6.328e-04  
   11     2.195e-04  
   12     3.631e-05  
   13     1.776e-05  
   14     6.184e-06  
   15     4.300e-06  
   16     2.133e-06  
   17     1.257e-06  
   18     5.558e-07  Converged.
   ... Converged in 18 steps (norm: 5.55752e-07)
------------------------------------
  Starting TPA DIIS iterations ... 
------------------------------------ 
   It     Res. Norm  Remark
------------------------------------
                       Guess.
    1     8.993e-01  
    2     9.124e-01  
    3     4.258e-01  
    4     3.920e-01  
    5     6.290e-02  
    6     2.953e-02  
    7     7.519e-03  
    8     1.973e-03  
    9     8.406e-04  
   10     9.280e-05  
   11     3.403e-05  
   12     1.303e-05  
   13     1.296e-05  
   14     5.096e-06  
   15     2.587e-06  
   16     1.854e-06  
   17     1.030e-06  
   18     3.374e-07  Converged.
   ... Converged in 18 steps (norm: 3.37393e-07)
------------------------------------
  Two-photon absorbption ...  CPU 83.20 s  wall 20.73 s
  Transition density matrix of state singlet_A_1 printed to ASCII file 'State_singlet_A_1_Transition.txt'
  Transition density matrix of state singlet_A_2 printed to ASCII file 'State_singlet_A_2_Transition.txt'
  Transition density matrix of state singlet_A_3 printed to ASCII file 'State_singlet_A_3_Transition.txt'
  Transition density matrix of state singlet_A_4 printed to ASCII file 'State_singlet_A_4_Transition.txt'
  Transition density matrix of state singlet_A_5 printed to ASCII file 'State_singlet_A_5_Transition.txt'
  Transition density matrix of state singlet_A_6 printed to ASCII file 'State_singlet_A_6_Transition.txt'
  Transition density matrix of state singlet_A_7 printed to ASCII file 'State_singlet_A_7_Transition.txt'
  Transition density matrix of state singlet_A_8 printed to ASCII file 'State_singlet_A_8_Transition.txt'
  Transition density matrix of state singlet_A_9 printed to ASCII file 'State_singlet_A_9_Transition.txt'
  Transition density matrix of state singlet_A_10 printed to ASCII file 'State_singlet_A_10_Transition.txt'
  Transition properties ...  CPU 0.13 s  wall 0.33 s
  Difference density matrix of state singlet_A_1 printed to ASCII file 'State_singlet_A_1_Difference.txt'
  Total density matrix of state singlet_A_1 printed to ASCII file 'State_singlet_A_1_Total.txt'
  Difference density matrix of state singlet_A_2 printed to ASCII file 'State_singlet_A_2_Difference.txt'
  Total density matrix of state singlet_A_2 printed to ASCII file 'State_singlet_A_2_Total.txt'
  Difference density matrix of state singlet_A_3 printed to ASCII file 'State_singlet_A_3_Difference.txt'
  Total density matrix of state singlet_A_3 printed to ASCII file 'State_singlet_A_3_Total.txt'
  Difference density matrix of state singlet_A_4 printed to ASCII file 'State_singlet_A_4_Difference.txt'
  Total density matrix of state singlet_A_4 printed to ASCII file 'State_singlet_A_4_Total.txt'
  Difference density matrix of state singlet_A_5 printed to ASCII file 'State_singlet_A_5_Difference.txt'
  Total density matrix of state singlet_A_5 printed to ASCII file 'State_singlet_A_5_Total.txt'
  Difference density matrix of state singlet_A_6 printed to ASCII file 'State_singlet_A_6_Difference.txt'
  Total density matrix of state singlet_A_6 printed to ASCII file 'State_singlet_A_6_Total.txt'
  Difference density matrix of state singlet_A_7 printed to ASCII file 'State_singlet_A_7_Difference.txt'
  Total density matrix of state singlet_A_7 printed to ASCII file 'State_singlet_A_7_Total.txt'
  Difference density matrix of state singlet_A_8 printed to ASCII file 'State_singlet_A_8_Difference.txt'
  Total density matrix of state singlet_A_8 printed to ASCII file 'State_singlet_A_8_Total.txt'
  Difference density matrix of state singlet_A_9 printed to ASCII file 'State_singlet_A_9_Difference.txt'
  Total density matrix of state singlet_A_9 printed to ASCII file 'State_singlet_A_9_Total.txt'
  Difference density matrix of state singlet_A_10 printed to ASCII file 'State_singlet_A_10_Difference.txt'
  Total density matrix of state singlet_A_10 printed to ASCII file 'State_singlet_A_10_Total.txt'
  Properties ...  CPU 0.23 s  wall 0.50 s
  ISR TDMS ...  CPU 18.39 s  wall 4.78 s
  ISR transition properties ...  CPU 0.14 s  wall 0.07 s
  Sum-over-states TPA ...  CPU 0.00 s  wall 0.00 s

--------------------------------------------------------------------------------
                   State-averaged natural transition orbitals
--------------------------------------------------------------------------------
--------------------------------------------------------------------------------
  SA-NTO decomposition ...  CPU 0.01 s  wall 0.02 s

--------------------------------------------------------------------------------
                             Excited State Summary
--------------------------------------------------------------------------------
--------------------------------------------------------------------------------

  Excited state 1 (singlet, A)                                     [converged]
  ----------------------------------------------------------------------------
  Term symbol:  2 (1) A                                     R^2 =  4.56240e-13

  Total energy:                                            -77.9985619885 a.u.
  Excitation energy:                                               8.736680 eV

  Osc. strength:                                                      0.445598
  Trans. dip. moment [a.u.]:           [   1.045769,   -0.993942,   -0.015665]
  <i|r^2|0> [a.u.]:                    [   6.168132,   -0.248922,    0.000163]
  Two-photon absorption cross-section (SoS) [a.u.]:                   0.000558
  Two-photon absorption matrix (SoS) [a.u.]:
                                       |    0.005696   -0.001689    0.001701 |
                                       |   -0.001689    0.001173   -0.001452 |
                                       |    0.001701   -0.001452    0.004748 |
  Two-photon absorption cross-section [a.u.]:                         0.000515
  Two-photon absorption matrix [a.u.]:
                                       |    0.000473   -0.002803    0.004918 |
                                       |   -0.002803   -0.005927   -0.002639 |
                                       |    0.004918   -0.002639    0.003723 |

  Dip. moment [a.u.]:                  [  -0.000348,    0.000562,   -0.002778]
  Total dipole [Debye]:                                               0.007259
  <r^2> [a.u.]:                        [ 176.124050,   35.648513,   11.869642]
  Total <r^2> [a.u.]:                                               223.642205

  V1^2 = 0.9715, V2^2 = 0.0285

  Important amplitudes:
      occ i     occ j     vir a      vir b          v   
    -----------------------------------------------------
     8 (A) A              9 (A) A                 0.6811
     6 (A) A             14 (A) A                -0.0623
     4 (A) A             10 (A) A                -0.0606
     7 (A) A             16 (A) A                 0.0570
     5 (A) A             13 (A) A                -0.0513
     6 (A) A             23 (A) A                -0.0486
     8 (A) A             20 (A) A                 0.0350
     6 (A) A             19 (A) A                -0.0309
     3 (A) A             12 (A) A                 0.0281
     5 (A) A             22 (A) A                 0.0215
     7 (A) A             11 (A) A                 0.0209
     4 (A) A             24 (A) A                -0.0187
     3 (A) A             26 (A) A                -0.0185
     8 (A) A   8 (A) B   17 (A) A   20 (A) B     -0.0184
     8 (A) A   8 (A) B    9 (A) A   28 (A) B     -0.0168
     6 (A) A             26 (A) A                -0.0163
     7 (A) A             21 (A) A                 0.0148
     3 (A) A             14 (A) A                -0.0139
     6 (A) A             12 (A) A                -0.0132
     3 (A) A   4 (A) B    9 (A) A    9 (A) B      0.0129
     3 (A) A             19 (A) A                -0.0119
     8 (A) A   8 (A) B   18 (A) A   19 (A) B      0.0113
     7 (A) A             32 (A) A                 0.0096
     7 (A) A             36 (A) A                 0.0086
     3 (A) A             23 (A) A                -0.0080
     8 (A) A   8 (A) B   25 (A) A   29 (A) B      0.0076
     6 (A) A             35 (A) A                -0.0072
     6 (A) A             40 (A) A                -0.0068
     3 (A) A   6 (A) B    9 (A) A   28 (A) B     -0.0065
     6 (A) A   8 (A) A   19 (A) A   28 (A) A     -0.0061
     5 (A) A   7 (A) B    9 (A) A    9 (A) B     -0.0060
     5 (A) A   8 (A) B   11 (A) A   20 (A) B     -0.0059
     7 (A) A   8 (A) B   13 (A) A   20 (A) B      0.0059
     5 (A) A   8 (A) B   16 (A) A    9 (A) B     -0.0059
     5 (A) A   8 (A) B   11 (A) A    9 (A) B      0.0059
     3 (A) A   5 (A) B    9 (A) A   25 (A) B     -0.0058
     3 (A) A             40 (A) A                -0.0057
     7 (A) A   8 (A) B   22 (A) A   20 (A) B     -0.0057
     6 (A) A   8 (A) A    9 (A) A   18 (A) A     -0.0057
     8 (A) A   8 (A) B   19 (A) A   30 (A) B      0.0056
    -----------------------------------------------------

  Density matrix analysis:
  ------------------------
  NOs
    Occupation of frontier NOs:
       0.9495   1.0217
    Number of electrons: 16.000000
    Number of unpaired electrons: n_u =  2.31339, n_u,nl =  2.03264
    NO participation ratio (PR_NO):  2.863921
  
  
  Mulliken Population Analysis
  Atom      Charge (e)              h+              e-           Del q
  --------------------------------------------------------------------
   1 H        0.058678        0.020285       -0.012546        0.007740
   2 C       -0.115966        0.490888       -0.506089       -0.015201
   3 H        0.058138        0.020176       -0.012600        0.007576
   4 C       -0.116954        0.490729       -0.506255       -0.015526
   5 H        0.057711        0.020206       -0.012576        0.007630
   6 H        0.058392        0.020322       -0.012540        0.007782
  --------------------------------------------------------------------
  Sum:        0.000000        1.062606       -1.062606        0.000000
  
  Multipole moment analysis of the density matrix
    Molecular charge:                      0.000000
    Number of electrons:                   16.000000
      Center of electronic charge [Ang]: [ -1.560565,  -0.065621,   0.003945]
    Total nuclear charge:                  16.000000
      Center of nuclear charge [Ang]:    [ -1.560576,  -0.065602,   0.003853]
    Dipole moment [D]:                     0.007259
      Cartesian components [D]:          [ -0.000884,   0.001428,  -0.007062]
    RMS size of the density [Ang]:         1.214271
      Cartesian components [Ang]:        [  0.804439,   0.787151,   0.455768]
  
  Exciton analysis of the difference density matrix
    <r_h> [Ang]:                  [ -1.560279,  -0.065842,   0.005074]
    <r_e> [Ang]:                  [ -1.560358,  -0.065740,   0.005339]
    |<r_e - r_h>| [Ang]:            0.000295
    Hole size [Ang]:                1.285451
      Cartesian components [Ang]: [  0.728485,   0.712630,   0.783488]
    Electron size [Ang]:            1.463224
      Cartesian components [Ang]: [  0.854015,   0.830557,   0.849622]

  Transition density matrix analysis:
  -----------------------------------
  
  CT numbers (Mulliken)
    omega =     0.9535
    <Phe> =    -0.1607
  
  Exciton analysis of the transition density matrix
    Trans. dipole moment [D]:             1.833671
      Cartesian components [D]:         [  1.329039,  -1.263174,  -0.019908]
    <r_h> [Ang]:                        [ -1.560109,  -0.065943,   0.004865]
    <r_e> [Ang]:                        [ -1.560391,  -0.065745,   0.005518]
    |<r_e - r_h>| [Ang]:                  0.000739
    Hole size [Ang]:                      1.214165
      Cartesian components [Ang]:       [  0.649593,   0.636446,   0.804464]
    Electron size [Ang]:                  1.486076
      Cartesian components [Ang]:       [  0.864470,   0.839441,   0.869743]
    RMS electron-hole separation [Ang]:   1.936757
      Cartesian components [Ang]:       [  1.106784,   1.075161,   1.170506]
    Covariance(r_h, r_e) [Ang^2]:        -0.034204
    Correlation coefficient:             -0.018956
    Center-of-mass size [Ang]:            0.950554
      Cartesian components [Ang]:       [  0.527633,   0.515625,   0.599405]

  Decomposition into state-averaged NTOs
    H- 0 -> L+ 0:  0.6699 ( 89.8%)
    H- 2 -> L+ 5: -0.0837 (  1.4%)
                   omega =  95.4%
  ----------------------------------------------------------------------------


  Excited state 2 (singlet, A)                                     [converged]
  ----------------------------------------------------------------------------
  Term symbol:  3 (1) A                                     R^2 =  4.41755e-13

  Total energy:                                            -77.9868883180 a.u.
  Excitation energy:                                               9.054337 eV

  Osc. strength:                                                      0.000007
  Trans. dip. moment [a.u.]:           [   0.003624,   -0.001637,    0.003673]
  <i|r^2|0> [a.u.]:                    [  -0.032104,   -0.097400,    0.150447]
  Two-photon absorption cross-section (SoS) [a.u.]:                   4.894022
  Two-photon absorption matrix (SoS) [a.u.]:
                                       |   -0.034485   -0.057906    0.542031 |
                                       |   -0.057906   -0.081919    0.551096 |
                                       |    0.542031    0.551096    0.117857 |
  Two-photon absorption cross-section [a.u.]:                         0.091154
  Two-photon absorption matrix [a.u.]:
                                       |    0.048116    0.009110   -0.058116 |
                                       |    0.009110   -0.033164   -0.078218 |
                                       |   -0.058116   -0.078218   -0.014717 |

  Dip. moment [a.u.]:                  [  -0.002604,    0.010965,   -0.004646]
  Total dipole [Debye]:                                               0.030984
  <r^2> [a.u.]:                        [ 174.523831,   33.976386,   13.175113]
  Total <r^2> [a.u.]:                                               221.675330

  V1^2 = 0.9542, V2^2 = 0.0458

  Important amplitudes:
      occ i     occ j     vir a      vir b          v   
    -----------------------------------------------------
     7 (A) A              9 (A) A                 0.6692
     8 (A) A             11 (A) A                 0.1482
     7 (A) A             20 (A) A                 0.0759
     5 (A) A   8 (A) B    9 (A) A    9 (A) B     -0.0316
     8 (A) A             16 (A) A                -0.0273
     8 (A) A             21 (A) A                 0.0176
     5 (A) A             28 (A) A                -0.0151
     4 (A) A   7 (A) B    9 (A) A   19 (A) B     -0.0135
     5 (A) A   7 (A) B    9 (A) A   16 (A) B      0.0134
     7 (A) A   8 (A) B   20 (A) A   17 (A) B     -0.0105
     7 (A) A   8 (A) A    9 (A) A   28 (A) A      0.0098
     5 (A) A   8 (A) B    9 (A) A   20 (A) B     -0.0096
     4 (A) A   6 (A) B    9 (A) A   16 (A) B      0.0091
     5 (A) A   6 (A) A    9 (A) A   23 (A) A     -0.0091
     5 (A) A   6 (A) A    9 (A) A   14 (A) A     -0.0089
     5 (A) A   6 (A) B    9 (A) A   19 (A) B     -0.0087
     8 (A) A   7 (A) B    9 (A) A   28 (A) B     -0.0085
     4 (A) A   5 (A) A    9 (A) A   10 (A) A      0.0085
     6 (A) A   7 (A) B    9 (A) A   18 (A) B     -0.0083
     5 (A) A   6 (A) B    9 (A) A   23 (A) B     -0.0080
     3 (A) A   7 (A) B    9 (A) A   18 (A) B      0.0080
     5 (A) A   7 (A) A    9 (A) A   16 (A) A      0.0079
     4 (A) A   8 (A) B    9 (A) A   25 (A) B      0.0077
     7 (A) A   8 (A) B   17 (A) A   20 (A) B     -0.0074
     4 (A) A   7 (A) B   19 (A) A    9 (A) B     -0.0074
     5 (A) A   5 (A) B    9 (A) A   13 (A) B     -0.0072
     7 (A) A   8 (A) B   19 (A) A   18 (A) B      0.0072
     8 (A) A             10 (A) A                -0.0071
     5 (A) A   8 (A) A    9 (A) A   20 (A) A     -0.0069
     4 (A) A   5 (A) B    9 (A) A   18 (A) B     -0.0068
     7 (A) A   7 (A) B   20 (A) A   22 (A) B     -0.0065
     7 (A) A   8 (A) B   17 (A) A    9 (A) B     -0.0065
     5 (A) A   6 (A) B    9 (A) A   14 (A) B     -0.0063
     4 (A) A   7 (A) A    9 (A) A   19 (A) A     -0.0061
     4 (A) A   5 (A) B   10 (A) A    9 (A) B     -0.0061
     5 (A) A   7 (A) B   11 (A) A   20 (A) B     -0.0060
     5 (A) A             38 (A) A                -0.0060
     4 (A) A   7 (A) B    9 (A) A   14 (A) B      0.0060
     4 (A) A   8 (A) A    9 (A) A   25 (A) A      0.0057
     6 (A) A   7 (A) A   19 (A) A   28 (A) A     -0.0057
    -----------------------------------------------------

  Density matrix analysis:
  ------------------------
  NOs
    Occupation of frontier NOs:
       0.9580   1.0538
    Number of electrons: 16.000000
    Number of unpaired electrons: n_u =  2.35533, n_u,nl =  2.06278
    NO participation ratio (PR_NO):  3.027539
  
  
  Mulliken Population Analysis
  Atom      Charge (e)              h+              e-           Del q
  --------------------------------------------------------------------
   1 H        0.149458        0.121747       -0.023227        0.098520
   2 C       -0.301933        0.270862       -0.472029       -0.201168
   3 H        0.151642        0.126895       -0.025815        0.101079
   4 C       -0.302483        0.273117       -0.474173       -0.201055
   5 H        0.154379        0.127509       -0.023211        0.104298
   6 H        0.148936        0.123870       -0.025544        0.098326
  --------------------------------------------------------------------
  Sum:        0.000000        1.043999       -1.043999       -0.000000
  
  Multipole moment analysis of the density matrix
    Molecular charge:                      0.000000
    Number of electrons:                   16.000000
      Center of electronic charge [Ang]: [ -1.560490,  -0.065965,   0.004007]
    Total nuclear charge:                  16.000000
      Center of nuclear charge [Ang]:    [ -1.560576,  -0.065602,   0.003853]
    Dipole moment [D]:                     0.030984
      Cartesian components [D]:          [ -0.006618,   0.027870,  -0.011809]
    RMS size of the density [Ang]:         1.200090
      Cartesian components [Ang]:        [  0.786987,   0.768307,   0.480179]
  
  Exciton analysis of the difference density matrix
    <r_h> [Ang]:                  [ -1.565370,  -0.063331,   0.003503]
    <r_e> [Ang]:                  [ -1.564307,  -0.068501,   0.004720]
    |<r_e - r_h>| [Ang]:            0.005416
    Hole size [Ang]:                1.486318
      Cartesian components [Ang]: [  1.000283,   1.001034,   0.454430]
    Electron size [Ang]:            1.477091
      Cartesian components [Ang]: [  0.881541,   0.859123,   0.816450]

  Transition density matrix analysis:
  -----------------------------------
  
  CT numbers (Mulliken)
    omega =     0.9218
    <Phe> =    -0.0121
  
  Exciton analysis of the transition density matrix
    Trans. dipole moment [D]:             0.006880
      Cartesian components [D]:         [  0.004606,  -0.002080,   0.004668]
    <r_h> [Ang]:                        [ -1.566009,  -0.062720,   0.003182]
    <r_e> [Ang]:                        [ -1.563964,  -0.069168,   0.005038]
    |<r_e - r_h>| [Ang]:                  0.007015
    Hole size [Ang]:                      1.514976
      Cartesian components [Ang]:       [  1.023016,   1.025389,   0.444037]
    Electron size [Ang]:                  1.474159
      Cartesian components [Ang]:       [  0.872149,   0.848430,   0.832268]
    RMS electron-hole separation [Ang]:   2.094025
      Cartesian components [Ang]:       [  1.328453,   1.315947,   0.942569]
    Covariance(r_h, r_e) [Ang^2]:         0.041704
    Correlation coefficient:              0.018674
    Center-of-mass size [Ang]:            1.066737
      Cartesian components [Ang]:       [  0.680005,   0.672837,   0.472029]

  Decomposition into state-averaged NTOs
    H- 1 -> L+ 0:  0.6616 ( 87.5%)
    H- 0 -> L+ 2: -0.1481 (  4.4%)
                   omega =  92.2%
  ----------------------------------------------------------------------------


  Excited state 3 (singlet, A)                                     [converged]
  ----------------------------------------------------------------------------
  Term symbol:  4 (1) A                                     R^2 =  8.61961e-13

  Total energy:                                            -77.9826147383 a.u.
  Excitation energy:                                               9.170627 eV

  Osc. strength:                                                      0.025218
  Trans. dip. moment [a.u.]:           [   0.022565,    0.013464,   -0.333991]
  <i|r^2|0> [a.u.]:                    [   0.135858,    0.002626,    0.005374]
  Two-photon absorption cross-section (SoS) [a.u.]:                   0.005798
  Two-photon absorption matrix (SoS) [a.u.]:
                                       |    0.009009    0.001429   -0.011461 |
                                       |    0.001429   -0.011635   -0.007131 |
                                       |   -0.011461   -0.007131   -0.023098 |
  Two-photon absorption cross-section [a.u.]:                         0.006566
  Two-photon absorption matrix [a.u.]:
                                       |   -0.000766    0.004732   -0.015863 |
                                       |    0.004732   -0.016192   -0.006192 |
                                       |   -0.015863   -0.006192   -0.015294 |

  Dip. moment [a.u.]:                  [   0.004604,    0.015017,    0.004170]
  Total dipole [Debye]:                                               0.041305
  <r^2> [a.u.]:                        [ 180.892961,   40.605307,   11.030109]
  Total <r^2> [a.u.]:                                               232.528377

  V1^2 = 0.9587, V2^2 = 0.0413

  Important amplitudes:
      occ i     occ j     vir a      vir b          v   
    -----------------------------------------------------
     8 (A) A             10 (A) A                 0.6890
     8 (A) A             24 (A) A                 0.0507
     8 (A) A             18 (A) A                -0.0312
     4 (A) A              9 (A) A                -0.0238
     8 (A) A   8 (A) B    9 (A) A   12 (A) B      0.0219
     8 (A) A   8 (A) B   10 (A) A   17 (A) B      0.0173
     8 (A) A             15 (A) A                 0.0169
     5 (A) A   8 (A) B   11 (A) A   10 (A) B      0.0165
     7 (A) A   8 (A) B   13 (A) A   10 (A) B     -0.0141
     4 (A) A   8 (A) B   12 (A) A   10 (A) B     -0.0111
     6 (A) A   8 (A) A   10 (A) A   15 (A) A     -0.0110
     7 (A) A   8 (A) B   22 (A) A   10 (A) B      0.0108
     6 (A) A   8 (A) B   15 (A) A   10 (A) B      0.0108
     4 (A) A   8 (A) A   10 (A) A   12 (A) A      0.0106
     7 (A) A   8 (A) A   10 (A) A   22 (A) A     -0.0099
     7 (A) A   8 (A) A   10 (A) A   13 (A) A      0.0097
     5 (A) A   8 (A) B   21 (A) A   10 (A) B      0.0094
     5 (A) A   8 (A) A   10 (A) A   11 (A) A     -0.0094
     6 (A) A   8 (A) A   10 (A) A   18 (A) A     -0.0088
     6 (A) A   8 (A) B   10 (A) A   10 (A) B     -0.0087
     7 (A) A   8 (A) A   12 (A) A   16 (A) A      0.0082
     5 (A) A   8 (A) A   10 (A) A   21 (A) A     -0.0080
     3 (A) A   4 (A) B   10 (A) A    9 (A) B      0.0079
     4 (A) A   8 (A) B   19 (A) A   10 (A) B      0.0075
     8 (A) A   8 (A) B    9 (A) A   23 (A) B      0.0075
     7 (A) A              9 (A) A                 0.0073
     8 (A) A   8 (A) B   10 (A) A   28 (A) B     -0.0073
     3 (A) A   8 (A) B   10 (A) A   10 (A) B      0.0072
     5 (A) A   8 (A) B   10 (A) A   11 (A) B      0.0071
     3 (A) A   8 (A) A   10 (A) A   24 (A) A     -0.0071
     7 (A) A   8 (A) B   16 (A) A   12 (A) B     -0.0070
     3 (A) A   8 (A) B   10 (A) A   18 (A) B     -0.0069
     8 (A) A   8 (A) B    9 (A) A   19 (A) B     -0.0068
     6 (A) A   8 (A) B   18 (A) A   10 (A) B      0.0067
     3 (A) A   6 (A) B   10 (A) A   28 (A) B     -0.0062
     7 (A) A   8 (A) B   12 (A) A   11 (A) B      0.0058
     6 (A) A             28 (A) A                 0.0057
     3 (A) A   5 (A) B   10 (A) A   25 (A) B     -0.0056
     5 (A) A   8 (A) A   10 (A) A   16 (A) A      0.0056
     3 (A) A   8 (A) A   10 (A) A   18 (A) A     -0.0056
    -----------------------------------------------------

  Density matrix analysis:
  ------------------------
  NOs
    Occupation of frontier NOs:
       0.9815   0.9849
    Number of electrons: 16.000000
    Number of unpaired electrons: n_u =  2.28543, n_u,nl =  2.02444
    NO participation ratio (PR_NO):  2.692307
  
  
  Mulliken Population Analysis
  Atom      Charge (e)              h+              e-           Del q
  --------------------------------------------------------------------
   1 H       -0.162154        0.053934       -0.267027       -0.213093
   2 C        0.327649        0.538782       -0.110368        0.428414
   3 H       -0.166458        0.053703       -0.270723       -0.217020
   4 C        0.326722        0.537515       -0.109366        0.428149
   5 H       -0.161978        0.054002       -0.266062       -0.212059
   6 H       -0.163780        0.053852       -0.268243       -0.214390
  --------------------------------------------------------------------
  Sum:        0.000000        1.291788       -1.291788        0.000000
  
  Multipole moment analysis of the density matrix
    Molecular charge:                      0.000000
    Number of electrons:                   16.000000
      Center of electronic charge [Ang]: [ -1.560728,  -0.066099,   0.003715]
    Total nuclear charge:                  16.000000
      Center of nuclear charge [Ang]:    [ -1.560576,  -0.065602,   0.003853]
    Dipole moment [D]:                     0.041305
      Cartesian components [D]:          [  0.011701,   0.038169,   0.010599]
    RMS size of the density [Ang]:         1.276481
      Cartesian components [Ang]:        [  0.854445,   0.840414,   0.439355]
  
  Exciton analysis of the difference density matrix
    <r_h> [Ang]:                  [ -1.560132,  -0.066088,   0.004548]
    <r_e> [Ang]:                  [ -1.562225,  -0.071925,   0.001920]
    |<r_e - r_h>| [Ang]:            0.006735
    Hole size [Ang]:                1.410272
      Cartesian components [Ang]: [  0.834046,   0.819775,   0.788163]
    Electron size [Ang]:            2.076051
      Cartesian components [Ang]: [  1.373496,   1.376744,   0.726686]

  Transition density matrix analysis:
  -----------------------------------
  
  CT numbers (Mulliken)
    omega =     0.9259
    <Phe> =    -0.0109
  
  Exciton analysis of the transition density matrix
    Trans. dipole moment [D]:             0.425771
      Cartesian components [D]:         [  0.028677,   0.017111,  -0.424460]
    <r_h> [Ang]:                        [ -1.559694,  -0.065627,   0.005216]
    <r_e> [Ang]:                        [ -1.562669,  -0.074074,   0.001194]
    |<r_e - r_h>| [Ang]:                  0.009817
    Hole size [Ang]:                      1.212985
      Cartesian components [Ang]:       [  0.636577,   0.623482,   0.823027]
    Electron size [Ang]:                  2.296373
      Cartesian components [Ang]:       [  1.518129,   1.524191,   0.803402]
    RMS electron-hole separation [Ang]:   2.587160
      Cartesian components [Ang]:       [  1.638699,   1.639820,   1.148501]
    Covariance(r_h, r_e) [Ang^2]:         0.025679
    Correlation coefficient:              0.009219
    Center-of-mass size [Ang]:            1.303459
      Cartesian components [Ang]:       [  0.826826,   0.826867,   0.575894]

  Decomposition into state-averaged NTOs
    H- 0 -> L+ 1:  0.6797 ( 92.4%)
                   omega =  92.6%
  ----------------------------------------------------------------------------


  Excited state 4 (singlet, A)                                     [converged]
  ----------------------------------------------------------------------------
  Term symbol:  5 (1) A                                     R^2 =  5.54488e-13

  Total energy:                                            -77.9582601282 a.u.
  Excitation energy:                                               9.833349 eV

  Osc. strength:                                                      0.000002
  Trans. dip. moment [a.u.]:           [   0.001265,   -0.001086,    0.002153]
  <i|r^2|0> [a.u.]:                    [   0.022936,    0.020354,   -0.036252]
  Two-photon absorption cross-section (SoS) [a.u.]:                 149.651376
  Two-photon absorption matrix (SoS) [a.u.]:
                                       |    0.225564    0.322603   -3.017230 |
                                       |    0.322603    0.421858   -3.028761 |
                                       |   -3.017230   -3.028761   -0.649398 |
  Two-photon absorption cross-section [a.u.]:                        91.957764
  Two-photon absorption matrix [a.u.]:
                                       |    0.144482    0.250783   -2.362758 |
                                       |    0.250783    0.361993   -2.375651 |
                                       |   -2.362758   -2.375651   -0.508971 |

  Dip. moment [a.u.]:                  [  -0.018739,   -0.013203,    0.001657]
  Total dipole [Debye]:                                               0.058416
  <r^2> [a.u.]:                        [ 181.204968,   40.516277,   10.766785]
  Total <r^2> [a.u.]:                                               232.488030

  V1^2 = 0.9635, V2^2 = 0.0365

  Important amplitudes:
      occ i     occ j     vir a      vir b          v   
    -----------------------------------------------------
     8 (A) A             11 (A) A                -0.6697
     7 (A) A              9 (A) A                 0.1502
     8 (A) A             21 (A) A                -0.0781
     8 (A) A             16 (A) A                 0.0646
     8 (A) A   8 (A) B    9 (A) A   13 (A) B      0.0167
     5 (A) A   8 (A) B   11 (A) A   11 (A) B     -0.0155
     8 (A) A   8 (A) B   11 (A) A   17 (A) B     -0.0140
     7 (A) A             20 (A) A                 0.0137
     7 (A) A   8 (A) B   13 (A) A   11 (A) B      0.0127
     8 (A) A             12 (A) A                -0.0116
     5 (A) A   8 (A) A   11 (A) A   21 (A) A      0.0110
     4 (A) A   8 (A) B   12 (A) A   11 (A) B      0.0110
     8 (A) A   8 (A) B    9 (A) A   22 (A) B     -0.0107
     7 (A) A   8 (A) A   11 (A) A   22 (A) A      0.0096
     6 (A) A   8 (A) B   15 (A) A   11 (A) B     -0.0090
     6 (A) A   8 (A) B   10 (A) A   11 (A) B      0.0090
     7 (A) A   8 (A) B   22 (A) A   11 (A) B     -0.0089
     3 (A) A   4 (A) B   11 (A) A    9 (A) B     -0.0083
     3 (A) A   8 (A) B   11 (A) A   18 (A) B      0.0081
     6 (A) A   8 (A) A   11 (A) A   15 (A) A      0.0080
     7 (A) A   8 (A) A   13 (A) A   16 (A) A      0.0078
     7 (A) A   8 (A) A   11 (A) A   13 (A) A     -0.0077
     6 (A) A              9 (A) A                -0.0074
     5 (A) A   8 (A) B   21 (A) A   11 (A) B     -0.0071
     4 (A) A   8 (A) B   19 (A) A   11 (A) B     -0.0070
     5 (A) A   8 (A) B    9 (A) A    9 (A) B     -0.0068
     4 (A) A   8 (A) A   11 (A) A   12 (A) A     -0.0062
     6 (A) A   8 (A) A   11 (A) A   18 (A) A      0.0062
     3 (A) A   6 (A) B   11 (A) A   28 (A) B      0.0060
     6 (A) A   8 (A) B   18 (A) A   11 (A) B     -0.0060
     7 (A) A   8 (A) B   16 (A) A   13 (A) B     -0.0057
     3 (A) A   8 (A) A   11 (A) A   18 (A) A      0.0056
     5 (A) A   8 (A) B   10 (A) A   10 (A) B     -0.0056
     3 (A) A   8 (A) B   11 (A) A   30 (A) B      0.0055
     3 (A) A   5 (A) B   11 (A) A   25 (A) B      0.0054
     6 (A) A   8 (A) B   11 (A) A   10 (A) B      0.0054
     7 (A) A   8 (A) B   12 (A) A   10 (A) B     -0.0054
     8 (A) A   8 (A) B   20 (A) A   22 (A) B     -0.0053
     3 (A) A   8 (A) A   11 (A) A   24 (A) A      0.0053
     5 (A) A   8 (A) A   11 (A) A   16 (A) A     -0.0048
    -----------------------------------------------------

  Density matrix analysis:
  ------------------------
  NOs
    Occupation of frontier NOs:
       0.9408   1.0277
    Number of electrons: 16.000000
    Number of unpaired electrons: n_u =  2.31914, n_u,nl =  2.04907
    NO participation ratio (PR_NO):  2.914188
  
  
  Mulliken Population Analysis
  Atom      Charge (e)              h+              e-           Del q
  --------------------------------------------------------------------
   1 H       -0.148284        0.045801       -0.245024       -0.199223
   2 C        0.274992        0.497182       -0.121425        0.375757
   3 H       -0.126980        0.046905       -0.224447       -0.177542
   4 C        0.273206        0.496825       -0.122191        0.374634
   5 H       -0.131750        0.047048       -0.228879       -0.181831
   6 H       -0.141184        0.045849       -0.237643       -0.191794
  --------------------------------------------------------------------
  Sum:        0.000000        1.179609       -1.179609        0.000000
  
  Multipole moment analysis of the density matrix
    Molecular charge:                      0.000000
    Number of electrons:                   16.000000
      Center of electronic charge [Ang]: [ -1.559956,  -0.065166,   0.003798]
    Total nuclear charge:                  16.000000
      Center of nuclear charge [Ang]:    [ -1.560576,  -0.065602,   0.003853]
    Dipole moment [D]:                     0.058416
      Cartesian components [D]:          [ -0.047629,  -0.033558,   0.004211]
    RMS size of the density [Ang]:         1.277196
      Cartesian components [Ang]:        [  0.859038,   0.839560,   0.434078]
  
  Exciton analysis of the difference density matrix
    <r_h> [Ang]:                  [ -1.559954,  -0.065304,   0.004709]
    <r_e> [Ang]:                  [ -1.551775,  -0.059037,   0.002958]
    |<r_e - r_h>| [Ang]:            0.010452
    Hole size [Ang]:                1.394840
      Cartesian components [Ang]: [  0.818408,   0.806712,   0.790571]
    Electron size [Ang]:            2.124176
      Cartesian components [Ang]: [  1.442421,   1.403940,   0.678602]

  Transition density matrix analysis:
  -----------------------------------
  
  CT numbers (Mulliken)
    omega =     0.9298
    <Phe> =    -0.0135
  
  Exciton analysis of the transition density matrix
    Trans. dipole moment [D]:             0.003460
      Cartesian components [D]:         [  0.001608,  -0.001380,   0.002736]
    <r_h> [Ang]:                        [ -1.560486,  -0.065705,   0.005089]
    <r_e> [Ang]:                        [ -1.550245,  -0.057667,   0.002758]
    |<r_e - r_h>| [Ang]:                  0.013226
    Hole size [Ang]:                      1.227956
      Cartesian components [Ang]:       [  0.658003,   0.650094,   0.807642]
    Electron size [Ang]:                  2.262279
      Cartesian components [Ang]:       [  1.536858,   1.495416,   0.720904]
    RMS electron-hole separation [Ang]:   2.563407
      Cartesian components [Ang]:       [  1.663265,   1.622847,   1.082115]
    Covariance(r_h, r_e) [Ang^2]:         0.027451
    Correlation coefficient:              0.009882
    Center-of-mass size [Ang]:            1.292351
      Cartesian components [Ang]:       [  0.840157,   0.819179,   0.541528]

  Decomposition into state-averaged NTOs
    H- 0 -> L+ 2:  0.6650 ( 88.5%)
    H- 1 -> L+ 0:  0.1482 (  4.4%)
                   omega =  93.0%
  ----------------------------------------------------------------------------


  Excited state 5 (singlet, A)                                     [converged]
  ----------------------------------------------------------------------------
  Term symbol:  6 (1) A                                     R^2 =  2.75492e-13

  Total energy:                                            -77.9443540534 a.u.
  Excitation energy:                                              10.211753 eV

  Osc. strength:                                                      0.000000
  Trans. dip. moment [a.u.]:           [  -0.000031,   -0.000204,   -0.000256]
  <i|r^2|0> [a.u.]:                    [  -0.084716,    0.106527,   -0.018941]
  Two-photon absorption cross-section (SoS) [a.u.]:                 178.092023
  Two-photon absorption matrix (SoS) [a.u.]:
                                       |   -0.266441   -0.071357    3.346183 |
                                       |   -0.071357    0.442634   -3.304562 |
                                       |    3.346183   -3.304562   -0.089355 |
  Two-photon absorption cross-section [a.u.]:                        79.697376
  Two-photon absorption matrix [a.u.]:
                                       |   -0.149476   -0.029037    2.227809 |
                                       |   -0.029037    0.327205   -2.219946 |
                                       |    2.227809   -2.219946   -0.068928 |

  Dip. moment [a.u.]:                  [   0.008122,   -0.009906,   -0.001370]
  Total dipole [Debye]:                                               0.032746
  <r^2> [a.u.]:                        [ 178.424294,   38.316394,   11.932159]
  Total <r^2> [a.u.]:                                               228.672847

  V1^2 = 0.9573, V2^2 = 0.0427

  Important amplitudes:
[...]
    16   -1.573545486824e-03
    17   -1.667375688362e-03
    18   -9.251704164689e-05
    19   -3.318376314964e-03
    20    1.088103168657e-02
    21    9.360586647003e-01
    22   -2.636140794402e-04
    23    1.400485028158e-02
    24    7.721165211371e-04
    25    7.024709526489e-02
    26   -5.224742286878e-02
    27   -1.398960072440e+00
    28    9.798558595380e-02
    29   -9.261208934857e-02
    30    9.797803356305e-04
    31    3.848056062458e-01
    32   -3.626414177413e-01
    33    4.082090011000e-03
    34    1.563297786858e-02
    35   -1.666560196816e-03
    36   -1.603466836971e-03
    37    8.206839114087e-06
    38   -3.128178693539e-03
    39    9.817444628999e-03
    40    9.315448033291e-01
    41    2.481942413343e-04
    42   -1.393989730641e-02
    43   -7.262318860131e-04
    44    1.012367816351e-02
    45    9.401695315398e-01
    46    1.411102844050e-02
    47    3.756952017843e-04
    48    7.894670312482e-04
Sym=X
Ene= 0.232968
Spin=Alpha
Occup=0
     1    2.619107513238e-02
     2    1.236074320059e+00
     3   -1.436118214910e-02
     4   -3.826117251271e-03
     5   -9.247380591811e-04
     6    3.187166468206e-03
     7   -3.534290791056e-03
     8   -5.160000467028e-02
     9   -1.550379877360e-01
    10   -1.584101289492e-01
    11   -1.664341999863e-02
    12   -5.569486200161e-01
    13   -5.578263773875e-01
    14   -5.902139971333e-02
    15    5.558380831310e-04
    16   -1.900927992628e-04
    17   -1.960969014676e-04
    18   -2.170182035535e-04
    19   -3.607864878619e-04
    20   -2.502961419623e-02
    21   -1.158357762118e+00
    22   -2.491081714459e-03
    23   -1.353079360161e-02
    24   -8.928469837528e-04
    25   -2.776047156784e-03
    26    3.204991191044e-03
    27    4.043681257573e-02
    28   -1.539741122207e-01
    29   -1.589790967865e-01
    30   -1.690792134091e-02
    31   -5.475509484174e-01
    32   -5.558266354379e-01
    33   -5.959219172195e-02
    34   -4.553364769877e-04
    35    2.631928529088e-04
    36    2.214801669183e-04
    37    3.869222767579e-04
    38    3.205313961450e-04
    39    2.498171746727e-02
    40    1.158454384102e+00
    41   -2.467831460201e-03
    42   -1.362763565701e-02
    43   -9.037976809155e-04
    44   -2.628844446953e-02
    45   -1.222095132222e+00
    46   -1.423070998353e-02
    47   -3.758470881494e-03
    48   -9.407937265191e-04
Sym=X
Ene= 0.239411
Spin=Alpha
Occup=0
     1   -1.599155359490e-02
     2   -1.049883965631e+00
     3    1.650643773326e-02
     4    9.099243585864e-03
     5    1.311615193258e-03
     6   -8.649713185798e-02
     7    7.972964511638e-02
     8    1.592970920556e+00
     9    5.302113564548e-02
    10   -6.077873967460e-02
    11   -1.379440023728e-03
    12    2.106359150804e-01
    13   -2.360563983996e-01
    14   -5.943765403978e-03
    15   -2.254434951994e-02
    16    2.491516267517e-03
    17    3.069675412465e-03
    18   -5.057402809144e-04
    19    1.286798087799e-02
    20   -1.700535296629e-02
    21   -1.125888334648e+00
    22   -8.543662350496e-03
    23   -1.777933997769e-02
    24   -1.466897347059e-03
    25    8.643809369775e-02
    26   -7.930270389957e-02
    27   -1.596299681891e+00
    28    5.319535709797e-02
    29   -6.138118708839e-02
    30    4.631396874150e-04
    31    2.102623031943e-01
    32   -2.418908188693e-01
    33    1.547344778831e-03
    34    2.261686249065e-02
    35   -2.666853826076e-03
    36   -2.922294457831e-03
    37    7.577310443176e-04
    38   -1.278847078013e-02
    39    1.684156304207e-02
    40    1.132444856115e+00
    41   -8.626983037602e-03
    42   -1.793716361227e-02
    43   -1.358374761665e-03
    44    1.559189164765e-02
    45    1.047095869875e+00
    46    1.639966428870e-02
    47    9.261912408686e-03
    48    1.445797057838e-03
Sym=X
Ene= 0.303259
Spin=Alpha
Occup=0
     1   -2.073259063707e-02
     2    1.691108362267e+00
     3   -2.291238817185e-02
     4    2.777176936190e-04
     5   -9.792598547306e-04
     6   -2.144943952487e-04
     7    1.719105748579e-04
     8    2.720770392239e-03
     9   -1.338735885582e-01
    10   -1.395990692912e-01
    11   -1.458384507405e-02
    12   -1.144331844528e+00
    13   -1.193527347003e+00
    14   -1.249741232596e-01
    15   -1.139004121507e-04
    16   -1.558917935175e-03
    17    1.953584708998e-03
    18   -3.265630458895e-02
    19   -1.574589929019e-03
    20    1.999135462190e-02
    21   -1.690109463241e+00
    22    1.425064851986e-03
    23   -2.290516075784e-02
    24   -1.375790685741e-03
    25    9.230974463612e-05
    26    2.507795333306e-04
    27   -7.655326531625e-03
    28    1.346928970079e-01
    29    1.402712269629e-01
    30    1.478743778633e-02
    31    1.139650957185e+00
    32    1.197794462850e+00
    33    1.254391059206e-01
    34    6.939959508752e-07
    35   -1.889532732308e-03
    36    1.599430674144e-03
    37   -3.251203025261e-02
    38   -1.632434016015e-03
    39    1.966132979409e-02
    40   -1.692832370322e+00
    41   -1.604108487297e-03
    42    2.284128821581e-02
    43    1.277433586735e-03
    44   -2.003330944882e-02
    45    1.697977013807e+00
    46    2.304390112933e-02
    47   -3.700291603651e-04
    48    1.083409676695e-03
Sym=X
Ene= 0.462037
Spin=Alpha
Occup=0
     1   -1.157370514428e-01
     2   -7.141439373264e-01
     3   -1.568509936455e-02
     4   -1.030113615256e-02
     5   -1.339690846698e-03
     6    6.080471612202e-02
     7    1.735771729486e-02
     8   -3.591456865811e+00
     9    1.029981079926e-01
    10   -9.907049519796e-02
    11   -3.199559674310e-04
    12    2.426147766427e+00
    13   -2.302643208926e+00
    14   -3.505848326820e-02
    15    5.365007658452e-02
    16   -3.354420333429e-03
    17   -4.647020641462e-03
    18   -7.909377572391e-04
    19    1.800246090175e-02
    20   -1.209711499154e-01
    21   -7.025482897335e-01
    22    8.748655736508e-03
    23    1.636155425832e-02
    24    1.392443245452e-03
    25   -6.094775854447e-02
    26   -1.627009729967e-02
    27    3.590924454301e+00
    28    1.051029654960e-01
    29   -1.005232687063e-01
    30    8.047315921988e-04
    31    2.422122397727e+00
    32   -2.298737077229e+00
    33   -2.992685697746e-02
    34   -5.269734695965e-02
    35    3.139534511095e-03
    36    4.641330774169e-03
    37    7.029319519505e-04
    38   -1.902993789987e-02
    39    1.149027609578e-01
    40    7.104243170236e-01
    41    8.614168392411e-03
    42    1.623154721440e-02
    43    1.433034558677e-03
    44    1.111013521710e-01
    45    7.168380977881e-01
    46   -1.546972123840e-02
    47   -9.908936846936e-03
    48   -1.276343088464e-03
Sym=X
Ene= 0.577509
Spin=Alpha
Occup=0
     1    2.472308893548e-01
     2    4.057636822605e-02
     3   -1.844214561399e-02
     4    2.571662514215e-02
     5    6.845717376694e-04
     6   -4.449780043207e-03
     7   -1.571608818458e-01
     8   -4.660849316159e-01
     9    2.989052696989e-01
    10   -2.877860947141e-01
    11   -4.146993581661e-03
    12   -7.199920678170e-01
    13    6.961339623241e-01
    14    7.404285430176e-03
    15   -5.884746894631e-03
    16    3.899659615815e-03
    17    3.717556755310e-03
    18   -4.233537968016e-03
    19    6.025017703881e-02
    20    2.551663986920e-01
    21    2.963458890099e-02
    22   -2.641884205242e-02
    23    1.648037133023e-02
    24   -2.396407807624e-04
    25   -5.630929466249e-03
    26   -1.578484392475e-01
    27   -4.097533888845e-01
    28   -2.975202168491e-01
    29    2.850408275210e-01
    30    4.274606831962e-03
    31    7.624267975918e-01
    32   -7.331403190402e-01
    33   -6.637100578556e-03
    34   -5.866328090206e-03
    35    3.948080250825e-03
    36    3.662441062825e-03
    37   -3.655772312828e-03
    38    6.020668873913e-02
    39    2.506032362176e-01
    40    5.077030523726e-02
    41    2.718270287717e-02
    42   -1.700492778991e-02
    43    3.517151950145e-04
    44    2.492795159049e-01
    45    5.523500027015e-02
    46    1.842582656394e-02
    47   -2.591044336781e-02
    48   -5.910012521105e-04
Sym=X
Ene= 0.615152
Spin=Alpha
Occup=0
     1   -5.218162591265e-01
     2    2.003853968528e-01
     3   -6.131425718691e-02
     4    3.765542908589e-02
     5   -5.488760033001e-04
     6   -5.588698237827e-04
     7    7.516101272183e-05
     8   -1.451039775927e-02
     9   -4.031444572818e-02
    10   -3.862298233411e-02
    11   -4.204030552667e-03
    12    3.033104704429e-01
    13    2.807240373157e-01
    14    3.069908731897e-02
    15    1.793660202457e-03
    16   -7.355975494417e-03
    17    8.493553385310e-03
    18   -1.479778391311e-01
    19   -6.470726591919e-03
    20    5.085888251920e-01
    21   -2.046184854050e-01
    22    4.175364394754e-02
    23   -5.849633674899e-02
    24   -1.632232847309e-03
    25    3.822162305587e-04
    26   -1.185858776559e-03
    27    2.353884700762e-02
    28   -3.985735404364e-02
    29   -4.044894500756e-02
    30   -4.219170402752e-03
    31    3.018013426232e-01
    32    2.917657058884e-01
    33    3.182769398545e-02
    34   -1.279327778002e-03
    35    8.226193489820e-03
    36   -7.736756186022e-03
    37    1.491356482944e-01
    38    6.323936878227e-03
    39   -5.149656517532e-01
    40    2.061379701078e-01
    41    4.087856110249e-02
    42   -5.861401258766e-02
    43   -1.374003780408e-03
    44    5.217816267203e-01
    45   -2.051019144549e-01
    46   -6.144771317173e-02
    47    3.765426316574e-02
    48   -8.284981664615e-04
Sym=X
Ene= 0.689162
Spin=Alpha
Occup=0
     1   -3.269433644935e-03
     2   -2.060566315524e-03
     3    7.263477690566e-04
     4    8.715340241577e-04
     5   -2.104722816785e-02
     6   -2.107813384385e-04
     7   -8.566936067486e-04
     8   -2.117079110866e-03
     9    3.164984218480e-02
    10    3.972833717382e-02
    11   -6.703713492610e-01
    12   -2.260625313093e-02
    13   -4.232514873388e-02
    14    6.135157444913e-01
    15   -1.323422936176e-03
    16    8.257437589253e-02
    17   -7.840990441370e-02
    18   -8.565623598781e-03
    19   -2.276718930974e-03
    20   -3.201519797741e-03
    21   -2.268164128744e-03
    22    1.323501580486e-03
    23    1.504713958836e-03
    24   -2.089780011995e-02
    25    9.892562760104e-06
    26   -3.012966294456e-03
    27    4.499820895482e-03
    28    3.100718126550e-02
    29    4.073783899937e-02
    30   -6.701006240424e-01
    31   -2.206136787445e-02
    32   -4.333867458508e-02
    33    6.131515998481e-01
    34    2.620584427667e-03
    35   -8.280481214875e-02
    36    7.836659185534e-02
    37    8.517035613593e-03
    38    1.799956655421e-03
    39    4.741529664530e-04
    40    4.312450401161e-03
    41    1.143358317011e-03
    42    5.515061004714e-04
    43   -2.116872591217e-02
    44    4.515318298197e-04
    45    4.553384897354e-03
    46    1.727741272032e-03
    47    1.177469217303e-03
    48   -2.095794129729e-02
Sym=X
Ene= 0.708917
Spin=Alpha
Occup=0
     1   -4.759454549186e-01
     2    1.581402112564e-01
     3   -8.074648297443e-02
     4   -4.427285976256e-02
     5   -6.057886690111e-03
     6   -4.782913030908e-02
     7   -3.199298085644e-01
     8    5.094623427728e-01
     9    2.034218901424e-01
    10   -1.925727572922e-01
    11    5.343355623960e-06
    12   -9.752818252463e-02
    13    8.171366551205e-02
    14    2.417360424693e-03
    15    1.940955239852e-01
    16   -2.005567802976e-02
    17   -2.431103218134e-02
    18    3.081887975927e-03
    19   -7.744205794771e-02
    20   -4.782160201914e-01
    21    1.505344174059e-01
    22    4.096502582423e-02
    23    8.171969427466e-02
    24    7.157774489635e-03
    25   -4.670221435628e-02
    26   -3.211083865014e-01
    27    4.629233526495e-01
    28   -2.045898058277e-01
    29    1.915270148666e-01
    30    4.525935817421e-03
    31    6.585984708016e-02
    32   -5.067663958138e-02
    33   -7.404620890170e-03
    34    1.935836825684e-01
    35   -2.006042692627e-02
    36   -2.418198930861e-02
    37    2.411602765015e-03
    38   -7.558074619513e-02
    39   -4.721268371914e-01
    40    1.343977633876e-01
    41   -4.062072066811e-02
    42   -8.100292103783e-02
    43   -6.939295496287e-03
    44   -4.743707750972e-01
    45    1.468848722303e-01
    46    8.047481913493e-02
    47    4.404626947687e-02
    48    6.260422117759e-03
Sym=X
Ene= 0.784538
Spin=Alpha
Occup=0
     1    5.265887163306e-01
     2   -4.690960738513e-01
     3    1.103366717374e-01
     4    2.601051290394e-02
     5    6.539150036917e-03
     6    9.095246583909e-02
     7   -2.158784220282e-01
     8   -6.416488164146e-01
     9    1.107753260884e-01
    10   -1.058957117618e-01
    11   -6.164383277679e-03
    12    3.167624122404e-01
    13   -2.933537128663e-01
    14    3.972588778650e-03
    15   -2.062539397241e-01
    16    1.701646738180e-02
    17    2.219744135288e-02
    18   -8.758635122813e-04
    19    9.208659495524e-03
    20    5.358588497848e-01
    21   -4.680118255042e-01
    22   -2.024389132111e-02
    23   -1.121861150383e-01
    24   -7.822693670553e-03
    25   -9.139246109031e-02
    26    2.128658111635e-01
    27    6.562970167552e-01
    28    1.109270013183e-01
    29   -1.063780825230e-01
    30    1.309514945686e-03
    31    3.111463422300e-01
    32   -2.860288877924e-01
    33   -1.066199554779e-02
    34    2.077404109585e-01
    35   -1.830363114524e-02
    36   -2.148369888788e-02
    37    1.688771660130e-03
    38   -8.859826446745e-03
    39   -5.413035995190e-01
    40    4.649080408435e-01
    41   -2.047702429591e-02
    42   -1.127556500401e-01
    43   -7.702723537129e-03
    44   -5.321057349525e-01
    45    4.664001495266e-01
    46    1.101809979688e-01
    47    2.681609689669e-02
    48    6.815998989163e-03
Sym=X
Ene= 0.807963
Spin=Alpha
Occup=0
     1   -2.336351992598e-03
     2    2.118590699343e-03
     3    1.190620887934e-03
     4    2.051717491521e-03
     5   -3.384614906220e-02
     6   -5.322857405807e-04
     7    2.776335852386e-03
     8   -1.844553247294e-04
     9    3.337786853175e-02
    10    4.766911578835e-02
    11   -7.629652065157e-01
    12   -5.178422263936e-02
    13   -6.811497467004e-02
    14    1.126908448342e+00
    15    2.782440774799e-03
    16   -6.530752534223e-02
    17    6.170635700491e-02
    18    6.807376938304e-03
    19    1.703247571707e-03
    20   -2.428443765154e-03
    21    2.585184958588e-03
    22    1.604678645932e-03
    23    2.507820108772e-03
    24   -3.443441940317e-02
    25    3.677435922442e-04
    26    9.038876535529e-04
    27   -1.835803795975e-03
    28   -3.669295263864e-02
    29   -4.525463507761e-02
    30    7.632266928373e-01
    31    5.105855407088e-02
    32    6.992392807857e-02
    33   -1.126952195223e+00
    34    6.552665622660e-05
    35   -6.509417177836e-02
    36    6.195569268787e-02
    37    6.676210402746e-03
    38    1.100574642926e-03
    39    2.377488704793e-03
    40   -3.657040568952e-03
    41   -1.877055845037e-03
    42   -7.524150484372e-04
    43    3.435820415315e-02
    44    2.339220666158e-03
    45   -3.039269269299e-03
    46   -2.821152304411e-03
    47   -1.781636584730e-03
    48    3.367235941902e-02
Sym=X
Ene= 0.862265
Spin=Alpha
Occup=0
     1    1.336865358567e-02
     2   -1.096003117905e+00
     3    1.483582508275e-01
     4    5.642223193883e-02
     5    1.057545949792e-02
     6    1.270297401382e-04
     7    3.590194115660e-04
     8    8.823594880931e-04
     9   -4.072525899816e-01
    10   -4.286358803849e-01
    11   -4.446527089240e-02
    12    9.483234019010e-01
    13    9.981411796768e-01
    14    1.035726788964e-01
    15   -5.584356304980e-04
    16    1.190986207949e-02
    17   -1.330753641439e-02
    18    2.353381151052e-01
    19    9.593519115366e-03
    20   -1.392482205795e-02
    21    1.103276324108e+00
    22    5.034961715378e-02
    23    1.514496597936e-01
    24    1.114520714141e-02
    25    2.270284902657e-05
    26    2.247495130579e-03
    27   -2.425336065531e-03
    28   -4.070127263910e-01
    29   -4.291622642419e-01
    30   -4.509679921022e-02
    31    9.474089437157e-01
    32    1.001888352895e+00
    33    1.051255918677e-01
    34   -1.036061174748e-04
    35   -1.211704453894e-02
    36    1.324614217224e-02
    37   -2.364087137338e-01
    38   -1.033996012973e-02
    39    1.227196736790e-02
    40   -1.102277328730e+00
    41    4.891346083971e-02
    42    1.517046717823e-01
    43    1.082671820054e-02
    44   -1.108293781330e-02
    45    1.095063743513e+00
    46    1.486302930875e-01
    47    5.569178844001e-02
    48    1.090927751637e-02
Sym=X
Ene= 0.935924
Spin=Alpha
Occup=0
     1   -1.134599194613e-01
     2    1.278089759233e+00
     3   -1.812420527624e-01
     4    5.493031981645e-03
     5   -7.478454559194e-03
     6   -1.049576464967e-04
     7   -1.987284705478e-03
     8   -3.628336652357e-03
     9    4.718342439440e-01
    10    5.003775716046e-01
    11    5.203217925535e-02
    12   -1.462744871110e+00
    13   -1.543436352101e+00
    14   -1.608403112966e-01
    15   -4.663856946944e-04
    16   -4.824876067836e-03
    17    8.004981582357e-03
    18   -1.202988340986e-01
    19   -1.862773118811e-03
    20    1.170290003442e-01
    21   -1.288078245330e+00
    22    1.146325540471e-02
    23   -1.828710482997e-01
    24   -1.104652945780e-02
    25    1.915880971199e-04
    26    7.093449434149e-04
    27    1.226885333791e-03
    28   -4.762021654713e-01
    29   -4.959106430770e-01
    30   -5.218734987893e-02
    31    1.473951755058e+00
    32    1.528399644432e+00
    33    1.610532761374e-01
    34   -1.019521033258e-03
    35   -6.156598620197e-03
    36    6.923064303715e-03
    37   -1.206600869279e-01
    38   -5.736059615042e-03
    39    1.167112981542e-01
    40   -1.279132375719e+00
    41   -1.374882621163e-02
    42    1.817344958152e-01
    43    1.041666506368e-02
    44   -1.152407452289e-01
    45    1.288839034485e+00
    46    1.822095481967e-01
    47   -5.111731543416e-03
    48    8.126475053429e-03
Sym=X
Ene= 0.972434
Spin=Alpha
Occup=0
     1   -6.442350325695e-02
     2    9.303771586110e-01
     3   -9.148384806723e-02
     4   -9.852285693947e-02
     5   -1.047276146653e-02
     6    2.532012381046e-02
     7    2.537098477997e-01
     8    5.175557472068e-01
     9    4.826384358058e-01
    10   -4.530745949889e-01
    11   -6.037316528777e-03
    12   -1.500635843982e+00
    13    1.402145396787e+00
    14    1.891078004533e-02
    15   -5.378613237845e-02
    16   -1.429470336064e-02
    17   -8.294972733759e-03
    18    1.333201313450e-02
    19   -3.016252211521e-01
    20   -6.279837811503e-02
    21    9.061288105303e-01
    22    9.533784435196e-02
    23    9.260209510760e-02
    24    9.696356638974e-03
    25   -2.513504128806e-02
    26   -2.370047989162e-01
    27   -5.453187676346e-01
    28    4.761091160547e-01
    29   -4.568622117719e-01
    30   -3.754167024662e-03
    31   -1.477398943301e+00
    32    1.422984914972e+00
    33    1.351258400986e-02
    34    5.272929147041e-02
    35    1.434258177218e-02
    36    8.243131497272e-03
    37   -1.488346488866e-02
    38    2.989170716713e-01
    39    6.236286492365e-02
    40   -9.146570960923e-01
    41    9.418714173813e-02
    42    9.359648753381e-02
    43    9.196205297720e-03
    44    6.582204642693e-02
    45   -9.046789180665e-01
    46   -8.806870783820e-02
    47   -9.777918477933e-02
    48   -1.085497936948e-02
[5D]

======= END OF MOLDEN-FORMATTED INPUT FILE =======


        *************************************************************
        *                                                           *
        *  Thank you very much for using Q-Chem.  Have a nice day.  *
        *                                                           *
        *************************************************************


