                  Welcome to Q-Chem
     A Quantum Leap Into The Future Of Chemistry


 Q-Chem 5.4 (devel), Q-Chem, Inc., Pleasanton, CA (2021)

 E. Epifanovsky,  A. T. B. Gilbert,  Xintian Feng,  Joonho Lee,  Yuezhi Mao,  
 N. Mardirossian,  P. Pokhilko,  A. White,  M. Wormit,  M. P. Coons,  
 A. L. Dempwolff,  Zhengting Gan,  D. Hait,  P. R. Horn,  L. D. Jacobson,  
 I. Kaliman,  J. Kussmann,  A. W. Lange,  Ka Un Lao,  D. S. Levine,  Jie Liu,  
 S. C. McKenzie,  A. F. Morrison,  K. Nanda,  F. Plasser,  D. R. Rehn,  
 M. L. Vidal,  Zhi-Qiang You,  Ying Zhu,  B. Alam,  B. Albrecht,  
 A. Aldossary,  E. Alguire,  J. H. Andersen,  D. Barton,  K. Begam,  A. Behn,  
 Y. A. Bernard,  E. J. Berquist,  H. Burton,  A. Carreras,  K. Carter-Fenk,  
 R. Chakraborty,  A. D. Chien,  K. D. Closser,  V. Cofer-Shabica,  
 S. Dasgupta,  Jia Deng,  M. de Wergifosse,  M. Diedenhofen,  Hainam Do,  
 S. Ehlert,  Po-Tung Fang,  S. Fatehi,  Qingguo Feng,  T. Friedhoff,  
 J. Gayvert,  Qinghui Ge,  G. Gidofalvi,  M. Goldey,  J. Gomes,  
 C. Gonzalez-Espinoza,  S. Gulania,  A. Gunina,  M. W. D. Hanson-Heine,  
 P. H. P. Harbach,  A. W. Hauser,  M. F. Herbst,  M. Hernandez Vera,  
 M. Hodecker,  Z. C. Holden,  S. Houck,  Xunkun Huang,  Kerwin Hui,  
 B. C. Huynh,  M. Ivanov,  Hyunjun Ji,  Hanjie Jiang,  B. Kaduk,  S. Kaehler,  
 K. Khistyaev,  Jaehoon Kim,  P. Klunzinger,  Z. Koczor-Benda,  
 Joong Hoon Koh,  D. Kosenkov,  L. Koulias,  T. Kowalczyk,  C. M. Krauter,  
 K. Kue,  A. Kunitsa,  T. Kus,  A. Landau,  K. V. Lawler,  D. Lefrancois,  
 S. Lehtola,  Rain Li,  Yi-Pei Li,  Jiashu Liang,  M. Liebenthal,  
 Hung-Hsuan Lin,  You-Sheng Lin,  Fenglai Liu,  Kuan-Yu Liu,  
 M. Loipersberger,  A. Luenser,  A. Manjanath,  P. Manohar,  E. Mansoor,  
 S. F. Manzer,  Shan-Ping Mao,  A. V. Marenich,  T. Markovich,  S. Mason,  
 S. A. Maurer,  P. F. McLaughlin,  M. F. S. J. Menger,  J.-M. Mewes,  
 S. A. Mewes,  P. Morgante,  J. W. Mullinax,  K. J. Oosterbaan,  G. Paran,  
 Alexander C. Paul,  Suranjan K. Paul,  F. Pavosevic,  Zheng Pei,  S. Prager,  
 E. I. Proynov,  E. Ramos,  B. Rana,  A. E. Rask,  A. Rettig,  R. M. Richard,  
 F. Rob,  E. Rossomme,  T. Scheele,  M. Scheurer,  M. Schneider,  
 N. Sergueev,  S. M. Sharada,  W. Skomorowski,  D. W. Small,  C. J. Stein,  
 Yu-Chuan Su,  E. J. Sundstrom,  Zhen Tao,  J. Thirman,  T. Tsuchimochi,  
 N. M. Tubman,  S. P. Veccham,  O. Vydrov,  J. Wenzel,  J. Witte,  A. Yamada,  
 Kun Yao,  S. Yeganeh,  S. R. Yost,  A. Zech,  Igor Ying Zhang,  Xing Zhang,  
 Yu Zhang,  D. Zuev,  A. Aspuru-Guzik,  A. T. Bell,  N. A. Besley,  
 K. B. Bravaya,  B. R. Brooks,  D. Casanova,  Jeng-Da Chai,  S. Coriani,  
 C. J. Cramer,  A. E. DePrince, III,  R. A. DiStasio Jr.,  A. Dreuw,  
 B. D. Dunietz,  T. R. Furlani,  W. A. Goddard III,  S. Grimme,  
 S. Hammes-Schiffer,  T. Head-Gordon,  W. J. Hehre,  Chao-Ping Hsu,  
 T.-C. Jagau,  Yousung Jung,  A. Klamt,  Jing Kong,  D. S. Lambrecht,  
 WanZhen Liang,  N. J. Mayhall,  C. W. McCurdy,  J. B. Neaton,  
 C. Ochsenfeld,  J. A. Parkhill,  R. Peverati,  V. A. Rassolov,  Yihan Shao,  
 L. V. Slipchenko,  T. Stauch,  R. P. Steele,  J. E. Subotnik,  
 A. J. W. Thom,  A. Tkatchenko,  D. G. Truhlar,  T. Van Voorhis,  
 T. A. Wesolowski,  K. B. Whaley,  H. L. Woodcock III,  P. M. Zimmerman,  
 S. Faraji,  P. M. W. Gill,  M. Head-Gordon,  J. M. Herbert,  A. I. Krylov

 Additional authors for Version 5.4.1: 
 S. Kotaru,  Shaozhi Li,  Xiangyuan Li,  F. Matz,  A. Molle,  Haisheng Ren,  
 Yingli Su,  Hung-Yi Tsai,  C. Utku,  Fang Wang

 Contributors to earlier versions of Q-Chem not listed above: 
 R. D. Adamson,  B. Austin,  R. Baer,  J. Baker,  G. J. O. Beran,  
 K. Brandhorst,  S. T. Brown,  E. F. C. Byrd,  A. K. Chakraborty,  
 G. K. L. Chan,  Chun-Min Chang,  Yunqing Chen,  C.-L. Cheng,  
 Siu Hung Chien,  D. M. Chipman,  D. L. Crittenden,  H. Dachsel,  
 R. J. Doerksen,  A. D. Dutoi,  R. G. Edgar,  J. Fosso-Tande,  
 L. Fusti-Molnar,  D. Ghosh,  A. Ghysels,  A. Golubeva-Zadorozhnaya,  
 J. Gonthier,  M. S. Gordon,  S. R. Gwaltney,  G. Hawkins,  J. E. Herr,  
 A. Heyden,  S. Hirata,  E. G. Hohenstein,  G. Kedziora,  F. J. Keil,  
 C. Kelley,  Jihan Kim,  R. A. King,  R. Z. Khaliullin,  P. P. Korambath,  
 W. Kurlancheek,  A. Laurent,  A. M. Lee,  M. S. Lee,  S. V. Levchenko,  
 Ching Yeh Lin,  D. Liotard,  E. Livshits,  R. C. Lochan,  I. Lotan,  
 L. A. Martinez-Martinez,  P. E. Maslen,  N. Nair,  D. P. O'Neill,  
 D. Neuhauser,  E. Neuscamman,  C. M. Oana,  R. Olivares-Amaya,  R. Olson,  
 T. M. Perrine,  B. Peters,  P. A. Pieniazek,  A. Prociuk,  Y. M. Rhee,  
 J. Ritchie,  M. A. Rohrdanz,  E. Rosta,  N. J. Russ,  H. F. Schaefer III,  
 M. W. Schmidt,  N. E. Schultz,  S. Sharma,  N. Shenvi,  C. D. Sherrill,  
 A. C. Simmonett,  A. Sodt,  T. Stein,  D. Stuck,  K. S. Thanthiriwatte,  
 V. Vanovschi,  L. Vogt,  Tao Wang,  A. Warshel,  M. A. Watson,  
 C. F. Williams,  Q. Wu,  X. Xu,  Jun Yang,  W. Zhang,  Yan Zhao

 Please cite Q-Chem as follows:
 Y. Shao et al., Mol. Phys. 113, 184-215 (2015)
 DOI: 10.1080/00268976.2014.952696

 Q-Chem 5.4.1 for Intel X86 EM64T Linux

 Parts of Q-Chem use Armadillo 9.800.1 (Horizon Scraper).
 http://arma.sourceforge.net/

 Q-Chem begins on Thu Nov 17 00:23:29 2022  

 Host: cpu285.baobab
0

     Scratch files written to /scratch/fum/qchem75997//
 Processing $rem in /home/share/wesolowski/qc5.aug2021.FDE/config/preferences:
 Processing $rem in /home/fum/.qchemrc:

 Checking the input file for inconsistencies... 	...done.

--------------------------------------------------------------
User input:
--------------------------------------------------------------
$comment
generated from CCJob.Templates
$end

$rem
sym_ignore = true
method = adc(2)
ee_states = 10
basis = cc-pVDZ
mem_static = 1024
mem_total = 30000
adc_davidson_maxiter = 900
adc_davidson_conv = 6
adc_print = 3
adc_prop_es = true
adc_prop_es2es = true
adc_prop_tpa = true
molden_format = True
state_analysis = true
print_orbitals = 15
gen_scfman = false
fde_export_density = true
fde_details = 3
$end

$molecule
0 1
H -0.0348278765 -0.2442097827 0.0636489606
C -1.0765972949 -0.5242748755 -0.0023551776
H -1.313264467 -1.5767591607 -0.0757276926
C -2.043634118 0.3926884087 0.0061254933
H -1.8137616575 1.4409188338 0.0804456828
H -3.085977293 0.114931858 -0.0593381042                     
$end
--------------------------------------------------------------
 ----------------------------------------------------------------
             Standard Nuclear Orientation (Angstroms)
    I     Atom           X                Y                Z
 ----------------------------------------------------------------
    1      H      -0.0348278765    -0.2442097827     0.0636489606
    2      C      -1.0765972949    -0.5242748755    -0.0023551776
    3      H      -1.3132644670    -1.5767591607    -0.0757276926
    4      C      -2.0436341180     0.3926884087     0.0061254933
    5      H      -1.8137616575     1.4409188338     0.0804456828
    6      H      -3.0859772930     0.1149318580    -0.0593381042
 ----------------------------------------------------------------
 Nuclear Repulsion Energy =          33.44146071 hartrees
 There are        8 alpha and        8 beta electrons
 Requested basis set is cc-pVDZ
 There are 24 shells and 48 basis functions
 Total memory of 30000 MB is distributed as follows: 
   MEM_STATIC is set to 1024 MB
   QALLOC/CCMAN JOB total memory use is  28976 MB
 Warning: actual memory use might exceed 30000 MB

 Total QAlloc Memory Limit  30000 MB
 Mega-Array Size      1001 MB
 MEM_STATIC part      1024 MB

                       Distance Matrix (Angstroms)
             H (  1)   C (  2)   H (  3)   C (  4)   H (  5)
   C (  2)  1.080776
   H (  3)  1.851895  1.081258
   C (  4)  2.108139  1.332687  2.102109
   H (  5)  2.450418  2.100537  3.062886  1.075710
   H (  6)  3.074674  2.109370  2.450428  1.080700  1.842909

 A cutoff of  1.0D-11 yielded    300 shell pairs
 There are      1220 function pairs (      1329 Cartesian)
 Smallest overlap matrix eigenvalue = 4.80E-03

 Scale SEOQF with 1.000000e-01/1.000000e-01/1.000000e+00

 Standard Electronic Orientation quadrupole field applied
 Nucleus-field energy     =     0.0000000022 hartrees
 Guess from superposition of atomic densities
 Warning:  Energy on first SCF cycle will be non-variational
 SAD guess density has 16.000000 electrons
 A restricted Hartree-Fock SCF calculation will be
 performed using Pulay DIIS extrapolation
 SCF converges when DIIS error is below 1.0E-08
 using 8 threads for integral computing
 -------------------------------------------------------
 OpenMP Integral computing Module                
 Release: version 1.0, May 2013, Q-Chem Inc. Pittsburgh 
 -------------------------------------------------------
 ---------------------------------------
  Cycle       Energy         DIIS Error
 ---------------------------------------
    1     -78.4423457565      1.01E-01
    2     -78.0176302226      7.22E-03
    3     -78.0382778039      1.85E-03
    4     -78.0397615032      5.74E-04
    5     -78.0398835077      5.83E-05
    6     -78.0398853914      1.02E-05
    7     -78.0398854555      3.59E-06
    8     -78.0398854605      1.09E-06
    9     -78.0398854611      1.18E-07
   10     -78.0398854611      3.27E-08
   11     -78.0398854611      7.84E-09 Convergence criterion met
 ---------------------------------------
 SCF time:  CPU 3.16 s  wall 2.23 s
 SCF   energy in the final basis set = -78.03988546
 Total energy in the final basis set = -78.03988546
Exporting Density Matrix to file 'Densmat_SCF.txt'.
Export successful
================================================================================
|                                                                              |
|                                 A D C  M A N                                 |
|                                                                              |
 ------------------------------------------------------------------------------ 
|                                                                              |
| Components:                                                                  |
|                                                                              |
| - libvmm - 1.3-trunk                                                         |
|   Authors:                                                                   |
|   Evgeny Epifanovsky, Ilya Kaliman                                           |
|                                                                              |
| - libtensor - 2.5-trunk                                                      |
|   Authors:                                                                   |
|   Evgeny Epifanovsky, Michael Wormit, Dmitry Zuev, Sam Manzer,               |
|   Ilya Kaliman                                                               |
|                                                                              |
| - libwfa - 1.1-trunk                                                         |
|   Authors:                                                                   |
|   Felix Plasser, Stefanie Mewes (Baeppler), Benjamin Thomitzni,              |
|   Michael Wormit, Feng Chen, Anna I. Krylov, Pavel Pokhilko                  |
|                                                                              |
| - libadc - 1.1-trunk                                                         |
|   Authors:                                                                   |
|   Michael Wormit, Adrian L. Dempwolff, Philipp H. P. Harbach,                |
|   Caroline Krauter, Dirk Rehn, Matthias Schneider, Jan Wenzel                |
|                                                                              |
| - adcman - 2.6-trunk                                                         |
|   Authors:                                                                   |
|   Michael Wormit, Adrian L. Dempwolff, Philipp H. P. Harbach,                |
|   Caroline Krauter, Daniel Lefrancois, Jan-Michael Mewes, Dirk Rehn,         |
|   Matthias Schneider, Jan Wenzel, Andreas Dreuw                              |
|                                                                              |
| Authors of earlier versions of ADCMAN:                                       |
| Andreas Dreuw, Jan Hendrik Starcke, Dirk Rehn, Michael Wormit                |
|                                                                              |
================================================================================

 Created directory /scratch/fum/qchem75997/plots
  Import QC data ...  CPU 0.00 s  wall 0.00 s

 Alpha MOs, Restricted
 -- Occupied --                  
-11.235 -11.233  -1.032  -0.790  -0.642  -0.582  -0.505  -0.374
  1 A     2 A     3 A     4 A     5 A     6 A     7 A     8 A                  
 -- Virtual --                   
  0.168   0.204   0.233   0.240   0.303   0.462   0.577   0.615
  9 A    10 A    11 A    12 A    13 A    14 A    15 A    16 A                  
  0.689   0.709   0.785   0.808   0.863   0.937   0.973   1.010
 17 A    18 A    19 A    20 A    21 A    22 A    23 A    24 A                  
  1.130   1.235   1.255   1.266   1.294   1.602   1.727   1.751
 25 A    26 A    27 A    28 A    29 A    30 A    31 A    32 A                  
  1.820   1.860   1.868   1.923   1.977   1.980   2.222   2.258
 33 A    34 A    35 A    36 A    37 A    38 A    39 A    40 A                  
  2.377   2.456   2.508   2.635   2.725   2.825   3.143   3.402
 41 A    42 A    43 A    44 A    45 A    46 A    47 A    48 A                  

 Beta MOs, Restricted
 -- Occupied --                  
-11.235 -11.233  -1.032  -0.790  -0.642  -0.582  -0.505  -0.374
  1 A     2 A     3 A     4 A     5 A     6 A     7 A     8 A                  
 -- Virtual --                   
  0.168   0.204   0.233   0.240   0.303   0.462   0.577   0.615
  9 A    10 A    11 A    12 A    13 A    14 A    15 A    16 A                  
  0.689   0.709   0.785   0.808   0.863   0.937   0.973   1.010
 17 A    18 A    19 A    20 A    21 A    22 A    23 A    24 A                  
  1.130   1.235   1.255   1.266   1.294   1.602   1.727   1.751
 25 A    26 A    27 A    28 A    29 A    30 A    31 A    32 A                  
  1.820   1.860   1.868   1.923   1.977   1.980   2.222   2.258
 33 A    34 A    35 A    36 A    37 A    38 A    39 A    40 A                  
  2.377   2.456   2.508   2.635   2.725   2.825   3.143   3.402
 41 A    42 A    43 A    44 A    45 A    46 A    47 A    48 A                  
  Import AO data ...  CPU 0.00 s  wall 0.00 s
  Using point group: C1
  Irreducible representations in point group: A
  Molecular orbitals: 
  Occupied MOs:
  Block   0:   1 (  A) A   2 (  A) A   3 (  A) A   4 (  A) A   5 (  A) A
                  -11.23      -11.23      -1.032     -0.7902     -0.6416
               6 (  A) A   7 (  A) A   8 (  A) A
                  -0.582      -0.505      -0.374
  Block   1:   1 (  A) B   2 (  A) B   3 (  A) B   4 (  A) B   5 (  A) B
                  -11.23      -11.23      -1.032     -0.7902     -0.6416
               6 (  A) B   7 (  A) B   8 (  A) B
                  -0.582      -0.505      -0.374
  Virtual MOs:
  Block   0:   9 (  A) A  10 (  A) A  11 (  A) A  12 (  A) A  13 (  A) A
                  0.1684      0.2038      0.2331      0.2396      0.3033
              14 (  A) A  15 (  A) A  16 (  A) A  17 (  A) A  18 (  A) A
                  0.4621      0.5774      0.6155      0.6892      0.7094
              19 (  A) A  20 (  A) A  21 (  A) A  22 (  A) A
                  0.7853       0.808      0.8626      0.9366
  Block   1:  23 (  A) A  24 (  A) A  25 (  A) A  26 (  A) A  27 (  A) A
                  0.9727        1.01        1.13       1.235       1.255
              28 (  A) A  29 (  A) A  30 (  A) A  31 (  A) A  32 (  A) A
                   1.266       1.294       1.602       1.727       1.751
              33 (  A) A  34 (  A) A  35 (  A) A  36 (  A) A
                    1.82        1.86       1.868       1.923
  Block   2:  37 (  A) A  38 (  A) A  39 (  A) A  40 (  A) A  41 (  A) A
                   1.977        1.98       2.222       2.258       2.377
              42 (  A) A  43 (  A) A  44 (  A) A  45 (  A) A  46 (  A) A
                   2.456       2.508       2.635       2.725       2.825
              47 (  A) A  48 (  A) A
                   3.143       3.402
  Block   3:   9 (  A) B  10 (  A) B  11 (  A) B  12 (  A) B  13 (  A) B
                  0.1684      0.2038      0.2331      0.2396      0.3033
              14 (  A) B  15 (  A) B  16 (  A) B  17 (  A) B  18 (  A) B
                  0.4621      0.5774      0.6155      0.6892      0.7094
              19 (  A) B  20 (  A) B  21 (  A) B  22 (  A) B
                  0.7853       0.808      0.8626      0.9366
  Block   4:  23 (  A) B  24 (  A) B  25 (  A) B  26 (  A) B  27 (  A) B
                  0.9727        1.01        1.13       1.235       1.255
              28 (  A) B  29 (  A) B  30 (  A) B  31 (  A) B  32 (  A) B
                   1.266       1.294       1.602       1.727       1.751
              33 (  A) B  34 (  A) B  35 (  A) B  36 (  A) B
                    1.82        1.86       1.868       1.923
  Block   5:  37 (  A) B  38 (  A) B  39 (  A) B  40 (  A) B  41 (  A) B
                   1.977        1.98       2.222       2.258       2.377
              42 (  A) B  43 (  A) B  44 (  A) B  45 (  A) B  46 (  A) B
                   2.456       2.508       2.635       2.725       2.825
              47 (  A) B  48 (  A) B
                   3.143       3.402
  Import MO data ...  CPU 0.04 s  wall 0.02 s
  Import HF data ...  CPU 1.29 s  wall 0.36 s
  Import 2e integrals ...  CPU 3.69 s  wall 0.55 s

--------------------------------------------------------------------------------
                                   HF Summary                                   
--------------------------------------------------------------------------------
  Energy:                                                  -78.0398854611 a.u.
  Dip. moment [a.u.]:                  [  -0.000599,    0.001557,    0.000602]
  Total dipole [Debye]:                                               0.004507
  <r^2> [a.u.]:                        [ 175.318769,   34.867054,   11.621392]
  Total <r^2> [a.u.]:                                               221.807215
--------------------------------------------------------------------------------
  HF properties ...  CPU 0.09 s  wall 0.03 s
  MP(1) calculation ...  CPU 0.00 s  wall 0.00 s
  N^6 prerequesite intermediates ...  CPU 0.34 s  wall 0.07 s
  Difference density matrix of state mp2_gs printed to ASCII file 'State_mp2_gs_Difference.txt'
Exporting MP density matrix to file 'Densmat_MP.txt'.
Export successful
  Total density matrix of state mp2_gs printed to ASCII file 'State_mp2_gs_Total.txt'
Exporting MP density matrix to file 'Densmat_MP.txt'.
Export successful

--------------------------------------------------------------------------------
                                 MP(2) Summary                                  
--------------------------------------------------------------------------------
  MP energy contribution:                                   -0.2796363137 a.u.
  Total energy:                                            -78.3195217748 a.u.
  Dip. moment [a.u.]:                  [  -0.000649,    0.001371,    0.000581]
  Total dipole [Debye]:                                               0.004128
  <r^2> [a.u.]:                        [ 175.365292,   34.908354,   11.453573]
  Total <r^2> [a.u.]:                                               221.727219

  Density matrix analysis:
  ------------------------
  NOs
    Occupation of frontier NOs:
       0.0453   1.9383
    Number of electrons: 16.000000
    Number of unpaired electrons: n_u =  0.40310, n_u,nl =  0.04502
    NO participation ratio (PR_NO): 13.853298
  
  
  Mulliken Population Analysis
  Atom      Charge (e)              h+              e-           Del q
  --------------------------------------------------------------------
   1 H        0.050878        0.014029       -0.011199        0.002830
   2 C       -0.101517        0.093272       -0.098854       -0.005582
   3 H        0.050453        0.014072       -0.011190        0.002883
   4 C       -0.099043        0.092671       -0.098748       -0.006077
   5 H        0.048820        0.014194       -0.011161        0.003033
   6 H        0.050409        0.014091       -0.011177        0.002913
  --------------------------------------------------------------------
  Sum:       -0.000000        0.242328       -0.242328        0.000000
  
  Multipole moment analysis of the density matrix
    Molecular charge:                      0.000000
    Number of electrons:                   16.000000
      Center of electronic charge [Ang]: [ -1.560555,  -0.065960,   0.001959]
    Total nuclear charge:                  16.000000
      Center of nuclear charge [Ang]:    [ -1.560576,  -0.065915,   0.001978]
    Dipole moment [D]:                     0.004128
      Cartesian components [D]:          [ -0.001649,   0.003484,   0.001478]
    RMS size of the density [Ang]:         1.200390
      Cartesian components [Ang]:        [  0.796162,   0.778850,   0.447721]
  
  Exciton analysis of the difference density matrix
    <r_h> [Ang]:                  [ -1.560182,  -0.066928,   0.001833]
    <r_e> [Ang]:                  [ -1.560073,  -0.066522,   0.001877]
    |<r_e - r_h>| [Ang]:            0.000423
    Hole size [Ang]:                1.393074
      Cartesian components [Ang]: [  0.846677,   0.833129,   0.727797]
    Electron size [Ang]:            1.359634
      Cartesian components [Ang]: [  0.878044,   0.861326,   0.579449]
--------------------------------------------------------------------------------
  MP(2) calculation ...  CPU 1.49 s  wall 0.43 s
  Start ADC(2)-s ...  CPU 0.14 s  wall 0.05 s
  ADC(2) intermediates ...  CPU 0.18 s  wall 0.04 s
  Starting Davidson for singlet states of irrep A ... 
--------------------------------------------------------------------------------
   It NVec Conv  Avg. Norm  Max. Norm  Conv. states           Remark
--------------------------------------------------------------------------------
        10    0  1.330e-01  4.687e-01  0.4120 n n n n n n n n Guess.
    1   20    0  2.303e-02  1.108e-01  0.3262 n n n n n n n n 
    2   30    0  5.821e-03  2.499e-02  0.3215 n n n n n n n n 
    3   40    0  1.912e-03  1.236e-02  0.3211 n n n n n n n n 
    4   50    0  6.111e-04  4.506e-03  0.3211 n n n n n n n n 
    5   20    0  2.812e-04  2.115e-03  0.3211 n n n n n n n n Subspace collapsed.
    6   30    0  1.683e-04  1.479e-03  0.3211 n n n n n n n n 
    7   40    0  9.940e-05  7.897e-04  0.3211 n n n n n n n n 
    8   50    0  9.625e-05  9.053e-04  0.3211 n n n n n n n n 
    9   20    2  5.958e-05  5.588e-04  0.3211 n y n y n n n n Subspace collapsed.
   10   30    4  7.475e-05  7.241e-04  0.3211 n y y y n y n n 
   11   40    5  8.032e-05  7.989e-04  0.3211 n y y y y y n n 
   12   50    6  7.189e-05  7.180e-04  0.3211 y y y y y y n n 
   13   20    6  3.117e-05  3.112e-04  0.3211 y y y y y y n n Subspace collapsed.
   14   30    6  2.068e-05  2.062e-04  0.3211 y y y y y y n n 
   15   40    7  1.026e-05  1.019e-04  0.3211 y y y y y y n y 
   16   50    7  1.359e-05  1.357e-04  0.3211 y y y y y y n y 
   17   20    8  6.828e-06  6.824e-05  0.3211 y y y y y y n y Subspace collapsed.
   18   30    7  1.203e-05  1.203e-04  0.3211 y y y y y y n y 
   19   40    7  1.344e-05  1.344e-04  0.3211 y y y y y y n y 
   20   50    9  1.160e-05  1.160e-04  0.3211 y y y y y y y y 
   21   20    9  4.810e-06  4.810e-05  0.3211 y y y y y y y y Subspace collapsed.
   22   30    9  3.717e-06  3.716e-05  0.3211 y y y y y y y y 
   23   32    9  3.545e-06  3.545e-05  0.3211 y y y y y y y y 
   24   33    9  3.447e-06  3.447e-05  0.3211 y y y y y y y y 
   25   34    9  3.441e-06  3.441e-05  0.3211 y y y y y y y y 
   26   35    9  3.487e-06  3.487e-05  0.3211 y y y y y y y y 
   27   35    9  3.487e-06  3.487e-05  0.3211 y y y y y y y y 
   28   45    9  1.916e-06  1.915e-05  0.3211 y y y y y y y y 
   29   50    9  1.757e-06  1.757e-05  0.3211 y y y y y y y y 
   30   10    9  1.757e-06  1.757e-05  0.3211 y y y y y y y y Subspace collapsed.
   31   10    9  1.757e-06  1.757e-05  0.3211 y y y y y y y y 
   32   10    9  1.757e-06  1.757e-05  0.3211 y y y y y y y y 
   33   20    9  1.343e-06  1.343e-05  0.3211 y y y y y y y y 
   34   26    9  1.885e-06  1.885e-05  0.3211 y y y y y y y y 
   35   31    9  2.041e-06  2.041e-05  0.3211 y y y y y y y y 
   36   36    9  1.848e-06  1.848e-05  0.3211 y y y y y y y y 
   37   40    9  1.024e-06  1.024e-05  0.3211 y y y y y y y y 
   38   44    9  5.790e-07  5.790e-06  0.3211 y y y y y y y y 
   39   48    9  2.700e-07  2.700e-06  0.3211 y y y y y y y y 
   40   50    9  1.409e-07  1.409e-06  0.3211 y y y y y y y y 
   41   14   10  9.141e-08  9.141e-07  0.3211 y y y y y y y y Converged.
--------------------------------------------------------------------------------
  Davidson Summary: 
 ------------------------------------------------------------
  State  0: excitation energy =   0.3211 a.u.   (converged)
  State  1: excitation energy =   0.3330 a.u.   (converged)
  State  2: excitation energy =   0.3372 a.u.   (converged)
  State  3: excitation energy =   0.3617 a.u.   (converged)
  State  4: excitation energy =   0.3754 a.u.   (converged)
  State  5: excitation energy =   0.3873 a.u.   (converged)
  State  6: excitation energy =   0.4251 a.u.   (converged)
  State  7: excitation energy =   0.4473 a.u.   (converged)
  State  8: excitation energy =   0.4565 a.u.   (converged)
  State  9: excitation energy =   0.4652 a.u.   (converged)
 ------------------------------------------------------------

  Singlet states of irrep A ...  CPU 122.84 s  wall 38.55 s
  TDMs ...  CPU 2.95 s  wall 0.86 s
  SDMs ...  CPU 3.13 s  wall 0.98 s
  Starting TPA DIIS iterations ... 
------------------------------------ 
   It     Res. Norm  Remark
------------------------------------
                       Guess.
    1     4.406e+00  
    2     5.842e+00  
    3     1.078e+00  
    4     2.570e-01  
    5     6.585e-02  
    6     2.679e-02  
    7     8.234e-03  
    8     1.443e-03  
    9     5.348e-04  
   10     8.980e-05  
   11     2.823e-05  
   12     4.382e-06  
   13     1.421e-06  
   14     4.455e-07  Converged.
   ... Converged in 14 steps (norm: 4.45485e-07)
------------------------------------
  Starting TPA DIIS iterations ... 
------------------------------------ 
   It     Res. Norm  Remark
------------------------------------
                       Guess.
    1     4.187e+00  
    2     5.544e+00  
    3     1.028e+00  
    4     2.543e-01  
    5     6.526e-02  
    6     2.652e-02  
    7     8.089e-03  
    8     1.435e-03  
    9     5.293e-04  
   10     8.891e-05  
   11     2.789e-05  
   12     4.295e-06  
   13     1.402e-06  
   14     4.326e-07  Converged.
   ... Converged in 14 steps (norm: 4.32597e-07)
------------------------------------
  Starting TPA DIIS iterations ... 
------------------------------------ 
   It     Res. Norm  Remark
------------------------------------
                       Guess.
    1     6.879e-01  
    2     4.833e-01  
    3     1.706e-01  
    4     5.976e-02  
    5     1.830e-02  
    6     6.631e-03  
    7     1.035e-03  
    8     4.453e-04  
    9     1.246e-04  
   10     2.790e-05  
   11     6.078e-06  
   12     1.765e-06  
   13     1.175e-06  
   14     4.704e-07  Converged.
   ... Converged in 14 steps (norm: 4.70353e-07)
------------------------------------
  Starting TPA DIIS iterations ... 
------------------------------------ 
   It     Res. Norm  Remark
------------------------------------
                       Guess.
    1     4.701e+00  
    2     6.372e+00  
    3     1.161e+00  
    4     2.863e-01  
    5     7.440e-02  
    6     3.053e-02  
    7     9.367e-03  
    8     1.638e-03  
    9     6.121e-04  
   10     1.033e-04  
   11     3.283e-05  
   12     5.141e-06  
   13     1.682e-06  
   14     5.296e-07  Converged.
   ... Converged in 14 steps (norm: 5.29561e-07)
------------------------------------
  Starting TPA DIIS iterations ... 
------------------------------------ 
   It     Res. Norm  Remark
------------------------------------
                       Guess.
    1     4.466e+00  
    2     6.046e+00  
    3     1.107e+00  
    4     2.830e-01  
    5     7.375e-02  
    6     3.024e-02  
    7     9.203e-03  
    8     1.630e-03  
    9     6.057e-04  
   10     1.023e-04  
   11     3.242e-05  
   12     5.038e-06  
   13     1.656e-06  
   14     5.146e-07  Converged.
   ... Converged in 14 steps (norm: 5.14568e-07)
------------------------------------
  Starting TPA DIIS iterations ... 
------------------------------------ 
   It     Res. Norm  Remark
------------------------------------
                       Guess.
    1     7.002e-01  
    2     5.011e-01  
    3     1.808e-01  
    4     6.781e-02  
    5     1.975e-02  
    6     7.263e-03  
    7     1.172e-03  
    8     5.264e-04  
    9     1.508e-04  
   10     3.173e-05  
   11     6.978e-06  
   12     2.095e-06  
   13     1.485e-06  
   14     5.944e-07  Converged.
   ... Converged in 14 steps (norm: 5.94435e-07)
------------------------------------
  Starting TPA DIIS iterations ... 
------------------------------------ 
   It     Res. Norm  Remark
------------------------------------
                       Guess.
    1     4.811e+00  
    2     6.572e+00  
    3     1.192e+00  
    4     2.976e-01  
    5     7.768e-02  
    6     3.198e-02  
    7     9.802e-03  
    8     1.714e-03  
    9     6.420e-04  
   10     1.086e-04  
   11     3.463e-05  
   12     5.438e-06  
   13     1.785e-06  
   14     5.629e-07  Converged.
   ... Converged in 14 steps (norm: 5.62872e-07)
------------------------------------
  Starting TPA DIIS iterations ... 
------------------------------------ 
   It     Res. Norm  Remark
------------------------------------
                       Guess.
    1     4.570e+00  
    2     6.235e+00  
    3     1.136e+00  
    4     2.941e-01  
    5     7.701e-02  
    6     3.168e-02  
    7     9.632e-03  
    8     1.705e-03  
    9     6.351e-04  
   10     1.075e-04  
   11     3.418e-05  
   12     5.329e-06  
   13     1.756e-06  
   14     5.471e-07  Converged.
   ... Converged in 14 steps (norm: 5.47133e-07)
------------------------------------
  Starting TPA DIIS iterations ... 
------------------------------------ 
   It     Res. Norm  Remark
------------------------------------
                       Guess.
    1     7.046e-01  
    2     5.076e-01  
    3     1.845e-01  
    4     7.095e-02  
    5     2.028e-02  
    6     7.506e-03  
    7     1.226e-03  
    8     5.585e-04  
    9     1.612e-04  
   10     3.291e-05  
   11     7.325e-06  
   12     2.226e-06  
   13     1.612e-06  
   14     6.463e-07  Converged.
   ... Converged in 14 steps (norm: 6.46289e-07)
------------------------------------
  Starting TPA DIIS iterations ... 
------------------------------------ 
   It     Res. Norm  Remark
------------------------------------
                       Guess.
    1     5.557e+00  
    2     7.965e+00  
    3     1.401e+00  
    4     3.785e-01  
    5     1.013e-01  
    6     4.246e-02  
    7     1.293e-02  
    8     2.252e-03  
    9     8.583e-04  
   10     1.466e-04  
   11     4.792e-05  
   12     7.643e-06  
   13     2.571e-06  
   14     8.186e-07  Converged.
   ... Converged in 14 steps (norm: 8.18591e-07)
------------------------------------
  Starting TPA DIIS iterations ... 
------------------------------------ 
   It     Res. Norm  Remark
------------------------------------
                       Guess.
    1     5.277e+00  
    2     7.556e+00  
    3     1.335e+00  
    4     3.733e-01  
    5     1.005e-01  
    6     4.212e-02  
    7     1.271e-02  
    8     2.242e-03  
    9     8.486e-04  
   10     1.452e-04  
   11     4.722e-05  
   12     7.491e-06  
   13     2.514e-06  
   14     7.990e-07  Converged.
   ... Converged in 14 steps (norm: 7.99001e-07)
------------------------------------
  Starting TPA DIIS iterations ... 
------------------------------------ 
   It     Res. Norm  Remark
------------------------------------
                       Guess.
    1     7.317e-01  
    2     5.494e-01  
    3     2.092e-01  
    4     9.426e-02  
    5     2.386e-02  
    6     9.257e-03  
    7     1.628e-03  
    8     7.943e-04  
    9     2.362e-04  
   10     3.765e-05  
   11     9.877e-06  
   12     3.235e-06  
   13     2.664e-06  
   14     1.082e-06  
   15     4.163e-07  Converged.
   ... Converged in 15 steps (norm: 4.16263e-07)
------------------------------------
  Starting TPA DIIS iterations ... 
------------------------------------ 
   It     Res. Norm  Remark
------------------------------------
                       Guess.
    1     6.065e+00  
    2     8.945e+00  
    3     1.542e+00  
    4     4.377e-01  
    5     1.185e-01  
    6     5.022e-02  
    7     1.522e-02  
    8     2.644e-03  
    9     1.018e-03  
   10     1.747e-04  
   11     5.795e-05  
   12     9.310e-06  
   13     3.185e-06  
   14     1.024e-06  
   15     3.870e-07  Converged.
   ... Converged in 15 steps (norm: 3.86979e-07)
------------------------------------
  Starting TPA DIIS iterations ... 
------------------------------------ 
   It     Res. Norm  Remark
------------------------------------
                       Guess.
    1     5.758e+00  
    2     8.485e+00  
    3     1.470e+00  
    4     4.311e-01  
    5     1.176e-01  
    6     4.985e-02  
    7     1.497e-02  
    8     2.632e-03  
    9     1.006e-03  
   10     1.731e-04  
   11     5.704e-05  
   12     9.131e-06  
   13     3.102e-06  
   14     1.004e-06  
   15     3.053e-07  Converged.
   ... Converged in 15 steps (norm: 3.05279e-07)
------------------------------------
  Starting TPA DIIS iterations ... 
------------------------------------ 
   It     Res. Norm  Remark
------------------------------------
                       Guess.
    1     7.479e-01  
    2     5.758e-01  
    3     2.254e-01  
    4     1.119e-01  
    5     2.632e-02  
    6     1.055e-02  
    7     1.937e-03  
    8     9.613e-04  
    9     2.887e-04  
   10     3.879e-05  
   11     1.184e-05  
   12     4.035e-06  
   13     3.567e-06  
   14     1.465e-06  
   15     5.505e-07  Converged.
   ... Converged in 15 steps (norm: 5.5052e-07)
------------------------------------
  Starting TPA DIIS iterations ... 
------------------------------------ 
   It     Res. Norm  Remark
------------------------------------
                       Guess.
    1     6.563e+00  
    2     9.931e+00  
    3     1.680e+00  
    4     4.987e-01  
    5     1.363e-01  
    6     5.829e-02  
    7     1.758e-02  
    8     3.048e-03  
    9     1.184e-03  
   10     2.040e-04  
   11     6.850e-05  
   12     1.106e-05  
   13     3.845e-06  
   14     1.253e-06  
   15     4.877e-07  Converged.
   ... Converged in 15 steps (norm: 4.87655e-07)
------------------------------------
  Starting TPA DIIS iterations ... 
------------------------------------ 
   It     Res. Norm  Remark
------------------------------------
                       Guess.
    1     6.230e+00  
    2     9.421e+00  
    3     1.601e+00  
    4     4.907e-01  
    5     1.352e-01  
    6     5.790e-02  
    7     1.729e-02  
    8     3.035e-03  
    9     1.170e-03  
   10     2.020e-04  
   11     6.735e-05  
   12     1.086e-05  
   13     3.729e-06  
   14     1.234e-06  
   15     3.741e-07  Converged.
   ... Converged in 15 steps (norm: 3.74056e-07)
------------------------------------
  Starting TPA DIIS iterations ... 
------------------------------------ 
   It     Res. Norm  Remark
------------------------------------
                       Guess.
    1     7.623e-01  
    2     6.005e-01  
    3     2.409e-01  
    4     1.305e-01  
    5     2.880e-02  
    6     1.188e-02  
    7     2.269e-03  
    8     1.120e-03  
    9     3.394e-04  
   10     3.967e-05  
   11     1.396e-05  
   12     4.910e-06  
   13     4.600e-06  
   14     1.911e-06  
   15     7.173e-07  Converged.
   ... Converged in 15 steps (norm: 7.17288e-07)
------------------------------------
  Starting TPA DIIS iterations ... 
------------------------------------ 
   It     Res. Norm  Remark
------------------------------------
                       Guess.
    1     8.696e+00  
    2     1.440e+01  
    3     2.260e+00  
    4     7.879e-01  
    5     2.206e-01  
    6     9.733e-02  
    7     2.878e-02  
    8     4.951e-03  
    9     1.986e-03  
   10     3.445e-04  
   11     1.191e-04  
   12     1.962e-05  
   13     7.165e-06  
   14     2.581e-06  
   15     1.081e-06  
   16     4.719e-07  Converged.
   ... Converged in 16 steps (norm: 4.71909e-07)
------------------------------------
  Starting TPA DIIS iterations ... 
------------------------------------ 
   It     Res. Norm  Remark
------------------------------------
                       Guess.
    1     8.251e+00  
    2     1.366e+01  
    3     2.152e+00  
    4     7.720e-01  
    5     2.191e-01  
    6     9.689e-02  
    7     2.832e-02  
    8     4.929e-03  
    9     1.958e-03  
   10     3.412e-04  
   11     1.169e-04  
   12     1.945e-05  
   13     6.816e-06  
   14     2.621e-06  
   15     7.731e-07  Converged.
   ... Converged in 15 steps (norm: 7.73098e-07)
------------------------------------
  Starting TPA DIIS iterations ... 
------------------------------------ 
   It     Res. Norm  Remark
------------------------------------
                       Guess.
    1     8.129e-01  
    2     6.953e-01  
    3     3.032e-01  
    4     2.202e-01  
    5     4.025e-02  
    6     1.816e-02  
    7     3.952e-03  
    8     1.630e-03  
    9     5.392e-04  
   10     5.338e-05  
   11     2.533e-05  
   12     9.598e-06  
   13     1.056e-05  
   14     4.593e-06  
   15     2.035e-06  
   16     9.818e-07  Converged.
   ... Converged in 16 steps (norm: 9.81839e-07)
------------------------------------
  Starting TPA DIIS iterations ... 
------------------------------------ 
   It     Res. Norm  Remark
------------------------------------
                       Guess.
    1     1.051e+01  
    2     1.849e+01  
    3     2.741e+00  
    4     1.062e+00  
    5     3.012e-01  
    6     1.356e-01  
    7     3.948e-02  
    8     6.760e-03  
    9     2.767e-03  
   10     4.801e-04  
   11     1.663e-04  
   12     2.808e-05  
   13     1.048e-05  
   14     4.221e-06  
   15     1.830e-06  
   16     8.555e-07  Converged.
   ... Converged in 16 steps (norm: 8.55522e-07)
------------------------------------
  Starting TPA DIIS iterations ... 
------------------------------------ 
   It     Res. Norm  Remark
------------------------------------
                       Guess.
    1     9.973e+00  
    2     1.753e+01  
    3     2.609e+00  
    4     1.038e+00  
    5     2.993e-01  
    6     1.351e-01  
    7     3.886e-02  
    8     6.727e-03  
    9     2.725e-03  
   10     4.755e-04  
   11     1.632e-04  
   12     2.818e-05  
   13     9.787e-06  
   14     4.401e-06  
   15     1.353e-06  
   16     1.092e-06  
   17     5.207e-07  Converged.
   ... Converged in 17 steps (norm: 5.20713e-07)
------------------------------------
  Starting TPA DIIS iterations ... 
------------------------------------ 
   It     Res. Norm  Remark
------------------------------------
                       Guess.
    1     8.462e-01  
    2     7.659e-01  
    3     3.523e-01  
    4     3.018e-01  
    5     5.090e-02  
    6     2.381e-02  
    7     5.623e-03  
    8     1.836e-03  
    9     6.918e-04  
   10     7.591e-05  
   11     3.773e-05  
   12     1.481e-05  
   13     1.744e-05  
   14     7.837e-06  
   15     3.978e-06  
   16     1.790e-06  
   17     6.174e-07  Converged.
   ... Converged in 17 steps (norm: 6.1735e-07)
------------------------------------
  Starting TPA DIIS iterations ... 
------------------------------------ 
   It     Res. Norm  Remark
------------------------------------
                       Guess.
    1     1.145e+01  
    2     2.069e+01  
    3     2.986e+00  
    4     1.211e+00  
    5     3.456e-01  
    6     1.569e-01  
    7     4.537e-02  
    8     7.752e-03  
    9     3.200e-03  
   10     5.549e-04  
   11     1.915e-04  
   12     3.288e-05  
   13     1.240e-05  
   14     5.268e-06  
   15     2.332e-06  
   16     1.111e-06  
   17     3.958e-07  Converged.
   ... Converged in 17 steps (norm: 3.95783e-07)
------------------------------------
  Starting TPA DIIS iterations ... 
------------------------------------ 
   It     Res. Norm  Remark
------------------------------------
                       Guess.
    1     1.086e+01  
    2     1.962e+01  
    3     2.841e+00  
    4     1.182e+00  
    5     3.435e-01  
    6     1.565e-01  
    7     4.466e-02  
    8     7.712e-03  
    9     3.151e-03  
   10     5.496e-04  
   11     1.880e-04  
   12     3.324e-05  
   13     1.146e-05  
   14     5.552e-06  
   15     1.797e-06  
   16     1.476e-06  
   17     6.976e-07  Converged.
   ... Converged in 17 steps (norm: 6.97603e-07)
------------------------------------
  Starting TPA DIIS iterations ... 
------------------------------------ 
   It     Res. Norm  Remark
------------------------------------
                       Guess.
    1     8.610e-01  
    2     7.998e-01  
    3     3.765e-01  
    4     3.431e-01  
    5     5.663e-02  
    6     2.669e-02  
    7     6.536e-03  
    8     1.894e-03  
    9     7.667e-04  
   10     8.899e-05  
   11     4.504e-05  
   12     1.802e-05  
   13     2.170e-05  
   14     9.847e-06  
   15     5.245e-06  
   16     2.301e-06  
   17     8.584e-07  Converged.
   ... Converged in 17 steps (norm: 8.58423e-07)
------------------------------------
  Starting TPA DIIS iterations ... 
------------------------------------ 
   It     Res. Norm  Remark
------------------------------------
                       Guess.
    1     1.247e+01  
    2     2.314e+01  
    3     3.246e+00  
    4     1.377e+00  
    5     3.953e-01  
    6     1.810e-01  
    7     5.197e-02  
    8     8.863e-03  
    9     3.690e-03  
   10     6.388e-04  
   11     2.192e-04  
   12     3.842e-05  
   13     1.469e-05  
   14     6.558e-06  
   15     2.981e-06  
   16     1.430e-06  
   17     5.141e-07  Converged.
   ... Converged in 17 steps (norm: 5.14102e-07)
------------------------------------
  Starting TPA DIIS iterations ... 
------------------------------------ 
   It     Res. Norm  Remark
------------------------------------
                       Guess.
    1     1.183e+01  
    2     2.194e+01  
    3     3.088e+00  
    4     1.342e+00  
    5     3.930e-01  
    6     1.806e-01  
    7     5.116e-02  
    8     8.815e-03  
    9     3.632e-03  
   10     6.327e-04  
   11     2.155e-04  
   12     3.917e-05  
   13     1.341e-05  
   14     6.975e-06  
   15     2.413e-06  
   16     1.977e-06  
   17     9.064e-07  Converged.
   ... Converged in 17 steps (norm: 9.0641e-07)
------------------------------------
  Starting TPA DIIS iterations ... 
------------------------------------ 
   It     Res. Norm  Remark
------------------------------------
                       Guess.
    1     8.757e-01  
    2     8.349e-01  
    3     4.017e-01  
    4     3.856e-01  
    5     6.295e-02  
    6     2.968e-02  
    7     7.546e-03  
    8     1.941e-03  
    9     8.456e-04  
   10     1.035e-04  
   11     5.360e-05  
   12     2.196e-05  
   13     2.699e-05  
   14     1.227e-05  
   15     6.800e-06  
   16     2.912e-06  
   17     1.164e-06  
   18     4.634e-07  Converged.
   ... Converged in 18 steps (norm: 4.63354e-07)
------------------------------------
  Two-photon absorbption ...  CPU 126.86 s  wall 32.45 s
  Transition density matrix of state singlet_A_1 printed to ASCII file 'State_singlet_A_1_Transition.txt'
  Transition density matrix of state singlet_A_2 printed to ASCII file 'State_singlet_A_2_Transition.txt'
  Transition density matrix of state singlet_A_3 printed to ASCII file 'State_singlet_A_3_Transition.txt'
  Transition density matrix of state singlet_A_4 printed to ASCII file 'State_singlet_A_4_Transition.txt'
  Transition density matrix of state singlet_A_5 printed to ASCII file 'State_singlet_A_5_Transition.txt'
  Transition density matrix of state singlet_A_6 printed to ASCII file 'State_singlet_A_6_Transition.txt'
  Transition density matrix of state singlet_A_7 printed to ASCII file 'State_singlet_A_7_Transition.txt'
  Transition density matrix of state singlet_A_8 printed to ASCII file 'State_singlet_A_8_Transition.txt'
  Transition density matrix of state singlet_A_9 printed to ASCII file 'State_singlet_A_9_Transition.txt'
  Transition density matrix of state singlet_A_10 printed to ASCII file 'State_singlet_A_10_Transition.txt'
  Transition properties ...  CPU 0.32 s  wall 0.33 s
  Difference density matrix of state singlet_A_1 printed to ASCII file 'State_singlet_A_1_Difference.txt'
  Total density matrix of state singlet_A_1 printed to ASCII file 'State_singlet_A_1_Total.txt'
  Difference density matrix of state singlet_A_2 printed to ASCII file 'State_singlet_A_2_Difference.txt'
  Total density matrix of state singlet_A_2 printed to ASCII file 'State_singlet_A_2_Total.txt'
  Difference density matrix of state singlet_A_3 printed to ASCII file 'State_singlet_A_3_Difference.txt'
  Total density matrix of state singlet_A_3 printed to ASCII file 'State_singlet_A_3_Total.txt'
  Difference density matrix of state singlet_A_4 printed to ASCII file 'State_singlet_A_4_Difference.txt'
  Total density matrix of state singlet_A_4 printed to ASCII file 'State_singlet_A_4_Total.txt'
  Difference density matrix of state singlet_A_5 printed to ASCII file 'State_singlet_A_5_Difference.txt'
  Total density matrix of state singlet_A_5 printed to ASCII file 'State_singlet_A_5_Total.txt'
  Difference density matrix of state singlet_A_6 printed to ASCII file 'State_singlet_A_6_Difference.txt'
  Total density matrix of state singlet_A_6 printed to ASCII file 'State_singlet_A_6_Total.txt'
  Difference density matrix of state singlet_A_7 printed to ASCII file 'State_singlet_A_7_Difference.txt'
  Total density matrix of state singlet_A_7 printed to ASCII file 'State_singlet_A_7_Total.txt'
  Difference density matrix of state singlet_A_8 printed to ASCII file 'State_singlet_A_8_Difference.txt'
  Total density matrix of state singlet_A_8 printed to ASCII file 'State_singlet_A_8_Total.txt'
  Difference density matrix of state singlet_A_9 printed to ASCII file 'State_singlet_A_9_Difference.txt'
  Total density matrix of state singlet_A_9 printed to ASCII file 'State_singlet_A_9_Total.txt'
  Difference density matrix of state singlet_A_10 printed to ASCII file 'State_singlet_A_10_Difference.txt'
  Total density matrix of state singlet_A_10 printed to ASCII file 'State_singlet_A_10_Total.txt'
  Properties ...  CPU 0.88 s  wall 0.79 s
  ISR TDMS ...  CPU 24.65 s  wall 6.98 s
  ISR transition properties ...  CPU 0.55 s  wall 0.19 s
  Sum-over-states TPA ...  CPU 0.00 s  wall 0.00 s

--------------------------------------------------------------------------------
                   State-averaged natural transition orbitals
--------------------------------------------------------------------------------
--------------------------------------------------------------------------------
  SA-NTO decomposition ...  CPU 0.01 s  wall 0.02 s

--------------------------------------------------------------------------------
                             Excited State Summary
--------------------------------------------------------------------------------
--------------------------------------------------------------------------------

  Excited state 1 (singlet, A)                                     [converged]
  ----------------------------------------------------------------------------
  Term symbol:  2 (1) A                                     R^2 =  3.31647e-14

  Total energy:                                            -77.9984471774 a.u.
  Excitation energy:                                               8.736884 eV

  Osc. strength:                                                      0.445535
  Trans. dip. moment [a.u.]:           [   1.045988,   -0.993620,   -0.009194]
  <i|r^2|0> [a.u.]:                    [   6.169660,   -0.252121,   -0.000542]
  Two-photon absorption cross-section (SoS) [a.u.]:                   0.001307
  Two-photon absorption matrix (SoS) [a.u.]:
                                       |    0.005173   -0.007797   -0.001135 |
                                       |   -0.007797   -0.004116   -0.000955 |
                                       |   -0.001135   -0.000955    0.009866 |
  Two-photon absorption cross-section [a.u.]:                         0.001045
  Two-photon absorption matrix [a.u.]:
                                       |    0.002049   -0.006454    0.000488 |
                                       |   -0.006454   -0.008016    0.001563 |
                                       |    0.000488    0.001563    0.009833 |

  Dip. moment [a.u.]:                  [  -0.000596,    0.001121,    0.000703]
  Total dipole [Debye]:                                               0.003688
  <r^2> [a.u.]:                        [ 176.119423,   35.599088,   11.863359]
  Total <r^2> [a.u.]:                                               223.581870

  V1^2 = 0.9715, V2^2 = 0.0285

  Important amplitudes:
      occ i     occ j     vir a      vir b          v   
    -----------------------------------------------------
     8 (A) A              9 (A) A                -0.6811
     6 (A) A             14 (A) A                -0.0623
     4 (A) A             10 (A) A                -0.0605
     7 (A) A             16 (A) A                 0.0569
     5 (A) A             13 (A) A                 0.0512
     6 (A) A             23 (A) A                -0.0486
     8 (A) A             20 (A) A                 0.0350
     6 (A) A             19 (A) A                -0.0309
     3 (A) A             12 (A) A                 0.0280
     5 (A) A             22 (A) A                 0.0214
     7 (A) A             11 (A) A                 0.0210
     4 (A) A             24 (A) A                -0.0187
     3 (A) A             26 (A) A                 0.0185
     8 (A) A   8 (A) B   17 (A) A   20 (A) B     -0.0184
     8 (A) A   8 (A) B    9 (A) A   28 (A) B      0.0168
     6 (A) A             26 (A) A                 0.0163
     7 (A) A             21 (A) A                 0.0147
     3 (A) A             14 (A) A                -0.0139
     6 (A) A             12 (A) A                -0.0131
     3 (A) A   4 (A) B    9 (A) A    9 (A) B      0.0129
     3 (A) A             19 (A) A                -0.0119
     8 (A) A   8 (A) B   18 (A) A   19 (A) B      0.0113
     7 (A) A             32 (A) A                 0.0095
     7 (A) A             36 (A) A                -0.0086
     3 (A) A             23 (A) A                -0.0080
     8 (A) A   8 (A) B   25 (A) A   29 (A) B      0.0076
     6 (A) A             35 (A) A                -0.0073
     6 (A) A             40 (A) A                 0.0068
     3 (A) A   6 (A) B    9 (A) A   28 (A) B      0.0065
     6 (A) A   8 (A) A   19 (A) A   28 (A) A     -0.0061
     5 (A) A   7 (A) B    9 (A) A    9 (A) B     -0.0060
     5 (A) A   8 (A) B   11 (A) A   20 (A) B     -0.0059
     7 (A) A   8 (A) B   13 (A) A   20 (A) B     -0.0059
     5 (A) A   8 (A) B   16 (A) A    9 (A) B      0.0059
     5 (A) A   8 (A) B   11 (A) A    9 (A) B     -0.0058
     3 (A) A   5 (A) B    9 (A) A   25 (A) B      0.0058
     3 (A) A             40 (A) A                 0.0057
     7 (A) A   8 (A) B   22 (A) A   20 (A) B     -0.0057
     6 (A) A   8 (A) A    9 (A) A   18 (A) A      0.0057
     8 (A) A   8 (A) B   19 (A) A   30 (A) B      0.0056
    -----------------------------------------------------

  Density matrix analysis:
  ------------------------
  NOs
    Occupation of frontier NOs:
       0.9496   1.0217
    Number of electrons: 16.000000
    Number of unpaired electrons: n_u =  2.31310, n_u,nl =  2.03258
    NO participation ratio (PR_NO):  2.863006
  
  
  Mulliken Population Analysis
  Atom      Charge (e)              h+              e-           Del q
  --------------------------------------------------------------------
   1 H        0.058622        0.020288       -0.012544        0.007744
   2 C       -0.116761        0.490903       -0.506147       -0.015244
   3 H        0.058011        0.020150       -0.012592        0.007559
   4 C       -0.114506        0.490725       -0.506188       -0.015463
   5 H        0.056396        0.020154       -0.012578        0.007576
   6 H        0.058238        0.020348       -0.012519        0.007829
  --------------------------------------------------------------------
  Sum:        0.000000        1.062568       -1.062568        0.000000
  
  Multipole moment analysis of the density matrix
    Molecular charge:                      0.000000
    Number of electrons:                   16.000000
      Center of electronic charge [Ang]: [ -1.560557,  -0.065952,   0.001955]
    Total nuclear charge:                  16.000000
      Center of nuclear charge [Ang]:    [ -1.560576,  -0.065915,   0.001978]
    Dipole moment [D]:                     0.003688
      Cartesian components [D]:          [ -0.001514,   0.002849,   0.001787]
    RMS size of the density [Ang]:         1.213833
      Cartesian components [Ang]:        [  0.804405,   0.786573,   0.455660]
  
  Exciton analysis of the difference density matrix
    <r_h> [Ang]:                  [ -1.560213,  -0.065907,   0.001712]
    <r_e> [Ang]:                  [ -1.560239,  -0.065783,   0.001651]
    |<r_e - r_h>| [Ang]:            0.000141
    Hole size [Ang]:                1.285301
      Cartesian components [Ang]: [  0.728488,   0.712339,   0.783501]
    Electron size [Ang]:            1.463115
      Cartesian components [Ang]: [  0.854024,   0.830349,   0.849629]

  Transition density matrix analysis:
  -----------------------------------
  
  CT numbers (Mulliken)
    omega =     0.9536
    <Phe> =    -0.1607
  
  Exciton analysis of the transition density matrix
    Trans. dipole moment [D]:             1.833521
      Cartesian components [D]:         [  1.329318,  -1.262765,  -0.011684]
    <r_h> [Ang]:                        [ -1.560102,  -0.065895,   0.001770]
    <r_e> [Ang]:                        [ -1.560257,  -0.065800,   0.001608]
    |<r_e - r_h>| [Ang]:                  0.000244
    Hole size [Ang]:                      1.214148
      Cartesian components [Ang]:       [  0.649617,   0.636373,   0.804478]
    Electron size [Ang]:                  1.485959
      Cartesian components [Ang]:       [  0.864461,   0.839249,   0.869736]
    RMS electron-hole separation [Ang]:   1.936713
      Cartesian components [Ang]:       [  1.106763,   1.075120,   1.170491]
    Covariance(r_h, r_e) [Ang^2]:        -0.034313
    Correlation coefficient:             -0.019019
    Center-of-mass size [Ang]:            0.950474
      Cartesian components [Ang]:       [  0.527652,   0.515446,   0.599417]

  Decomposition into state-averaged NTOs
    H- 0 -> L+ 0: -0.6699 ( 89.8%)
    H- 2 -> L+ 5: -0.0837 (  1.4%)
                   omega =  95.4%
  ----------------------------------------------------------------------------


  Excited state 2 (singlet, A)                                     [converged]
  ----------------------------------------------------------------------------
  Term symbol:  3 (1) A                                     R^2 =  7.71149e-14

  Total energy:                                            -77.9865075894 a.u.
  Excitation energy:                                               9.061777 eV

  Osc. strength:                                                      0.000027
  Trans. dip. moment [a.u.]:           [  -0.003731,    0.004999,   -0.008994]
  <i|r^2|0> [a.u.]:                    [   0.042907,    0.086830,   -0.150405]
  Two-photon absorption cross-section (SoS) [a.u.]:                   4.932036
  Two-photon absorption matrix (SoS) [a.u.]:
                                       |    0.054536    0.059161   -0.553233 |
                                       |    0.059161    0.063768   -0.544490 |
                                       |   -0.553233   -0.544490   -0.117876 |
  Two-photon absorption cross-section [a.u.]:                         0.069696
  Two-photon absorption matrix [a.u.]:
                                       |   -0.002021   -0.006793    0.062992 |
                                       |   -0.006793   -0.011864    0.067278 |
                                       |    0.062992    0.067278    0.014080 |

  Dip. moment [a.u.]:                  [   0.007845,    0.011733,    0.002279]
  Total dipole [Debye]:                                               0.036340
  <r^2> [a.u.]:                        [ 174.582345,   33.937435,   13.168239]
  Total <r^2> [a.u.]:                                               221.688020

  V1^2 = 0.9542, V2^2 = 0.0458

  Important amplitudes:
      occ i     occ j     vir a      vir b          v   
    -----------------------------------------------------
     7 (A) A              9 (A) A                 0.6691
     8 (A) A             11 (A) A                -0.1476
     7 (A) A             20 (A) A                -0.0759
     5 (A) A   8 (A) B    9 (A) A    9 (A) B      0.0317
     8 (A) A             16 (A) A                 0.0273
     8 (A) A             21 (A) A                -0.0175
     8 (A) A             10 (A) A                 0.0171
     5 (A) A             28 (A) A                 0.0151
     4 (A) A   7 (A) B    9 (A) A   19 (A) B     -0.0135
     5 (A) A   7 (A) B    9 (A) A   16 (A) B      0.0134
     7 (A) A   8 (A) B   20 (A) A   17 (A) B      0.0105
     7 (A) A   8 (A) A    9 (A) A   28 (A) A      0.0098
     5 (A) A   8 (A) B    9 (A) A   20 (A) B     -0.0096
     4 (A) A   6 (A) B    9 (A) A   16 (A) B      0.0091
     5 (A) A   6 (A) A    9 (A) A   23 (A) A     -0.0091
     5 (A) A   6 (A) A    9 (A) A   14 (A) A     -0.0089
     5 (A) A   6 (A) B    9 (A) A   19 (A) B     -0.0087
     8 (A) A   7 (A) B    9 (A) A   28 (A) B     -0.0085
     4 (A) A   5 (A) A    9 (A) A   10 (A) A      0.0084
     6 (A) A   7 (A) B    9 (A) A   18 (A) B     -0.0083
     5 (A) A   6 (A) B    9 (A) A   23 (A) B     -0.0080
     3 (A) A   7 (A) B    9 (A) A   18 (A) B      0.0080
     5 (A) A   7 (A) A    9 (A) A   16 (A) A      0.0079
     8 (A) A             12 (A) A                -0.0078
     4 (A) A   8 (A) B    9 (A) A   25 (A) B      0.0077
     7 (A) A   8 (A) B   17 (A) A   20 (A) B      0.0074
     4 (A) A   7 (A) B   19 (A) A    9 (A) B     -0.0074
     5 (A) A   5 (A) B    9 (A) A   13 (A) B      0.0072
     7 (A) A   8 (A) B   19 (A) A   18 (A) B     -0.0072
     5 (A) A   8 (A) A    9 (A) A   20 (A) A     -0.0069
     4 (A) A   5 (A) B    9 (A) A   18 (A) B     -0.0068
     7 (A) A   7 (A) B   20 (A) A   22 (A) B      0.0065
     7 (A) A   8 (A) B   17 (A) A    9 (A) B     -0.0065
     5 (A) A   6 (A) B    9 (A) A   14 (A) B     -0.0063
     4 (A) A   7 (A) A    9 (A) A   19 (A) A     -0.0061
     4 (A) A   5 (A) B   10 (A) A    9 (A) B     -0.0061
     5 (A) A   7 (A) B   11 (A) A   20 (A) B      0.0060
     4 (A) A   7 (A) B    9 (A) A   14 (A) B      0.0060
     4 (A) A   8 (A) A    9 (A) A   25 (A) A      0.0057
     6 (A) A   7 (A) A   19 (A) A   28 (A) A      0.0057
    -----------------------------------------------------

  Density matrix analysis:
  ------------------------
  NOs
    Occupation of frontier NOs:
       0.9577   1.0540
    Number of electrons: 16.000000
    Number of unpaired electrons: n_u =  2.35506, n_u,nl =  2.06288
    NO participation ratio (PR_NO):  3.028291
  
  
  Mulliken Population Analysis
  Atom      Charge (e)              h+              e-           Del q
  --------------------------------------------------------------------
   1 H        0.151266        0.122106       -0.021718        0.100388
   2 C       -0.302245        0.271834       -0.472563       -0.200728
   3 H        0.150825        0.127764       -0.027392        0.100372
   4 C       -0.300183        0.272046       -0.473186       -0.201140
   5 H        0.153350        0.125914       -0.021384        0.104530
   6 H        0.146987        0.124067       -0.027488        0.096578
  --------------------------------------------------------------------
  Sum:       -0.000000        1.043730       -1.043730       -0.000000
  
  Multipole moment analysis of the density matrix
    Molecular charge:                      -0.000000
    Number of electrons:                   16.000000
      Center of electronic charge [Ang]: [ -1.560836,  -0.066303,   0.001903]
    Total nuclear charge:                  16.000000
      Center of nuclear charge [Ang]:    [ -1.560576,  -0.065915,   0.001978]
    Dipole moment [D]:                     0.036340
      Cartesian components [D]:          [  0.019940,   0.029823,   0.005794]
    RMS size of the density [Ang]:         1.199720
      Cartesian components [Ang]:        [  0.786952,   0.767834,   0.480067]
  
  Exciton analysis of the difference density matrix
    <r_h> [Ang]:                  [ -1.563841,  -0.068652,   0.001723]
    <r_e> [Ang]:                  [ -1.568147,  -0.073905,   0.000862]
    |<r_e - r_h>| [Ang]:            0.006848
    Hole size [Ang]:                1.485548
      Cartesian components [Ang]: [  1.001026,   0.999102,   0.454529]
    Electron size [Ang]:            1.477194
      Cartesian components [Ang]: [  0.882328,   0.858465,   0.816478]

  Transition density matrix analysis:
  -----------------------------------
  
  CT numbers (Mulliken)
    omega =     0.9218
    <Phe> =    -0.0122
  
  Exciton analysis of the transition density matrix
    Trans. dipole moment [D]:             0.013911
      Cartesian components [D]:         [ -0.004741,   0.006353,  -0.011431]
    <r_h> [Ang]:                        [ -1.563988,  -0.068525,   0.001795]
    <r_e> [Ang]:                        [ -1.568470,  -0.074428,   0.000736]
    |<r_e - r_h>| [Ang]:                  0.007487
    Hole size [Ang]:                      1.513911
      Cartesian components [Ang]:       [  1.023678,   1.023183,   0.443965]
    Electron size [Ang]:                  1.474425
      Cartesian components [Ang]:       [  0.873087,   0.847959,   0.832234]
    RMS electron-hole separation [Ang]:   2.093480
      Cartesian components [Ang]:       [  1.329571,   1.313995,   0.942506]
    Covariance(r_h, r_e) [Ang^2]:         0.041627
    Correlation coefficient:              0.018649
    Center-of-mass size [Ang]:            1.066432
      Cartesian components [Ang]:       [  0.680562,   0.671813,   0.471996]

  Decomposition into state-averaged NTOs
    H- 1 -> L+ 0:  0.6615 ( 87.5%)
    H- 0 -> L+ 2:  0.1478 (  4.4%)
                   omega =  92.2%
  ----------------------------------------------------------------------------


  Excited state 3 (singlet, A)                                     [converged]
  ----------------------------------------------------------------------------
  Term symbol:  4 (1) A                                     R^2 =  6.33311e-14

  Total energy:                                            -77.9823665992 a.u.
  Excitation energy:                                               9.174459 eV

  Osc. strength:                                                      0.025347
  Trans. dip. moment [a.u.]:           [   0.015407,    0.020356,   -0.334838]
  <i|r^2|0> [a.u.]:                    [   0.091177,    0.000558,    0.006106]
  Two-photon absorption cross-section (SoS) [a.u.]:                   0.003632
  Two-photon absorption matrix (SoS) [a.u.]:
                                       |    0.016772    0.001894   -0.008681 |
                                       |    0.001894   -0.013547   -0.011380 |
                                       |   -0.008681   -0.011380    0.002826 |
  Two-photon absorption cross-section [a.u.]:                         0.005352
  Two-photon absorption matrix [a.u.]:
                                       |    0.015210    0.001583   -0.019049 |
                                       |    0.001583   -0.007553   -0.012058 |
                                       |   -0.019049   -0.012058   -0.000154 |

  Dip. moment [a.u.]:                  [   0.000791,    0.037675,    0.001565]
  Total dipole [Debye]:                                               0.095864
  <r^2> [a.u.]:                        [ 180.870923,   40.551079,   11.027719]
  Total <r^2> [a.u.]:                                               232.449721

  V1^2 = 0.9588, V2^2 = 0.0412

  Important amplitudes:
      occ i     occ j     vir a      vir b          v   
    -----------------------------------------------------
     8 (A) A             10 (A) A                 0.6889
     8 (A) A             24 (A) A                 0.0507
     8 (A) A             18 (A) A                -0.0311
     4 (A) A              9 (A) A                 0.0237
     8 (A) A   8 (A) B    9 (A) A   12 (A) B     -0.0219
     7 (A) A              9 (A) A                -0.0176
     8 (A) A   8 (A) B   10 (A) A   17 (A) B      0.0173
     8 (A) A             15 (A) A                 0.0170
     5 (A) A   8 (A) B   11 (A) A   10 (A) B      0.0165
     7 (A) A   8 (A) B   13 (A) A   10 (A) B      0.0141
     4 (A) A   8 (A) B   12 (A) A   10 (A) B     -0.0111
     6 (A) A   8 (A) A   10 (A) A   15 (A) A     -0.0110
     7 (A) A   8 (A) B   22 (A) A   10 (A) B      0.0108
     6 (A) A   8 (A) B   15 (A) A   10 (A) B      0.0108
     4 (A) A   8 (A) A   10 (A) A   12 (A) A      0.0106
     7 (A) A   8 (A) A   10 (A) A   22 (A) A     -0.0099
     7 (A) A   8 (A) A   10 (A) A   13 (A) A     -0.0097
     5 (A) A   8 (A) B   21 (A) A   10 (A) B      0.0094
     5 (A) A   8 (A) A   10 (A) A   11 (A) A     -0.0094
     6 (A) A   8 (A) A   10 (A) A   18 (A) A     -0.0088
     6 (A) A   8 (A) B   10 (A) A   10 (A) B     -0.0087
     7 (A) A   8 (A) A   12 (A) A   16 (A) A      0.0081
     5 (A) A   8 (A) A   10 (A) A   21 (A) A     -0.0080
     3 (A) A   4 (A) B   10 (A) A    9 (A) B     -0.0079
     4 (A) A   8 (A) B   19 (A) A   10 (A) B      0.0075
     8 (A) A   8 (A) B    9 (A) A   23 (A) B     -0.0075
     8 (A) A   8 (A) B   10 (A) A   28 (A) B     -0.0073
     3 (A) A   8 (A) B   10 (A) A   10 (A) B      0.0072
     5 (A) A   8 (A) B   10 (A) A   11 (A) B      0.0071
     3 (A) A   8 (A) A   10 (A) A   24 (A) A     -0.0071
     7 (A) A   8 (A) B   16 (A) A   12 (A) B     -0.0070
     3 (A) A   8 (A) B   10 (A) A   18 (A) B     -0.0069
     8 (A) A   8 (A) B    9 (A) A   19 (A) B      0.0068
     6 (A) A   8 (A) B   18 (A) A   10 (A) B      0.0067
     3 (A) A   6 (A) B   10 (A) A   28 (A) B     -0.0062
     7 (A) A   8 (A) B   12 (A) A   11 (A) B      0.0057
     6 (A) A             28 (A) A                 0.0057
     3 (A) A   5 (A) B   10 (A) A   25 (A) B     -0.0056
     5 (A) A   8 (A) A   10 (A) A   16 (A) A      0.0056
     3 (A) A   8 (A) A   10 (A) A   18 (A) A     -0.0056
    -----------------------------------------------------

  Density matrix analysis:
  ------------------------
  NOs
    Occupation of frontier NOs:
       0.9821   0.9844
    Number of electrons: 16.000000
    Number of unpaired electrons: n_u =  2.28621, n_u,nl =  2.02462
    NO participation ratio (PR_NO):  2.693979
  
  
  Mulliken Population Analysis
  Atom      Charge (e)              h+              e-           Del q
  --------------------------------------------------------------------
   1 H       -0.162967        0.054115       -0.267960       -0.213845
   2 C        0.328327        0.539344       -0.109500        0.429844
   3 H       -0.170155        0.053503       -0.274111       -0.220608
   4 C        0.328936        0.535909       -0.107930        0.427979
   5 H       -0.160394        0.054082       -0.263295       -0.209213
   6 H       -0.163748        0.053807       -0.267965       -0.214157
  --------------------------------------------------------------------
  Sum:        0.000000        1.290760       -1.290760        0.000000
  
  Multipole moment analysis of the density matrix
    Molecular charge:                      0.000000
    Number of electrons:                   16.000000
      Center of electronic charge [Ang]: [ -1.560602,  -0.067161,   0.001926]
    Total nuclear charge:                  16.000000
      Center of nuclear charge [Ang]:    [ -1.560576,  -0.065915,   0.001978]
    Dipole moment [D]:                     0.095864
      Cartesian components [D]:          [  0.002011,   0.095760,   0.003978]
    RMS size of the density [Ang]:         1.276045
      Cartesian components [Ang]:        [  0.854449,   0.839765,   0.439319]
  
  Exciton analysis of the difference density matrix
    <r_h> [Ang]:                  [ -1.559169,  -0.067006,   0.001815]
    <r_e> [Ang]:                  [ -1.559760,  -0.081889,   0.001412]
    |<r_e - r_h>| [Ang]:            0.014901
    Hole size [Ang]:                1.410231
      Cartesian components [Ang]: [  0.834306,   0.819454,   0.788150]
    Electron size [Ang]:            2.076278
      Cartesian components [Ang]: [  1.374287,   1.376034,   0.727182]

  Transition density matrix analysis:
  -----------------------------------
  
  CT numbers (Mulliken)
    omega =     0.9260
    <Phe> =    -0.0109
  
  Exciton analysis of the transition density matrix
    Trans. dipole moment [D]:             0.426772
      Cartesian components [D]:         [  0.019580,   0.025870,  -0.425537]
    <r_h> [Ang]:                        [ -1.559055,  -0.065132,   0.001788]
    <r_e> [Ang]:                        [ -1.559351,  -0.087140,   0.001253]
    |<r_e - r_h>| [Ang]:                  0.022017
    Hole size [Ang]:                      1.213194
      Cartesian components [Ang]:       [  0.636833,   0.623856,   0.822853]
    Electron size [Ang]:                  2.295935
      Cartesian components [Ang]:       [  1.518589,   1.522802,   0.803914]
    RMS electron-hole separation [Ang]:   2.586950
      Cartesian components [Ang]:       [  1.639229,   1.638801,   1.148726]
    Covariance(r_h, r_e) [Ang^2]:         0.025663
    Correlation coefficient:              0.009213
    Center-of-mass size [Ang]:            1.303311
      Cartesian components [Ang]:       [  0.827083,   0.826296,   0.576011]

  Decomposition into state-averaged NTOs
    H- 0 -> L+ 1:  0.6795 ( 92.4%)
                   omega =  92.6%
  ----------------------------------------------------------------------------


  Excited state 4 (singlet, A)                                     [converged]
  ----------------------------------------------------------------------------
  Term symbol:  5 (1) A                                     R^2 =  1.45553e-13

  Total energy:                                            -77.9578655161 a.u.
  Excitation energy:                                               9.841167 eV

  Osc. strength:                                                      0.000010
  Trans. dip. moment [a.u.]:           [  -0.001345,    0.001948,   -0.005849]
  <i|r^2|0> [a.u.]:                    [  -0.026531,   -0.017445,    0.036567]
  Two-photon absorption cross-section (SoS) [a.u.]:                 150.861394
  Two-photon absorption matrix (SoS) [a.u.]:
                                       |   -0.297494   -0.326887    3.071977 |
                                       |   -0.326887   -0.354921    2.998984 |
                                       |    3.071977    2.998984    0.652130 |
  Two-photon absorption cross-section [a.u.]:                        92.904524
  Two-photon absorption matrix [a.u.]:
                                       |   -0.236423   -0.256771    2.412566 |
                                       |   -0.256771   -0.275602    2.351555 |
                                       |    2.412566    2.351555    0.511703 |

  Dip. moment [a.u.]:                  [  -0.043575,   -0.026188,   -0.004378]
  Total dipole [Debye]:                                               0.129698
  <r^2> [a.u.]:                        [ 181.267239,   40.267698,   10.762752]
  Total <r^2> [a.u.]:                                               232.297689

  V1^2 = 0.9635, V2^2 = 0.0365

  Important amplitudes:
      occ i     occ j     vir a      vir b          v   
    -----------------------------------------------------
     8 (A) A             11 (A) A                 0.6696
     7 (A) A              9 (A) A                 0.1496
     8 (A) A             21 (A) A                 0.0781
     8 (A) A             16 (A) A                -0.0643
     8 (A) A             12 (A) A                 0.0195
     8 (A) A   8 (A) B    9 (A) A   13 (A) B     -0.0167
     5 (A) A   8 (A) B   11 (A) A   11 (A) B      0.0155
     8 (A) A   8 (A) B   11 (A) A   17 (A) B      0.0140
     7 (A) A             20 (A) A                -0.0137
     7 (A) A   8 (A) B   13 (A) A   11 (A) B      0.0127
     6 (A) A              9 (A) A                -0.0111
     5 (A) A   8 (A) A   11 (A) A   21 (A) A     -0.0110
     4 (A) A   8 (A) B   12 (A) A   11 (A) B     -0.0110
     8 (A) A   8 (A) B    9 (A) A   22 (A) B     -0.0107
     7 (A) A   8 (A) A   11 (A) A   22 (A) A     -0.0096
     6 (A) A   8 (A) B   15 (A) A   11 (A) B      0.0090
     6 (A) A   8 (A) B   10 (A) A   11 (A) B     -0.0090
     7 (A) A   8 (A) B   22 (A) A   11 (A) B      0.0089
     3 (A) A   4 (A) B   11 (A) A    9 (A) B     -0.0083
     3 (A) A   8 (A) B   11 (A) A   18 (A) B     -0.0081
     6 (A) A   8 (A) A   11 (A) A   15 (A) A     -0.0080
     7 (A) A   8 (A) A   13 (A) A   16 (A) A      0.0078
     7 (A) A   8 (A) A   11 (A) A   13 (A) A     -0.0077
     5 (A) A   8 (A) B   21 (A) A   11 (A) B      0.0071
     4 (A) A   8 (A) B   19 (A) A   11 (A) B      0.0070
     5 (A) A   8 (A) B    9 (A) A    9 (A) B      0.0067
     4 (A) A   8 (A) A   11 (A) A   12 (A) A      0.0062
     6 (A) A   8 (A) A   11 (A) A   18 (A) A     -0.0062
     3 (A) A   6 (A) B   11 (A) A   28 (A) B     -0.0060
     6 (A) A   8 (A) B   18 (A) A   11 (A) B      0.0060
     7 (A) A   8 (A) B   16 (A) A   13 (A) B     -0.0057
     3 (A) A   8 (A) A   11 (A) A   18 (A) A     -0.0056
     5 (A) A   8 (A) B   10 (A) A   10 (A) B      0.0056
     3 (A) A   8 (A) B   11 (A) A   30 (A) B     -0.0055
     3 (A) A   5 (A) B   11 (A) A   25 (A) B     -0.0055
     6 (A) A   8 (A) B   11 (A) A   10 (A) B     -0.0054
     7 (A) A   8 (A) B   12 (A) A   10 (A) B      0.0054
     8 (A) A   8 (A) B   20 (A) A   22 (A) B      0.0053
     3 (A) A   8 (A) A   11 (A) A   24 (A) A     -0.0053
     5 (A) A   8 (A) A   11 (A) A   16 (A) A      0.0048
    -----------------------------------------------------

  Density matrix analysis:
  ------------------------
  NOs
    Occupation of frontier NOs:
       0.9410   1.0276
    Number of electrons: 16.000000
    Number of unpaired electrons: n_u =  2.31885, n_u,nl =  2.04889
    NO participation ratio (PR_NO):  2.912425
  
  
  Mulliken Population Analysis
  Atom      Charge (e)              h+              e-           Del q
  --------------------------------------------------------------------
   1 H       -0.160778        0.045604       -0.257260       -0.211656
   2 C        0.275510        0.497924       -0.120897        0.377027
   3 H       -0.117193        0.047151       -0.214796       -0.167646
   4 C        0.276504        0.496505       -0.120958        0.375547
   5 H       -0.129153        0.047310       -0.225282       -0.177972
   6 H       -0.144891        0.045581       -0.240881       -0.195300
  --------------------------------------------------------------------
  Sum:        0.000000        1.180074       -1.180074        0.000000
  
  Multipole moment analysis of the density matrix
    Molecular charge:                      0.000000
    Number of electrons:                   16.000000
      Center of electronic charge [Ang]: [ -1.559135,  -0.065049,   0.002123]
    Total nuclear charge:                  16.000000
      Center of nuclear charge [Ang]:    [ -1.560576,  -0.065915,   0.001978]
    Dipole moment [D]:                     0.129698
      Cartesian components [D]:          [ -0.110757,  -0.066563,  -0.011127]
    RMS size of the density [Ang]:         1.276905
      Cartesian components [Ang]:        [  0.861161,   0.836974,   0.434008]
  
  Exciton analysis of the difference density matrix
    <r_h> [Ang]:                  [ -1.558896,  -0.065406,   0.001899]
    <r_e> [Ang]:                  [ -1.539647,  -0.053048,   0.004123]
    |<r_e - r_h>| [Ang]:            0.022983
    Hole size [Ang]:                1.394816
      Cartesian components [Ang]: [  0.818593,   0.806451,   0.790603]
    Electron size [Ang]:            2.124841
      Cartesian components [Ang]: [  1.459540,   1.386934,   0.679050]

  Transition density matrix analysis:
  -----------------------------------
  
  CT numbers (Mulliken)
    omega =     0.9298
    <Phe> =    -0.0134
  
  Exciton analysis of the transition density matrix
    Trans. dipole moment [D]:             0.008019
      Cartesian components [D]:         [ -0.001709,   0.002476,  -0.007433]
    <r_h> [Ang]:                        [ -1.560300,  -0.065915,   0.001704]
    <r_e> [Ang]:                        [ -1.535714,  -0.050624,   0.004533]
    |<r_e - r_h>| [Ang]:                  0.029092
    Hole size [Ang]:                      1.227808
      Cartesian components [Ang]:       [  0.656871,   0.650892,   0.807696]
    Electron size [Ang]:                  2.263314
      Cartesian components [Ang]:       [  1.556176,   1.476598,   0.721502]
    RMS electron-hole separation [Ang]:   2.564401
      Cartesian components [Ang]:       [  1.680673,   1.606105,   1.082553]
    Covariance(r_h, r_e) [Ang^2]:         0.027398
    Correlation coefficient:              0.009859
    Center-of-mass size [Ang]:            1.292759
      Cartesian components [Ang]:       [  0.848862,   0.810658,   0.541748]

  Decomposition into state-averaged NTOs
    H- 0 -> L+ 2: -0.6649 ( 88.4%)
    H- 1 -> L+ 0:  0.1476 (  4.4%)
                   omega =  93.0%
  ----------------------------------------------------------------------------


  Excited state 5 (singlet, A)                                     [converged]
  ----------------------------------------------------------------------------
  Term symbol:  6 (1) A                                     R^2 =  1.21835e-13

  Total energy:                                            -77.9440740129 a.u.
  Excitation energy:                                              10.216453 eV

  Osc. strength:                                                      0.000001
  Trans. dip. moment [a.u.]:           [   0.000281,    0.000356,   -0.001652]
  <i|r^2|0> [a.u.]:                    [   0.089261,   -0.104851,    0.017607]
  Two-photon absorption cross-section (SoS) [a.u.]:                 175.720631
  Two-photon absorption matrix (SoS) [a.u.]:
                                       |    0.312995    0.033482   -3.262306 |
                                       |    0.033482   -0.394946    3.345195 |
                                       |   -3.262306    3.345195    0.089503 |
  Two-photon absorption cross-section [a.u.]:                        77.937299
  Two-photon absorption matrix [a.u.]:
                                       |    0.208942    0.021773   -2.153212 |
[...]
    16   -1.491017658584e-03
    17   -1.763067883724e-03
    18   -2.193616719603e-04
    19   -3.398588228438e-03
    20    1.128163659012e-02
    21    9.427217698675e-01
    22   -2.087649783480e-04
    23    1.406263583627e-02
    24    8.236051498998e-04
    25    6.987119296925e-02
    26   -5.176528791333e-02
    27   -1.397901773884e+00
    28    9.843206117315e-02
    29   -9.125216551959e-02
    30   -9.858221663007e-04
    31    3.856374119368e-01
    32   -3.591748610125e-01
    33   -3.989390761212e-03
    34    1.568366312677e-02
    35   -1.464203948374e-03
    36   -1.810036304540e-03
    37    4.130626961740e-05
    38   -3.093975005392e-03
    39    9.283000547635e-03
    40    9.275271713801e-01
    41    2.425656802480e-04
    42   -1.394184657242e-02
    43   -8.356617425623e-04
    44    9.879164132117e-03
    45    9.404983559793e-01
    46    1.413382676404e-02
    47    4.062212784499e-04
    48    6.861632939178e-04
Sym=X
Ene= 0.233138
Spin=Alpha
Occup=0
     1    2.632060065290e-02
     2    1.268390700372e+00
     3   -1.487577386420e-02
     4   -4.073568575727e-03
     5   -9.376581049094e-04
     6    5.804335611090e-03
     7   -6.079614820090e-03
     8   -9.769489161960e-02
     9   -1.567847520471e-01
    10   -1.567942920712e-01
    11   -1.663162302572e-02
    12   -5.652398508108e-01
    13   -5.506975895038e-01
    14   -5.902013700385e-02
    15    1.225241591485e-03
    16   -1.528471608869e-04
    17   -1.378414478231e-04
    18   -3.970445802717e-04
    19   -7.482451172675e-04
    20   -2.417281650688e-02
    21   -1.126248484185e+00
    22   -2.246340437598e-03
    23   -1.308166755617e-02
    24   -8.801651398768e-04
    25   -4.992880341411e-03
    26    5.521202808545e-03
    27    7.392700537017e-02
    28   -1.548075411928e-01
    29   -1.567825629273e-01
    30   -1.679723635545e-02
    31   -5.529220483886e-01
    32   -5.497539633176e-01
    33   -5.947154429263e-02
    34   -8.809035170045e-04
    35    1.103383848847e-04
    36    6.739312370489e-05
    37    3.994783254203e-04
    38    5.551424315895e-04
    39    2.389633360632e-02
    40    1.135076174095e+00
    41   -2.266188284055e-03
    42   -1.338257383986e-02
    43   -9.154006052805e-04
    44   -2.686174471547e-02
    45   -1.247656669682e+00
    46   -1.458044867366e-02
    47   -3.953709860269e-03
    48   -9.290946301640e-04
Sym=X
Ene= 0.239631
Spin=Alpha
Occup=0
     1   -1.558142936574e-02
     2   -1.010298668240e+00
     3    1.601903413703e-02
     4    9.003051592339e-03
     5    1.302279546538e-03
     6   -8.606916805454e-02
     7    7.917694918129e-02
     8    1.587097447736e+00
     9    4.827986607048e-02
    10   -6.518995165198e-02
    11   -1.434558768507e-03
    12    1.917389179061e-01
    13   -2.512560464501e-01
    14   -5.134939341225e-03
    15   -2.248455189423e-02
    16    2.603701840691e-03
    17    2.960120799087e-03
    18   -7.052269230766e-04
    19    1.280445904834e-02
    20   -1.725658189052e-02
    21   -1.156085396648e+00
    22   -8.591562648872e-03
    23   -1.817828411764e-02
    24   -1.477266237479e-03
    25    8.650492477793e-02
    26   -7.915706935201e-02
    27   -1.606074226297e+00
    28    4.958820024502e-02
    29   -6.519954464854e-02
    30   -1.821683089142e-03
    31    1.968062079069e-01
    32   -2.570202290915e-01
    33   -7.137898163590e-03
    34    2.285522620450e-02
    35   -2.601114740731e-03
    36   -3.062189957256e-03
    37    8.314971860947e-04
    38   -1.284162465170e-02
    39    1.680755259457e-02
    40    1.171694388646e+00
    41   -8.702304000096e-03
    42   -1.857585100404e-02
    43   -1.542183619221e-03
    44    1.458291109449e-02
    45    1.017931625140e+00
    46    1.613236199736e-02
    47    9.235200894818e-03
    48    1.297113431466e-03
Sym=X
Ene= 0.303292
Spin=Alpha
Occup=0
     1    2.040361513844e-02
     2   -1.691360981000e+00
     3    2.289414984756e-02
     4   -2.533620228843e-04
     5    1.076419579242e-03
     6    1.622662851503e-04
     7   -3.384010929915e-04
     8    1.196407800140e-03
     9    1.337583473616e-01
    10    1.392146946303e-01
    11    1.454255944973e-02
    12    1.142943823435e+00
    13    1.193964544100e+00
    14    1.249651565484e-01
    15    1.104971907659e-04
    16    1.645014611971e-03
    17   -1.838090564724e-03
    18    3.246302959168e-02
    19    1.585646497022e-03
    20   -1.965791635830e-02
    21    1.687728881282e+00
    22   -1.434187540139e-03
    23    2.281169153451e-02
    24    1.271192457573e-03
    25    4.646941039548e-05
    26   -2.562638406020e-04
    27   -2.915908958175e-03
    28   -1.347872303478e-01
    29   -1.400637590382e-01
    30   -1.481013653943e-02
    31   -1.142781408114e+00
    32   -1.199712877429e+00
    33   -1.258712565246e-01
    34    1.836230322085e-04
    35    1.572265779511e-03
    36   -1.942556533327e-03
    37    3.256055084611e-02
    38    1.505242001488e-03
    39   -2.016608405123e-02
    40    1.704576817681e+00
    41    1.604016389859e-03
    42   -2.287211464009e-02
    43   -1.301271575869e-03
    44    1.990532142377e-02
    45   -1.700392487705e+00
    46   -2.298808642771e-02
    47    4.484886912518e-04
    48   -1.059297559458e-03
Sym=X
Ene= 0.462091
Spin=Alpha
Occup=0
     1   -1.154719682217e-01
     2   -7.161993311876e-01
     3   -1.565089412051e-02
     4   -1.029669318823e-02
     5   -1.342309241867e-03
     6    6.079459915933e-02
     7    1.714983689525e-02
     8   -3.591532933709e+00
     9    1.032920065611e-01
    10   -9.934283758836e-02
    11   -1.011524245238e-03
    12    2.426808951670e+00
    13   -2.301424323652e+00
    14   -2.082549114394e-02
    15    5.363417865262e-02
    16   -3.343196225553e-03
    17   -4.646459213721e-03
    18   -7.114674849323e-04
    19    1.802165037713e-02
    20   -1.209829617258e-01
    21   -7.017947888998e-01
    22    8.697542262722e-03
    23    1.640610515368e-02
    24    1.382177777120e-03
    25   -6.080647093762e-02
    26   -1.627806994886e-02
    27    3.585253700743e+00
    28    1.048510516762e-01
    29   -1.002887267145e-01
    30   -1.256726240954e-03
    31    2.420876390986e+00
    32   -2.303267968866e+00
    33   -2.241708072756e-02
    34   -5.263882347770e-02
    35    3.298148312503e-03
    36    4.529330973108e-03
    37    8.453970937293e-04
    38   -1.880777251701e-02
    39    1.146519739355e-01
    40    7.182407467753e-01
    41    8.507322966097e-03
    42    1.629038441323e-02
    43    1.375044989150e-03
    44    1.109673206535e-01
    45    7.155173139629e-01
    46   -1.553437611751e-02
    47   -9.943865614257e-03
    48   -1.344907725549e-03
Sym=X
Ene= 0.577415
Spin=Alpha
Occup=0
     1    2.492992666108e-01
     2    4.024408985958e-02
     3   -1.814820263760e-02
     4    2.558805685601e-02
     5    6.546577203148e-04
     6   -4.508234739528e-03
     7   -1.568178889574e-01
     8   -4.617259649997e-01
     9    2.984753641374e-01
    10   -2.874705597166e-01
    11   -2.915585119882e-03
    12   -7.224426283978e-01
    13    6.991794025088e-01
    14    7.394168594972e-03
    15   -6.080687105928e-03
    16    3.925714203406e-03
    17    3.730695176791e-03
    18   -3.837679582428e-03
    19    6.026019390158e-02
    20    2.538167265055e-01
    21    3.122571233700e-02
    22   -2.665165826502e-02
    23    1.661358096157e-02
    24   -2.798126441394e-04
    25   -5.445669294324e-03
    26   -1.570822869941e-01
    27   -4.182038513368e-01
    28   -2.967867926203e-01
    29    2.856737965515e-01
    30    2.850464793411e-03
    31    7.557428242578e-01
    32   -7.355781824549e-01
    33   -8.252647295521e-03
    34   -5.890239457240e-03
    35    3.892621080237e-03
    36    3.730873166126e-03
    37   -4.109677908394e-03
    38    6.017273644610e-02
    39    2.537446962389e-01
    40    5.223779819454e-02
    41    2.659297046195e-02
    42   -1.625293988560e-02
    43    2.772784545238e-04
    44    2.472463095423e-01
    45    5.442070417680e-02
    46    1.851060588173e-02
    47   -2.598686144889e-02
    48   -6.895532565066e-04
Sym=X
Ene= 0.615464
Spin=Alpha
Occup=0
     1   -5.210106353484e-01
     2    2.025815262059e-01
     3   -6.151357423174e-02
     4    3.789262785494e-02
     5   -6.934558110125e-04
     6   -6.157614374847e-04
     7    4.907531230699e-04
     8   -1.901346531797e-02
     9   -3.970642438329e-02
    10   -3.886355151421e-02
    11   -4.239416785368e-03
    12    2.996290772239e-01
    13    2.818915245469e-01
    14    3.063482290060e-02
    15    1.690484822791e-03
    16   -7.570912554789e-03
    17    8.300173736406e-03
    18   -1.482453254220e-01
    19   -5.949668318308e-03
    20    5.103471643526e-01
    21   -2.045945858169e-01
    22    4.165105396868e-02
    23   -5.856768649549e-02
    24   -1.497520047016e-03
    25    5.874185018580e-04
    26   -2.566931827667e-03
    27    2.715553410148e-02
    28   -4.153976671851e-02
    29   -4.084821186774e-02
    30   -4.367762009875e-03
    31    3.097304624802e-01
    32    2.954422487886e-01
    33    3.263535974101e-02
    34   -2.543136301352e-03
    35    7.524459981888e-03
    36   -8.413484521000e-03
    37    1.485805206161e-01
    38    6.807488171000e-03
    39   -5.089800842896e-01
    40    1.931680798695e-01
    41    4.115774070048e-02
    42   -5.832105060780e-02
    43   -1.554932696458e-03
    44    5.257290663667e-01
    45   -2.023110583199e-01
    46   -6.163358919363e-02
    47    3.731081367632e-02
    48   -6.480016340126e-04
Sym=X
Ene= 0.689201
Spin=Alpha
Occup=0
     1    4.392930128436e-04
     2    1.702972099918e-04
     3    1.070570104434e-03
     4    1.276409276592e-03
     5   -2.101058295494e-02
     6    3.123253522304e-05
     7    3.414405365818e-04
     8    1.452015084916e-05
     9    3.152640722405e-02
    10    3.985387475730e-02
    11   -6.704325981405e-01
    12   -2.933144209925e-02
    13   -3.589023298400e-02
    14    6.135417915357e-01
    15   -1.408800394822e-03
    16    8.261022574507e-02
    17   -7.831464062546e-02
    18   -8.635367006303e-03
    19   -1.088441790311e-03
    20    4.946395527414e-04
    21   -1.141004802936e-04
    22    9.200845828774e-04
    23    1.140742682617e-03
    24   -2.095455964041e-02
    25    1.113004793298e-05
    26    5.331808779913e-04
    27   -5.382455613820e-04
    28    3.197484387879e-02
    29    3.997752383729e-02
    30   -6.699577543864e-01
    31   -2.988961149509e-02
    32   -3.615224482019e-02
    33    6.134249863290e-01
    34    1.136825153391e-03
    35   -8.273951126320e-02
    36    7.859247219943e-02
    37    8.548380573551e-03
    38    1.185754567573e-03
    39    1.693706416898e-04
    40   -6.797451122041e-04
    41    1.067065732861e-03
    42    1.454897881473e-03
    43   -2.191776707358e-02
    44    1.054846957243e-04
    45   -3.986022659244e-04
    46    8.783657949119e-04
    47    1.266773876355e-03
    48   -2.100408445664e-02
Sym=X
Ene= 0.709379
Spin=Alpha
Occup=0
     1   -4.816278735832e-01
     2    1.640283263659e-01
     3   -8.186572473571e-02
     4   -4.413033940786e-02
     5   -6.529394845974e-03
     6   -4.842417092442e-02
     7   -3.194036649091e-01
     8    5.141098731628e-01
     9    2.034477886320e-01
    10   -1.919183877852e-01
    11   -2.279881179566e-03
    12   -1.014422388738e-01
    13    8.504610664900e-02
    14    4.490319478274e-04
    15    1.955588843503e-01
    16   -2.063807792532e-02
    17   -2.404886531427e-02
    18    2.405188459830e-03
    19   -7.758184574167e-02
    20   -4.788139733009e-01
    21    1.523547340535e-01
    22    4.138867925197e-02
    23    8.206126404705e-02
    24    6.782927938651e-03
    25   -4.632371628576e-02
    26   -3.247213810061e-01
    27    4.651168598099e-01
    28   -2.067498667406e-01
    29    1.904362949947e-01
    30    1.013843623500e-03
    31    6.921951472282e-02
    32   -4.033842459418e-02
    33    1.900849068861e-03
    34    1.926115518637e-01
    35   -2.035907257332e-02
    36   -2.378025419285e-02
    37    2.483220814585e-03
    38   -7.544005773246e-02
    39   -4.680013367960e-01
    40    1.190432912823e-01
    41   -4.054363341649e-02
    42   -8.047286435426e-02
    43   -6.734793324917e-03
    44   -4.691943740253e-01
    45    1.469947276547e-01
    46    8.006800415237e-02
    47    4.409893141300e-02
    48    6.442401780034e-03
Sym=X
Ene= 0.785287
Spin=Alpha
Occup=0
     1    5.210377848188e-01
     2   -4.679468354654e-01
     3    1.096424409573e-01
     4    2.616207321037e-02
     5    6.747809889316e-03
     6    9.068301486824e-02
     7   -2.198443884571e-01
     8   -6.358915200491e-01
     9    1.122000953021e-01
    10   -1.083508598773e-01
    11   -1.118347947275e-04
    12    3.161672497097e-01
    13   -2.902047603905e-01
    14   -4.047810930980e-03
    15   -2.049580114206e-01
    16    1.736597390223e-02
    17    2.152129171080e-02
    18   -1.058357684152e-03
    19    8.456750482638e-03
    20    5.355389991238e-01
    21   -4.665946485109e-01
    22   -1.944466219783e-02
    23   -1.120117953033e-01
    24   -7.526036970004e-03
    25   -9.199111142018e-02
    26    2.065680210739e-01
    27    6.683218237358e-01
    28    1.064313352498e-01
    29   -1.106005636787e-01
    30   -2.360491988586e-03
    31    3.203662504824e-01
    32   -2.714340694612e-01
    33    8.778365119127e-04
    34    2.097819090710e-01
    35   -1.778561307716e-02
    36   -2.250722312697e-02
    37    5.943527148272e-04
    38   -9.214207159519e-03
    39   -5.430226417737e-01
    40    4.481095247574e-01
    41   -2.034845186709e-02
    42   -1.128239308086e-01
    43   -7.739375405512e-03
    44   -5.344589389394e-01
    45    4.745825737224e-01
    46    1.118363884270e-01
    47    2.737233011412e-02
    48    6.943764813548e-03
Sym=X
Ene= 0.808000
Spin=Alpha
Occup=0
     1    5.747474266071e-04
     2   -1.044335603264e-03
     3    1.804356958046e-03
     4    2.026169342240e-03
     5   -3.378600705323e-02
     6    1.167719883631e-04
     7   -3.993075455070e-04
     8   -1.146912653017e-04
     9    3.629105424977e-02
    10    4.477318461541e-02
    11   -7.629585220308e-01
    12   -5.289964997485e-02
    13   -6.669451886339e-02
    14    1.127044852358e+00
    15    6.891683188519e-04
    16   -6.513182811233e-02
    17    6.188393461310e-02
    18    6.878180489917e-03
    19    8.491228361159e-04
    20    5.824957749955e-04
    21   -2.468491914651e-04
    22    1.684086194858e-03
    23    1.925095121718e-03
    24   -3.447741490377e-02
    25   -1.034922549545e-04
    26    6.376649592231e-05
    27    3.232008582119e-04
    28   -3.612014019320e-02
    29   -4.600164096035e-02
    30    7.630613853459e-01
    31    5.412158415885e-02
    32    6.734503148127e-02
    33   -1.127297367645e+00
    34    1.343124656339e-03
    35   -6.519427942082e-02
    36    6.178321487827e-02
    37    6.663364000467e-03
    38    9.794997717279e-04
    39   -5.809149636910e-04
    40    3.185520569935e-04
    41   -1.594756359280e-03
    42   -2.301174240257e-03
    43    3.521030490855e-02
    44   -5.865919120857e-04
    45    1.132077280283e-03
    46   -1.313838889057e-03
    47   -2.009996480584e-03
    48    3.366930462176e-02
Sym=X
Ene= 0.862602
Spin=Alpha
Occup=0
     1    1.338882113073e-02
     2   -1.099588026598e+00
     3    1.488959257282e-01
     4    5.634986474213e-02
     5    1.037639143491e-02
     6   -2.889045094270e-04
     7    3.397517107551e-03
     8   -3.051503856614e-03
     9   -4.109353394501e-01
    10   -4.302749175669e-01
    11   -4.465666288304e-02
    12    9.539972351430e-01
    13    1.004435041704e+00
    14    1.040403213279e-01
    15    3.501068591480e-04
    16    1.174742119262e-02
    17   -1.365666807866e-02
    18    2.363378678663e-01
    19    1.019787277919e-02
    20   -1.756662534583e-02
    21    1.112040802511e+00
    22    5.007811754814e-02
    23    1.531730782980e-01
    24    1.146355709492e-02
    25    6.973300312609e-04
    26    5.008323538206e-03
    27   -3.961186799649e-03
    28   -4.056264436836e-01
    29   -4.235909021684e-01
    30   -4.487665611590e-02
    31    9.451680916864e-01
    32    9.948440895229e-01
    33    1.049944433786e-01
    34   -2.195762407603e-03
    35   -1.158278251581e-02
    36    1.389737945997e-02
    37   -2.365801713241e-01
    38   -1.039865904096e-02
    39    1.303296507479e-02
    40   -1.101850889204e+00
    41    4.880568923279e-02
    42    1.516721060019e-01
    43    1.145057519066e-02
    44   -6.935708463740e-03
    45    1.091189116465e+00
    46    1.473178234902e-01
    47    5.565619842017e-02
    48    1.025067468229e-02
Sym=X
Ene= 0.936599
Spin=Alpha
Occup=0
     1   -1.119762363921e-01
     2    1.272790696255e+00
     3   -1.805209621234e-01
     4    6.232520180502e-03
     5   -8.230203068803e-03
     6   -5.640837802314e-04
     7    4.145394505957e-03
     8   -2.184393122242e-02
     9    4.656902920896e-01
    10    5.021680266833e-01
    11    5.182051985636e-02
    12   -1.453317085717e+00
    13   -1.552137094178e+00
    14   -1.608638568969e-01
    15    2.819031087099e-04
    16   -5.656590493005e-03
    17    6.825596896460e-03
    18   -1.180846902533e-01
    19    6.095028439595e-04
    20    1.138589398078e-01
    21   -1.285004615662e+00
    22    1.098573933513e-02
    23   -1.814465366194e-01
    24   -1.014832293673e-02
    25    1.042308035033e-03
    26    9.618861527302e-03
    27   -4.785878377046e-03
    28   -4.837046313382e-01
    29   -4.922614940396e-01
    30   -5.236788450115e-02
    31    1.500790039284e+00
    32    1.526178816543e+00
    33    1.623812087481e-01
    34   -3.854381634575e-03
    35   -5.925324047505e-03
    36    7.478520850630e-03
    37   -1.224476035475e-01
    38   -8.031797908285e-03
    39    1.167814384984e-01
    40   -1.282740968935e+00
    41   -1.445703645046e-02
    42    1.822339195023e-01
    43    1.023670701986e-02
    44   -1.119088860012e-01
    45    1.309736871524e+00
    46    1.837451067759e-01
    47   -4.142424003811e-03
    48    8.472526737163e-03
Sym=X
Ene= 0.972653
Spin=Alpha
Occup=0
     1   -6.573437171104e-02
     2    9.475118488732e-01
     3   -9.394386319052e-02
     4   -9.894498326018e-02
     5   -1.034815006912e-02
     6    2.522957212483e-02
     7    2.620421594856e-01
     8    5.036678731161e-01
     9    4.870209986863e-01
    10   -4.503169077908e-01
    11   -3.421010550061e-03
    12   -1.517986646594e+00
    13    1.393185533327e+00
    14    1.007061640297e-02
    15   -5.358875656111e-02
    16   -1.298449317691e-02
    17   -9.726713334168e-03
    18    1.286398918265e-02
    19   -3.024883153373e-01
    20   -6.337189817211e-02
    21    9.028111709932e-01
    22    9.588917154643e-02
    23    9.244792891724e-02
    24    1.002318876914e-02
    25   -2.480251366504e-02
    26   -2.281750722834e-01
    27   -5.600948869841e-01
    28    4.696427992189e-01
    29   -4.599484667989e-01
    30   -5.474361345965e-03
    31   -1.458309410160e+00
    32    1.439062084033e+00
    33    1.743865837399e-02
    34    5.168995950054e-02
    35    1.265137937505e-02
    36    9.982402656185e-03
    37   -1.679311641787e-02
    38    2.982374412033e-01
    39    6.274208809316e-02
    40   -9.282680455801e-01
    41    9.421944298139e-02
    42    9.507208277997e-02
    43    1.024880719765e-02
    44    6.577402491384e-02
    45   -8.847791489787e-01
    46   -8.544841011088e-02
    47   -9.738863124897e-02
    48   -9.743782726629e-03
[5D]

======= END OF MOLDEN-FORMATTED INPUT FILE =======


        *************************************************************
        *                                                           *
        *  Thank you very much for using Q-Chem.  Have a nice day.  *
        *                                                           *
        *************************************************************


