                  Welcome to Q-Chem
     A Quantum Leap Into The Future Of Chemistry


 Q-Chem 5.4 (devel), Q-Chem, Inc., Pleasanton, CA (2021)

 E. Epifanovsky,  A. T. B. Gilbert,  Xintian Feng,  Joonho Lee,  Yuezhi Mao,  
 N. Mardirossian,  P. Pokhilko,  A. White,  M. Wormit,  M. P. Coons,  
 A. L. Dempwolff,  Zhengting Gan,  D. Hait,  P. R. Horn,  L. D. Jacobson,  
 I. Kaliman,  J. Kussmann,  A. W. Lange,  Ka Un Lao,  D. S. Levine,  Jie Liu,  
 S. C. McKenzie,  A. F. Morrison,  K. Nanda,  F. Plasser,  D. R. Rehn,  
 M. L. Vidal,  Zhi-Qiang You,  Ying Zhu,  B. Alam,  B. Albrecht,  
 A. Aldossary,  E. Alguire,  J. H. Andersen,  D. Barton,  K. Begam,  A. Behn,  
 Y. A. Bernard,  E. J. Berquist,  H. Burton,  A. Carreras,  K. Carter-Fenk,  
 R. Chakraborty,  A. D. Chien,  K. D. Closser,  V. Cofer-Shabica,  
 S. Dasgupta,  Jia Deng,  M. de Wergifosse,  M. Diedenhofen,  Hainam Do,  
 S. Ehlert,  Po-Tung Fang,  S. Fatehi,  Qingguo Feng,  T. Friedhoff,  
 J. Gayvert,  Qinghui Ge,  G. Gidofalvi,  M. Goldey,  J. Gomes,  
 C. Gonzalez-Espinoza,  S. Gulania,  A. Gunina,  M. W. D. Hanson-Heine,  
 P. H. P. Harbach,  A. W. Hauser,  M. F. Herbst,  M. Hernandez Vera,  
 M. Hodecker,  Z. C. Holden,  S. Houck,  Xunkun Huang,  Kerwin Hui,  
 B. C. Huynh,  M. Ivanov,  Hyunjun Ji,  Hanjie Jiang,  B. Kaduk,  S. Kaehler,  
 K. Khistyaev,  Jaehoon Kim,  P. Klunzinger,  Z. Koczor-Benda,  
 Joong Hoon Koh,  D. Kosenkov,  L. Koulias,  T. Kowalczyk,  C. M. Krauter,  
 K. Kue,  A. Kunitsa,  T. Kus,  A. Landau,  K. V. Lawler,  D. Lefrancois,  
 S. Lehtola,  Rain Li,  Yi-Pei Li,  Jiashu Liang,  M. Liebenthal,  
 Hung-Hsuan Lin,  You-Sheng Lin,  Fenglai Liu,  Kuan-Yu Liu,  
 M. Loipersberger,  A. Luenser,  A. Manjanath,  P. Manohar,  E. Mansoor,  
 S. F. Manzer,  Shan-Ping Mao,  A. V. Marenich,  T. Markovich,  S. Mason,  
 S. A. Maurer,  P. F. McLaughlin,  M. F. S. J. Menger,  J.-M. Mewes,  
 S. A. Mewes,  P. Morgante,  J. W. Mullinax,  K. J. Oosterbaan,  G. Paran,  
 Alexander C. Paul,  Suranjan K. Paul,  F. Pavosevic,  Zheng Pei,  S. Prager,  
 E. I. Proynov,  E. Ramos,  B. Rana,  A. E. Rask,  A. Rettig,  R. M. Richard,  
 F. Rob,  E. Rossomme,  T. Scheele,  M. Scheurer,  M. Schneider,  
 N. Sergueev,  S. M. Sharada,  W. Skomorowski,  D. W. Small,  C. J. Stein,  
 Yu-Chuan Su,  E. J. Sundstrom,  Zhen Tao,  J. Thirman,  T. Tsuchimochi,  
 N. M. Tubman,  S. P. Veccham,  O. Vydrov,  J. Wenzel,  J. Witte,  A. Yamada,  
 Kun Yao,  S. Yeganeh,  S. R. Yost,  A. Zech,  Igor Ying Zhang,  Xing Zhang,  
 Yu Zhang,  D. Zuev,  A. Aspuru-Guzik,  A. T. Bell,  N. A. Besley,  
 K. B. Bravaya,  B. R. Brooks,  D. Casanova,  Jeng-Da Chai,  S. Coriani,  
 C. J. Cramer,  A. E. DePrince, III,  R. A. DiStasio Jr.,  A. Dreuw,  
 B. D. Dunietz,  T. R. Furlani,  W. A. Goddard III,  S. Grimme,  
 S. Hammes-Schiffer,  T. Head-Gordon,  W. J. Hehre,  Chao-Ping Hsu,  
 T.-C. Jagau,  Yousung Jung,  A. Klamt,  Jing Kong,  D. S. Lambrecht,  
 WanZhen Liang,  N. J. Mayhall,  C. W. McCurdy,  J. B. Neaton,  
 C. Ochsenfeld,  J. A. Parkhill,  R. Peverati,  V. A. Rassolov,  Yihan Shao,  
 L. V. Slipchenko,  T. Stauch,  R. P. Steele,  J. E. Subotnik,  
 A. J. W. Thom,  A. Tkatchenko,  D. G. Truhlar,  T. Van Voorhis,  
 T. A. Wesolowski,  K. B. Whaley,  H. L. Woodcock III,  P. M. Zimmerman,  
 S. Faraji,  P. M. W. Gill,  M. Head-Gordon,  J. M. Herbert,  A. I. Krylov

 Additional authors for Version 5.4.1: 
 S. Kotaru,  Shaozhi Li,  Xiangyuan Li,  F. Matz,  A. Molle,  Haisheng Ren,  
 Yingli Su,  Hung-Yi Tsai,  C. Utku,  Fang Wang

 Contributors to earlier versions of Q-Chem not listed above: 
 R. D. Adamson,  B. Austin,  R. Baer,  J. Baker,  G. J. O. Beran,  
 K. Brandhorst,  S. T. Brown,  E. F. C. Byrd,  A. K. Chakraborty,  
 G. K. L. Chan,  Chun-Min Chang,  Yunqing Chen,  C.-L. Cheng,  
 Siu Hung Chien,  D. M. Chipman,  D. L. Crittenden,  H. Dachsel,  
 R. J. Doerksen,  A. D. Dutoi,  R. G. Edgar,  J. Fosso-Tande,  
 L. Fusti-Molnar,  D. Ghosh,  A. Ghysels,  A. Golubeva-Zadorozhnaya,  
 J. Gonthier,  M. S. Gordon,  S. R. Gwaltney,  G. Hawkins,  J. E. Herr,  
 A. Heyden,  S. Hirata,  E. G. Hohenstein,  G. Kedziora,  F. J. Keil,  
 C. Kelley,  Jihan Kim,  R. A. King,  R. Z. Khaliullin,  P. P. Korambath,  
 W. Kurlancheek,  A. Laurent,  A. M. Lee,  M. S. Lee,  S. V. Levchenko,  
 Ching Yeh Lin,  D. Liotard,  E. Livshits,  R. C. Lochan,  I. Lotan,  
 L. A. Martinez-Martinez,  P. E. Maslen,  N. Nair,  D. P. O'Neill,  
 D. Neuhauser,  E. Neuscamman,  C. M. Oana,  R. Olivares-Amaya,  R. Olson,  
 T. M. Perrine,  B. Peters,  P. A. Pieniazek,  A. Prociuk,  Y. M. Rhee,  
 J. Ritchie,  M. A. Rohrdanz,  E. Rosta,  N. J. Russ,  H. F. Schaefer III,  
 M. W. Schmidt,  N. E. Schultz,  S. Sharma,  N. Shenvi,  C. D. Sherrill,  
 A. C. Simmonett,  A. Sodt,  T. Stein,  D. Stuck,  K. S. Thanthiriwatte,  
 V. Vanovschi,  L. Vogt,  Tao Wang,  A. Warshel,  M. A. Watson,  
 C. F. Williams,  Q. Wu,  X. Xu,  Jun Yang,  W. Zhang,  Yan Zhao

 Please cite Q-Chem as follows:
 Y. Shao et al., Mol. Phys. 113, 184-215 (2015)
 DOI: 10.1080/00268976.2014.952696

 Q-Chem 5.4.1 for Intel X86 EM64T Linux

 Parts of Q-Chem use Armadillo 9.800.1 (Horizon Scraper).
 http://arma.sourceforge.net/

 Q-Chem begins on Thu Nov 17 15:39:40 2022  

 Host: cpu186.baobab
0

     Scratch files written to /scratch/fum/qchem59317//
 Processing $rem in /home/share/wesolowski/qc5.aug2021.FDE/config/preferences:
 Processing $rem in /home/fum/.qchemrc:

 Checking the input file for inconsistencies... 	...done.

--------------------------------------------------------------
User input:
--------------------------------------------------------------
$comment
generated from CCJob.Templates
$end

$rem
sym_ignore = true
method = adc(2)
ee_states = 10
basis = cc-pVDZ
mem_static = 1024
mem_total = 40000
adc_davidson_maxiter = 900
adc_davidson_conv = 6
adc_print = 3
adc_prop_es = true
adc_prop_es2es = true
adc_prop_tpa = true
molden_format = True
state_analysis = true
print_orbitals = 15
gen_scfman = false
fde_export_density = true
fde_details = 3
$end

$molecule
0 1
H -0.0348278765 -0.2442097827 0.0636489606
C -1.0765972949 -0.5242748755 -0.0023551776
H -1.313264467 -1.5767591607 -0.0757276926
C -2.043634118 0.4026884087 0.0061254933
H -1.8137616575 1.4459188338 0.0804456828
H -3.085977293 0.114931858 -0.0593381042                     
$end
--------------------------------------------------------------
 ----------------------------------------------------------------
             Standard Nuclear Orientation (Angstroms)
    I     Atom           X                Y                Z
 ----------------------------------------------------------------
    1      H      -0.0348278765    -0.2442097827     0.0636489606
    2      C      -1.0765972949    -0.5242748755    -0.0023551776
    3      H      -1.3132644670    -1.5767591607    -0.0757276926
    4      C      -2.0436341180     0.4026884087     0.0061254933
    5      H      -1.8137616575     1.4459188338     0.0804456828
    6      H      -3.0859772930     0.1149318580    -0.0593381042
 ----------------------------------------------------------------
 Nuclear Repulsion Energy =          33.36079536 hartrees
 There are        8 alpha and        8 beta electrons
 Requested basis set is cc-pVDZ
 There are 24 shells and 48 basis functions
 Total memory of 40000 MB is distributed as follows: 
   MEM_STATIC is set to 1024 MB
   QALLOC/CCMAN JOB total memory use is  38976 MB
 Warning: actual memory use might exceed 40000 MB

 Total QAlloc Memory Limit  40000 MB
 Mega-Array Size      1001 MB
 MEM_STATIC part      1024 MB

                       Distance Matrix (Angstroms)
             H (  1)   C (  2)   H (  3)   C (  4)   H (  5)
   C (  2)  1.080776
   H (  3)  1.851895  1.081258
   C (  4)  2.111182  1.339587  2.111481
   H (  5)  2.453859  2.105215  3.067812  1.070838
   H (  6)  3.074674  2.109370  2.450428  1.083314  1.846510

 A cutoff of  1.0D-11 yielded    300 shell pairs
 There are      1220 function pairs (      1329 Cartesian)
 Smallest overlap matrix eigenvalue = 4.92E-03

 Scale SEOQF with 1.000000e-01/1.000000e-01/1.000000e+00

 Standard Electronic Orientation quadrupole field applied
 Nucleus-field energy     =     0.0000000022 hartrees
 Guess from superposition of atomic densities
 Warning:  Energy on first SCF cycle will be non-variational
 SAD guess density has 16.000000 electrons
 A restricted Hartree-Fock SCF calculation will be
 performed using Pulay DIIS extrapolation
 SCF converges when DIIS error is below 1.0E-08
 using 10 threads for integral computing
 -------------------------------------------------------
 OpenMP Integral computing Module                
 Release: version 1.0, May 2013, Q-Chem Inc. Pittsburgh 
 -------------------------------------------------------
 ---------------------------------------
  Cycle       Energy         DIIS Error
 ---------------------------------------
    1     -78.4300834475      1.01E-01
    2     -78.0173717298      7.19E-03
    3     -78.0379597945      1.83E-03
    4     -78.0394357451      5.63E-04
    5     -78.0395530803      5.84E-05
    6     -78.0395549655      1.04E-05
    7     -78.0395550310      3.88E-06
    8     -78.0395550368      1.07E-06
    9     -78.0395550374      1.42E-07
   10     -78.0395550374      4.42E-08
   11     -78.0395550374      8.30E-09 Convergence criterion met
 ---------------------------------------
 SCF time:  CPU 2.13 s  wall 2.43 s
 SCF   energy in the final basis set = -78.03955504
 Total energy in the final basis set = -78.03955504
Exporting Density Matrix to file 'Densmat_SCF.txt'.
Export successful
================================================================================
|                                                                              |
|                                 A D C  M A N                                 |
|                                                                              |
 ------------------------------------------------------------------------------ 
|                                                                              |
| Components:                                                                  |
|                                                                              |
| - libvmm - 1.3-trunk                                                         |
|   Authors:                                                                   |
|   Evgeny Epifanovsky, Ilya Kaliman                                           |
|                                                                              |
| - libtensor - 2.5-trunk                                                      |
|   Authors:                                                                   |
|   Evgeny Epifanovsky, Michael Wormit, Dmitry Zuev, Sam Manzer,               |
|   Ilya Kaliman                                                               |
|                                                                              |
| - libwfa - 1.1-trunk                                                         |
|   Authors:                                                                   |
|   Felix Plasser, Stefanie Mewes (Baeppler), Benjamin Thomitzni,              |
|   Michael Wormit, Feng Chen, Anna I. Krylov, Pavel Pokhilko                  |
|                                                                              |
| - libadc - 1.1-trunk                                                         |
|   Authors:                                                                   |
|   Michael Wormit, Adrian L. Dempwolff, Philipp H. P. Harbach,                |
|   Caroline Krauter, Dirk Rehn, Matthias Schneider, Jan Wenzel                |
|                                                                              |
| - adcman - 2.6-trunk                                                         |
|   Authors:                                                                   |
|   Michael Wormit, Adrian L. Dempwolff, Philipp H. P. Harbach,                |
|   Caroline Krauter, Daniel Lefrancois, Jan-Michael Mewes, Dirk Rehn,         |
|   Matthias Schneider, Jan Wenzel, Andreas Dreuw                              |
|                                                                              |
| Authors of earlier versions of ADCMAN:                                       |
| Andreas Dreuw, Jan Hendrik Starcke, Dirk Rehn, Michael Wormit                |
|                                                                              |
================================================================================

 Created directory /scratch/fum/qchem59317/plots
  Import QC data ...  CPU 0.00 s  wall 0.00 s

 Alpha MOs, Restricted
 -- Occupied --                  
-11.236 -11.234  -1.031  -0.791  -0.642  -0.580  -0.507  -0.372
  1 A     2 A     3 A     4 A     5 A     6 A     7 A     8 A                  
 -- Virtual --                   
  0.167   0.204   0.234   0.240   0.303   0.460   0.578   0.615
  9 A    10 A    11 A    12 A    13 A    14 A    15 A    16 A                  
  0.691   0.710   0.783   0.807   0.864   0.936   0.969   1.010
 17 A    18 A    19 A    20 A    21 A    22 A    23 A    24 A                  
  1.131   1.232   1.255   1.264   1.292   1.604   1.725   1.749
 25 A    26 A    27 A    28 A    29 A    30 A    31 A    32 A                  
  1.819   1.857   1.865   1.922   1.976   1.981   2.217   2.254
 33 A    34 A    35 A    36 A    37 A    38 A    39 A    40 A                  
  2.376   2.456   2.504   2.628   2.727   2.823   3.143   3.394
 41 A    42 A    43 A    44 A    45 A    46 A    47 A    48 A                  

 Beta MOs, Restricted
 -- Occupied --                  
-11.236 -11.234  -1.031  -0.791  -0.642  -0.580  -0.507  -0.372
  1 A     2 A     3 A     4 A     5 A     6 A     7 A     8 A                  
 -- Virtual --                   
  0.167   0.204   0.234   0.240   0.303   0.460   0.578   0.615
  9 A    10 A    11 A    12 A    13 A    14 A    15 A    16 A                  
  0.691   0.710   0.783   0.807   0.864   0.936   0.969   1.010
 17 A    18 A    19 A    20 A    21 A    22 A    23 A    24 A                  
  1.131   1.232   1.255   1.264   1.292   1.604   1.725   1.749
 25 A    26 A    27 A    28 A    29 A    30 A    31 A    32 A                  
  1.819   1.857   1.865   1.922   1.976   1.981   2.217   2.254
 33 A    34 A    35 A    36 A    37 A    38 A    39 A    40 A                  
  2.376   2.456   2.504   2.628   2.727   2.823   3.143   3.394
 41 A    42 A    43 A    44 A    45 A    46 A    47 A    48 A                  
  Import AO data ...  CPU 0.00 s  wall 0.02 s
  Using point group: C1
  Irreducible representations in point group: A
  Molecular orbitals: 
  Occupied MOs:
  Block   0:   1 (  A) A   2 (  A) A   3 (  A) A   4 (  A) A   5 (  A) A
                  -11.24      -11.23      -1.031      -0.791     -0.6415
               6 (  A) A   7 (  A) A   8 (  A) A
                 -0.5803     -0.5066     -0.3723
  Block   1:   1 (  A) B   2 (  A) B   3 (  A) B   4 (  A) B   5 (  A) B
                  -11.24      -11.23      -1.031      -0.791     -0.6415
               6 (  A) B   7 (  A) B   8 (  A) B
                 -0.5803     -0.5066     -0.3723
  Virtual MOs:
  Block   0:   9 (  A) A  10 (  A) A  11 (  A) A  12 (  A) A  13 (  A) A
                  0.1668      0.2036      0.2335      0.2396      0.3029
              14 (  A) A  15 (  A) A  16 (  A) A  17 (  A) A  18 (  A) A
                  0.4604      0.5784      0.6154      0.6906      0.7095
              19 (  A) A  20 (  A) A  21 (  A) A  22 (  A) A
                   0.783      0.8072      0.8638      0.9357
  Block   1:  23 (  A) A  24 (  A) A  25 (  A) A  26 (  A) A  27 (  A) A
                  0.9691        1.01       1.131       1.232       1.255
              28 (  A) A  29 (  A) A  30 (  A) A  31 (  A) A  32 (  A) A
                   1.264       1.292       1.604       1.725       1.749
              33 (  A) A  34 (  A) A  35 (  A) A  36 (  A) A
                   1.819       1.857       1.865       1.922
  Block   2:  37 (  A) A  38 (  A) A  39 (  A) A  40 (  A) A  41 (  A) A
                   1.976       1.981       2.217       2.254       2.376
              42 (  A) A  43 (  A) A  44 (  A) A  45 (  A) A  46 (  A) A
                   2.456       2.504       2.628       2.727       2.823
              47 (  A) A  48 (  A) A
                   3.143       3.394
  Block   3:   9 (  A) B  10 (  A) B  11 (  A) B  12 (  A) B  13 (  A) B
                  0.1668      0.2036      0.2335      0.2396      0.3029
              14 (  A) B  15 (  A) B  16 (  A) B  17 (  A) B  18 (  A) B
                  0.4604      0.5784      0.6154      0.6906      0.7095
              19 (  A) B  20 (  A) B  21 (  A) B  22 (  A) B
                   0.783      0.8072      0.8638      0.9357
  Block   4:  23 (  A) B  24 (  A) B  25 (  A) B  26 (  A) B  27 (  A) B
                  0.9691        1.01       1.131       1.232       1.255
              28 (  A) B  29 (  A) B  30 (  A) B  31 (  A) B  32 (  A) B
                   1.264       1.292       1.604       1.725       1.749
              33 (  A) B  34 (  A) B  35 (  A) B  36 (  A) B
                   1.819       1.857       1.865       1.922
  Block   5:  37 (  A) B  38 (  A) B  39 (  A) B  40 (  A) B  41 (  A) B
                   1.976       1.981       2.217       2.254       2.376
              42 (  A) B  43 (  A) B  44 (  A) B  45 (  A) B  46 (  A) B
                   2.456       2.504       2.628       2.727       2.823
              47 (  A) B  48 (  A) B
                   3.143       3.394
  Import MO data ...  CPU 0.01 s  wall 0.02 s
  Import HF data ...  CPU 0.19 s  wall 0.08 s
  Import 2e integrals ...  CPU 1.27 s  wall 0.23 s

--------------------------------------------------------------------------------
                                   HF Summary                                   
--------------------------------------------------------------------------------
  Energy:                                                  -78.0395550374 a.u.
  Dip. moment [a.u.]:                  [   0.000592,    0.001584,    0.000908]
  Total dipole [Debye]:                                               0.004878
  <r^2> [a.u.]:                        [ 175.347271,   35.061370,   11.639642]
  Total <r^2> [a.u.]:                                               222.048283
--------------------------------------------------------------------------------
  HF properties ...  CPU 0.02 s  wall 0.01 s
  MP(1) calculation ...  CPU 0.01 s  wall 0.01 s
  N^6 prerequesite intermediates ...  CPU 0.60 s  wall 0.10 s
  Difference density matrix of state mp2_gs printed to ASCII file 'State_mp2_gs_Difference.txt'
Exporting MP density matrix to file 'Densmat_MP.txt'.
Export successful
  Total density matrix of state mp2_gs printed to ASCII file 'State_mp2_gs_Total.txt'
Exporting MP density matrix to file 'Densmat_MP.txt'.
Export successful

--------------------------------------------------------------------------------
                                 MP(2) Summary                                  
--------------------------------------------------------------------------------
  MP energy contribution:                                   -0.2800078005 a.u.
  Total energy:                                            -78.3195628379 a.u.
  Dip. moment [a.u.]:                  [   0.000286,    0.001266,    0.000864]
  Total dipole [Debye]:                                               0.003963
  <r^2> [a.u.]:                        [ 175.389145,   35.103725,   11.467263]
  Total <r^2> [a.u.]:                                               221.960133

  Density matrix analysis:
  ------------------------
  NOs
    Occupation of frontier NOs:
       0.0459   1.9377
    Number of electrons: 16.000000
    Number of unpaired electrons: n_u =  0.40476, n_u,nl =  0.04557
    NO participation ratio (PR_NO): 13.792877
  
  
  Mulliken Population Analysis
  Atom      Charge (e)              h+              e-           Del q
  --------------------------------------------------------------------
   1 H        0.051077        0.014061       -0.011204        0.002857
   2 C       -0.103892        0.093903       -0.099544       -0.005641
   3 H        0.051268        0.014044       -0.011208        0.002836
   4 C       -0.098650        0.093350       -0.099282       -0.005932
   5 H        0.048834        0.014181       -0.011176        0.003005
   6 H        0.051364        0.014059       -0.011185        0.002874
  --------------------------------------------------------------------
  Sum:       -0.000000        0.243598       -0.243598        0.000000
  
  Multipole moment analysis of the density matrix
    Molecular charge:                      -0.000000
    Number of electrons:                   16.000000
      Center of electronic charge [Ang]: [ -1.560586,  -0.061894,   0.001950]
    Total nuclear charge:                  16.000000
      Center of nuclear charge [Ang]:    [ -1.560576,  -0.061852,   0.001978]
    Dipole moment [D]:                     0.003963
      Cartesian components [D]:          [  0.000727,   0.003217,   0.002197]
    RMS size of the density [Ang]:         1.202263
      Cartesian components [Ang]:        [  0.796364,   0.781375,   0.447989]
  
  Exciton analysis of the difference density matrix
    <r_h> [Ang]:                  [ -1.560605,  -0.063374,   0.001734]
    <r_e> [Ang]:                  [ -1.559940,  -0.062684,   0.001829]
    |<r_e - r_h>| [Ang]:            0.000964
    Hole size [Ang]:                1.395809
      Cartesian components [Ang]: [  0.847559,   0.834172,   0.730810]
    Electron size [Ang]:            1.359821
      Cartesian components [Ang]: [  0.876681,   0.862914,   0.579590]
--------------------------------------------------------------------------------
  MP(2) calculation ...  CPU 0.21 s  wall 0.16 s
  Start ADC(2)-s ...  CPU 0.01 s  wall 0.01 s
  ADC(2) intermediates ...  CPU 0.03 s  wall 0.01 s
  Starting Davidson for singlet states of irrep A ... 
--------------------------------------------------------------------------------
   It NVec Conv  Avg. Norm  Max. Norm  Conv. states           Remark
--------------------------------------------------------------------------------
        10    0  1.329e-01  4.677e-01  0.4105 n n n n n n n n Guess.
    1   20    0  2.313e-02  1.117e-01  0.3241 n n n n n n n n 
    2   30    0  5.945e-03  2.704e-02  0.3193 n n n n n n n n 
    3   40    0  2.119e-03  1.522e-02  0.3189 n n n n n n n n 
    4   50    0  6.461e-04  4.905e-03  0.3189 n n n n n n n n 
    5   20    0  2.723e-04  1.954e-03  0.3189 n n n n n n n n Subspace collapsed.
    6   30    0  1.884e-04  1.691e-03  0.3189 n n n n n n n n 
    7   40    0  1.660e-04  1.596e-03  0.3189 n n n n n n n n 
    8   50    0  1.213e-04  1.161e-03  0.3189 n n n n n n n n 
    9   20    1  7.712e-05  7.063e-04  0.3189 n y n n n n n n Subspace collapsed.
   10   30    3  8.212e-05  8.005e-04  0.3189 n y y y n n n n 
   11   40    5  9.409e-05  9.367e-04  0.3189 n y y y y y n n 
   12   50    5  8.897e-05  8.889e-04  0.3189 n y y y y y n n 
   13   20    6  4.686e-05  4.681e-04  0.3189 y y y y y y n n Subspace collapsed.
   14   30    6  3.460e-05  3.456e-04  0.3189 y y y y y y n n 
   15   40    6  1.957e-05  1.951e-04  0.3189 y y y y y y n n 
   16   50    6  2.952e-05  2.951e-04  0.3189 y y y y y y n n 
   17   20    7  1.407e-05  1.406e-04  0.3189 y y y y y y n y Subspace collapsed.
   18   30    7  2.106e-05  2.106e-04  0.3189 y y y y y y n y 
   19   40    7  2.130e-05  2.130e-04  0.3189 y y y y y y n y 
   20   50    8  2.536e-05  2.536e-04  0.3189 y y y y y y y y 
   21   20    9  1.127e-05  1.127e-04  0.3189 y y y y y y y y Subspace collapsed.
   22   30    9  1.051e-05  1.051e-04  0.3189 y y y y y y y y 
   23   32    9  1.020e-05  1.020e-04  0.3189 y y y y y y y y 
   24   34    9  9.253e-06  9.253e-05  0.3189 y y y y y y y y 
   25   35    9  9.350e-06  9.349e-05  0.3189 y y y y y y y y 
   26   36    9  9.440e-06  9.440e-05  0.3189 y y y y y y y y 
   27   37    9  9.770e-06  9.769e-05  0.3189 y y y y y y y y 
   28   37    9  9.770e-06  9.769e-05  0.3189 y y y y y y y y 
   29   47    9  8.955e-06  8.955e-05  0.3189 y y y y y y y y 
   30   50    9  8.670e-06  8.670e-05  0.3189 y y y y y y y y 
   31   16    9  5.214e-06  5.214e-05  0.3189 y y y y y y y y Subspace collapsed.
   32   22    9  5.374e-06  5.374e-05  0.3189 y y y y y y y y 
   33   27    9  4.083e-06  4.083e-05  0.3189 y y y y y y y y 
   34   32    9  5.403e-06  5.403e-05  0.3189 y y y y y y y y 
   35   32    9  5.403e-06  5.403e-05  0.3189 y y y y y y y y 
   36   32    9  5.403e-06  5.403e-05  0.3189 y y y y y y y y 
   37   42    9  5.145e-06  5.145e-05  0.3189 y y y y y y y y 
   38   46    9  3.456e-06  3.456e-05  0.3189 y y y y y y y y 
   39   50    9  2.118e-06  2.118e-05  0.3189 y y y y y y y y 
   40   14    9  9.152e-07  9.152e-06  0.3189 y y y y y y y y Subspace collapsed.
   41   18    9  7.282e-07  7.282e-06  0.3189 y y y y y y y y 
   42   22    9  3.796e-07  3.796e-06  0.3189 y y y y y y y y 
   43   26    9  3.039e-07  3.039e-06  0.3189 y y y y y y y y 
   44   30    9  2.611e-07  2.611e-06  0.3189 y y y y y y y y 
   45   34    9  1.669e-07  1.669e-06  0.3189 y y y y y y y y 
   46   38    9  1.936e-07  1.936e-06  0.3189 y y y y y y y y 
   47   42    9  1.693e-07  1.693e-06  0.3189 y y y y y y y y 
   48   46    9  1.547e-07  1.547e-06  0.3189 y y y y y y y y 
   49   50   10  6.866e-08  6.866e-07  0.3189 y y y y y y y y Converged.
--------------------------------------------------------------------------------
  Davidson Summary: 
 ------------------------------------------------------------
  State  0: excitation energy =   0.3189 a.u.   (converged)
  State  1: excitation energy =   0.3328 a.u.   (converged)
  State  2: excitation energy =   0.3359 a.u.   (converged)
  State  3: excitation energy =   0.3613 a.u.   (converged)
  State  4: excitation energy =   0.3735 a.u.   (converged)
  State  5: excitation energy =   0.3853 a.u.   (converged)
  State  6: excitation energy =   0.4262 a.u.   (converged)
  State  7: excitation energy =   0.4458 a.u.   (converged)
  State  8: excitation energy =   0.4550 a.u.   (converged)
  State  9: excitation energy =   0.4669 a.u.   (converged)
 ------------------------------------------------------------

  Singlet states of irrep A ...  CPU 221.19 s  wall 65.56 s
  TDMs ...  CPU 1.10 s  wall 0.46 s
  SDMs ...  CPU 3.12 s  wall 0.88 s
  Starting TPA DIIS iterations ... 
------------------------------------ 
   It     Res. Norm  Remark
------------------------------------
                       Guess.
    1     4.465e+00  
    2     5.951e+00  
    3     1.089e+00  
    4     2.634e-01  
    5     6.796e-02  
    6     2.749e-02  
    7     8.399e-03  
    8     1.453e-03  
    9     5.343e-04  
   10     9.068e-05  
   11     2.829e-05  
   12     4.411e-06  
   13     1.403e-06  
   14     4.333e-07  Converged.
   ... Converged in 14 steps (norm: 4.33256e-07)
------------------------------------
  Starting TPA DIIS iterations ... 
------------------------------------ 
   It     Res. Norm  Remark
------------------------------------
                       Guess.
    1     4.298e+00  
    2     5.714e+00  
    3     1.041e+00  
    4     2.579e-01  
    5     6.739e-02  
    6     2.690e-02  
    7     8.213e-03  
    8     1.415e-03  
    9     5.234e-04  
   10     8.835e-05  
   11     2.740e-05  
   12     4.273e-06  
   13     1.357e-06  
   14     4.193e-07  Converged.
   ... Converged in 14 steps (norm: 4.19255e-07)
------------------------------------
  Starting TPA DIIS iterations ... 
------------------------------------ 
   It     Res. Norm  Remark
------------------------------------
                       Guess.
    1     6.883e-01  
    2     4.838e-01  
    3     1.708e-01  
    4     5.916e-02  
    5     1.842e-02  
    6     6.670e-03  
    7     1.041e-03  
    8     4.386e-04  
    9     1.291e-04  
   10     2.344e-05  
   11     9.590e-06  
   12     3.225e-06  
   13     2.082e-06  
   14     8.669e-07  Converged.
   ... Converged in 14 steps (norm: 8.66903e-07)
------------------------------------
  Starting TPA DIIS iterations ... 
------------------------------------ 
   It     Res. Norm  Remark
------------------------------------
                       Guess.
    1     4.821e+00  
    2     6.594e+00  
    3     1.189e+00  
    4     2.993e-01  
    5     7.846e-02  
    6     3.205e-02  
    7     9.767e-03  
    8     1.686e-03  
    9     6.256e-04  
   10     1.068e-04  
   11     3.376e-05  
   12     5.312e-06  
   13     1.708e-06  
   14     5.273e-07  Converged.
   ... Converged in 14 steps (norm: 5.27258e-07)
------------------------------------
  Starting TPA DIIS iterations ... 
------------------------------------ 
   It     Res. Norm  Remark
------------------------------------
                       Guess.
    1     4.640e+00  
    2     6.332e+00  
    3     1.136e+00  
    4     2.928e-01  
    5     7.782e-02  
    6     3.136e-02  
    7     9.549e-03  
    8     1.642e-03  
    9     6.129e-04  
   10     1.041e-04  
   11     3.267e-05  
   12     5.149e-06  
   13     1.649e-06  
   14     5.110e-07  Converged.
   ... Converged in 14 steps (norm: 5.10986e-07)
------------------------------------
  Starting TPA DIIS iterations ... 
------------------------------------ 
   It     Res. Norm  Remark
------------------------------------
                       Guess.
    1     7.027e-01  
    2     5.048e-01  
    3     1.828e-01  
    4     6.867e-02  
    5     2.015e-02  
    6     7.416e-03  
    7     1.204e-03  
    8     5.316e-04  
    9     1.601e-04  
   10     2.632e-05  
   11     1.153e-05  
   12     3.960e-06  
   13     2.721e-06  
   14     1.153e-06  
   15     4.494e-07  Converged.
   ... Converged in 15 steps (norm: 4.49439e-07)
------------------------------------
  Starting TPA DIIS iterations ... 
------------------------------------ 
   It     Res. Norm  Remark
------------------------------------
                       Guess.
    1     4.906e+00  
    2     6.751e+00  
    3     1.213e+00  
    4     3.082e-01  
    5     8.106e-02  
    6     3.319e-02  
    7     1.011e-02  
    8     1.743e-03  
    9     6.483e-04  
   10     1.109e-04  
   11     3.514e-05  
   12     5.539e-06  
   13     1.786e-06  
   14     5.511e-07  Converged.
   ... Converged in 14 steps (norm: 5.5115e-07)
------------------------------------
  Starting TPA DIIS iterations ... 
------------------------------------ 
   It     Res. Norm  Remark
------------------------------------
                       Guess.
    1     4.722e+00  
    2     6.483e+00  
    3     1.159e+00  
    4     3.014e-01  
    5     8.041e-02  
    6     3.248e-02  
    7     9.880e-03  
    8     1.699e-03  
    9     6.351e-04  
   10     1.080e-04  
   11     3.400e-05  
   12     5.370e-06  
   13     1.723e-06  
   14     5.344e-07  Converged.
   ... Converged in 14 steps (norm: 5.34369e-07)
------------------------------------
  Starting TPA DIIS iterations ... 
------------------------------------ 
   It     Res. Norm  Remark
------------------------------------
                       Guess.
    1     7.060e-01  
    2     5.097e-01  
    3     1.856e-01  
    4     7.107e-02  
    5     2.055e-02  
    6     7.601e-03  
    7     1.246e-03  
    8     5.554e-04  
    9     1.680e-04  
   10     2.688e-05  
   11     1.202e-05  
   12     4.152e-06  
   13     2.891e-06  
   14     1.231e-06  
   15     4.766e-07  Converged.
   ... Converged in 15 steps (norm: 4.76572e-07)
------------------------------------
  Starting TPA DIIS iterations ... 
------------------------------------ 
   It     Res. Norm  Remark
------------------------------------
                       Guess.
    1     5.709e+00  
    2     8.261e+00  
    3     1.436e+00  
    4     3.965e-01  
    5     1.069e-01  
    6     4.457e-02  
    7     1.347e-02  
    8     2.314e-03  
    9     8.757e-04  
   10     1.513e-04  
   11     4.920e-05  
   12     7.858e-06  
   13     2.603e-06  
   14     8.008e-07  Converged.
   ... Converged in 14 steps (norm: 8.00784e-07)
------------------------------------
  Starting TPA DIIS iterations ... 
------------------------------------ 
   It     Res. Norm  Remark
------------------------------------
                       Guess.
    1     5.493e+00  
    2     7.932e+00  
    3     1.373e+00  
    4     3.870e-01  
    5     1.061e-01  
    6     4.362e-02  
    7     1.317e-02  
    8     2.254e-03  
    9     8.579e-04  
   10     1.474e-04  
   11     4.756e-05  
   12     7.635e-06  
   13     2.502e-06  
   14     7.805e-07  Converged.
   ... Converged in 14 steps (norm: 7.80538e-07)
------------------------------------
  Starting TPA DIIS iterations ... 
------------------------------------ 
   It     Res. Norm  Remark
------------------------------------
                       Guess.
    1     7.342e-01  
    2     5.534e-01  
    3     2.115e-01  
    4     9.569e-02  
    5     2.432e-02  
    6     9.442e-03  
    7     1.673e-03  
    8     7.946e-04  
    9     2.468e-04  
   10     3.063e-05  
   11     1.719e-05  
   12     6.285e-06  
   13     4.825e-06  
   14     2.152e-06  
   15     7.455e-07  Converged.
   ... Converged in 15 steps (norm: 7.45487e-07)
------------------------------------
  Starting TPA DIIS iterations ... 
------------------------------------ 
   It     Res. Norm  Remark
------------------------------------
                       Guess.
    1     6.176e+00  
    2     9.169e+00  
    3     1.565e+00  
    4     4.515e-01  
    5     1.230e-01  
    6     5.175e-02  
    7     1.557e-02  
    8     2.668e-03  
    9     1.019e-03  
   10     1.767e-04  
   11     5.823e-05  
   12     9.345e-06  
   13     3.147e-06  
   14     9.679e-07  Converged.
   ... Converged in 14 steps (norm: 9.67891e-07)
------------------------------------
  Starting TPA DIIS iterations ... 
------------------------------------ 
   It     Res. Norm  Remark
------------------------------------
                       Guess.
    1     5.941e+00  
    2     8.803e+00  
    3     1.496e+00  
    4     4.401e-01  
    5     1.220e-01  
    6     5.065e-02  
    7     1.522e-02  
    8     2.599e-03  
    9     9.982e-04  
   10     1.722e-04  
   11     5.628e-05  
   12     9.096e-06  
   13     3.016e-06  
   14     9.473e-07  Converged.
   ... Converged in 14 steps (norm: 9.47315e-07)
------------------------------------
  Starting TPA DIIS iterations ... 
------------------------------------ 
   It     Res. Norm  Remark
------------------------------------
                       Guess.
    1     7.485e-01  
    2     5.770e-01  
    3     2.260e-01  
    4     1.116e-01  
    5     2.653e-02  
    6     1.060e-02  
    7     1.954e-03  
    8     9.380e-04  
    9     2.942e-04  
   10     3.309e-05  
   11     2.069e-05  
   12     7.826e-06  
   13     6.251e-06  
   14     2.843e-06  
   15     9.235e-07  Converged.
   ... Converged in 15 steps (norm: 9.23499e-07)
------------------------------------
  Starting TPA DIIS iterations ... 
------------------------------------ 
   It     Res. Norm  Remark
------------------------------------
                       Guess.
    1     6.689e+00  
    2     1.019e+01  
    3     1.706e+00  
    4     5.148e-01  
    5     1.415e-01  
    6     6.007e-02  
    7     1.799e-02  
    8     3.074e-03  
    9     1.185e-03  
   10     2.062e-04  
   11     6.877e-05  
   12     1.108e-05  
   13     3.796e-06  
   14     1.171e-06  
   15     4.924e-07  Converged.
   ... Converged in 15 steps (norm: 4.92404e-07)
------------------------------------
  Starting TPA DIIS iterations ... 
------------------------------------ 
   It     Res. Norm  Remark
------------------------------------
                       Guess.
    1     6.433e+00  
    2     9.783e+00  
    3     1.630e+00  
    4     5.012e-01  
    5     1.404e-01  
    6     5.880e-02  
    7     1.757e-02  
    8     2.994e-03  
    9     1.161e-03  
   10     2.009e-04  
   11     6.647e-05  
   12     1.081e-05  
   13     3.629e-06  
   14     1.153e-06  
   15     3.522e-07  Converged.
   ... Converged in 15 steps (norm: 3.52231e-07)
------------------------------------
  Starting TPA DIIS iterations ... 
------------------------------------ 
   It     Res. Norm  Remark
------------------------------------
                       Guess.
    1     7.630e-01  
    2     6.017e-01  
    3     2.415e-01  
    4     1.304e-01  
    5     2.902e-02  
    6     1.193e-02  
    7     2.288e-03  
    8     1.090e-03  
    9     3.458e-04  
   10     3.735e-05  
   11     2.497e-05  
   12     9.800e-06  
   13     8.102e-06  
   14     3.731e-06  
   15     1.157e-06  
   16     5.434e-07  Converged.
   ... Converged in 16 steps (norm: 5.43427e-07)
------------------------------------
  Starting TPA DIIS iterations ... 
------------------------------------ 
   It     Res. Norm  Remark
------------------------------------
                       Guess.
    1     9.122e+00  
    2     1.535e+01  
    3     2.362e+00  
    4     8.487e-01  
    5     2.394e-01  
    6     1.050e-01  
    7     3.074e-02  
    8     5.206e-03  
    9     2.076e-03  
   10     3.637e-04  
   11     1.250e-04  
   12     2.038e-05  
   13     7.468e-06  
   14     2.467e-06  
   15     1.217e-06  
   16     4.239e-07  Converged.
   ... Converged in 16 steps (norm: 4.23902e-07)
------------------------------------
  Starting TPA DIIS iterations ... 
------------------------------------ 
   It     Res. Norm  Remark
------------------------------------
                       Guess.
    1     8.768e+00  
    2     1.473e+01  
    3     2.256e+00  
    4     8.222e-01  
    5     2.377e-01  
    6     1.028e-01  
    7     3.002e-02  
    8     5.068e-03  
    9     2.035e-03  
   10     3.546e-04  
   11     1.212e-04  
   12     2.023e-05  
   13     7.051e-06  
   14     2.501e-06  
   15     7.286e-07  Converged.
   ... Converged in 15 steps (norm: 7.28596e-07)
------------------------------------
  Starting TPA DIIS iterations ... 
------------------------------------ 
   It     Res. Norm  Remark
------------------------------------
                       Guess.
    1     8.179e-01  
    2     7.058e-01  
    3     3.104e-01  
    4     2.314e-01  
    5     4.182e-02  
    6     1.888e-02  
    7     4.180e-03  
    8     1.605e-03  
    9     5.743e-04  
   10     7.804e-05  
   11     5.136e-05  
   12     2.359e-05  
   13     2.157e-05  
   14     9.546e-06  
   15     3.172e-06  
   16     1.442e-06  
   17     3.542e-07  Converged.
   ... Converged in 17 steps (norm: 3.54248e-07)
------------------------------------
  Starting TPA DIIS iterations ... 
------------------------------------ 
   It     Res. Norm  Remark
------------------------------------
                       Guess.
    1     1.083e+01  
    2     1.924e+01  
    3     2.809e+00  
    4     1.108e+00  
    5     3.164e-01  
    6     1.412e-01  
    7     4.077e-02  
    8     6.869e-03  
    9     2.789e-03  
   10     4.884e-04  
   11     1.678e-04  
   12     2.778e-05  
   13     1.055e-05  
   14     3.754e-06  
   15     2.018e-06  
   16     7.573e-07  Converged.
   ... Converged in 16 steps (norm: 7.573e-07)
------------------------------------
  Starting TPA DIIS iterations ... 
------------------------------------ 
   It     Res. Norm  Remark
------------------------------------
                       Guess.
    1     1.041e+01  
    2     1.846e+01  
    3     2.682e+00  
    4     1.071e+00  
    5     3.142e-01  
    6     1.383e-01  
    7     3.979e-02  
    8     6.686e-03  
    9     2.735e-03  
   10     4.764e-04  
   11     1.636e-04  
   12     2.800e-05  
   13     9.840e-06  
   14     3.862e-06  
   15     1.136e-06  
   16     6.939e-07  Converged.
   ... Converged in 16 steps (norm: 6.93932e-07)
------------------------------------
  Starting TPA DIIS iterations ... 
------------------------------------ 
   It     Res. Norm  Remark
------------------------------------
                       Guess.
    1     8.476e-01  
    2     7.694e-01  
    3     3.548e-01  
    4     3.070e-01  
    5     5.160e-02  
    6     2.398e-02  
    7     5.714e-03  
    8     1.772e-03  
    9     7.216e-04  
   10     1.151e-04  
   11     7.545e-05  
   12     3.771e-05  
   13     3.599e-05  
   14     1.494e-05  
   15     5.539e-06  
   16     2.294e-06  
   17     5.049e-07  Converged.
   ... Converged in 17 steps (norm: 5.04872e-07)
------------------------------------
  Starting TPA DIIS iterations ... 
------------------------------------ 
   It     Res. Norm  Remark
------------------------------------
                       Guess.
    1     1.182e+01  
    2     2.158e+01  
    3     3.063e+00  
    4     1.265e+00  
    5     3.636e-01  
    6     1.637e-01  
    7     4.690e-02  
    8     7.884e-03  
    9     3.229e-03  
   10     5.647e-04  
   11     1.933e-04  
   12     3.238e-05  
   13     1.258e-05  
   14     4.663e-06  
   15     2.628e-06  
   16     1.029e-06  
   17     7.979e-07  Converged.
   ... Converged in 17 steps (norm: 7.97937e-07)
------------------------------------
  Starting TPA DIIS iterations ... 
------------------------------------ 
   It     Res. Norm  Remark
------------------------------------
                       Guess.
    1     1.135e+01  
    2     2.071e+01  
    3     2.925e+00  
    4     1.221e+00  
    5     3.610e-01  
    6     1.602e-01  
    7     4.577e-02  
    8     7.673e-03  
    9     3.167e-03  
   10     5.511e-04  
   11     1.890e-04  
   12     3.295e-05  
   13     1.161e-05  
   14     4.810e-06  
   15     1.473e-06  
   16     9.317e-07  Converged.
   ... Converged in 16 steps (norm: 9.31724e-07)
------------------------------------
  Starting TPA DIIS iterations ... 
------------------------------------ 
   It     Res. Norm  Remark
------------------------------------
                       Guess.
    1     8.625e-01  
    2     8.036e-01  
    3     3.794e-01  
    4     3.495e-01  
    5     5.746e-02  
    6     2.685e-02  
    7     6.644e-03  
    8     1.831e-03  
    9     8.040e-04  
   10     1.376e-04  
   11     9.129e-05  
   12     4.745e-05  
   13     4.628e-05  
   14     1.848e-05  
   15     7.239e-06  
   16     2.870e-06  
   17     5.993e-07  Converged.
   ... Converged in 17 steps (norm: 5.99256e-07)
------------------------------------
  Starting TPA DIIS iterations ... 
------------------------------------ 
   It     Res. Norm  Remark
------------------------------------
                       Guess.
    1     1.331e+01  
    2     2.525e+01  
    3     3.443e+00  
    4     1.511e+00  
    5     4.383e-01  
    6     1.995e-01  
    7     5.661e-02  
    8     9.488e-03  
    9     3.931e-03  
   10     6.856e-04  
   11     2.329e-04  
   12     3.984e-05  
   13     1.608e-05  
   14     6.294e-06  
   15     3.791e-06  
   16     1.589e-06  
   17     1.196e-06  
   18     4.473e-07  Converged.
   ... Converged in 18 steps (norm: 4.47276e-07)
------------------------------------
  Starting TPA DIIS iterations ... 
------------------------------------ 
   It     Res. Norm  Remark
------------------------------------
                       Guess.
    1     1.279e+01  
    2     2.423e+01  
    3     3.287e+00  
    4     1.456e+00  
    5     4.352e-01  
    6     1.954e-01  
    7     5.524e-02  
    8     9.233e-03  
    9     3.859e-03  
   10     6.694e-04  
   11     2.289e-04  
   12     4.114e-05  
   13     1.456e-05  
   14     6.477e-06  
   15     2.173e-06  
   16     1.389e-06  
   17     7.826e-07  Converged.
   ... Converged in 17 steps (norm: 7.82596e-07)
------------------------------------
  Starting TPA DIIS iterations ... 
------------------------------------ 
   It     Res. Norm  Remark
------------------------------------
                       Guess.
    1     8.827e-01  
    2     8.528e-01  
    3     4.151e-01  
    4     4.101e-01  
    5     6.655e-02  
    6     3.098e-02  
    7     8.088e-03  
    8     1.906e-03  
    9     9.264e-04  
   10     1.722e-04  
   11     1.178e-04  
   12     6.425e-05  
   13     6.481e-05  
   14     2.438e-05  
   15     1.027e-05  
   16     3.863e-06  
   17     7.689e-07  Converged.
   ... Converged in 17 steps (norm: 7.68876e-07)
------------------------------------
  Two-photon absorbption ...  CPU 128.16 s  wall 31.75 s
  Transition density matrix of state singlet_A_1 printed to ASCII file 'State_singlet_A_1_Transition.txt'
  Transition density matrix of state singlet_A_2 printed to ASCII file 'State_singlet_A_2_Transition.txt'
  Transition density matrix of state singlet_A_3 printed to ASCII file 'State_singlet_A_3_Transition.txt'
  Transition density matrix of state singlet_A_4 printed to ASCII file 'State_singlet_A_4_Transition.txt'
  Transition density matrix of state singlet_A_5 printed to ASCII file 'State_singlet_A_5_Transition.txt'
  Transition density matrix of state singlet_A_6 printed to ASCII file 'State_singlet_A_6_Transition.txt'
  Transition density matrix of state singlet_A_7 printed to ASCII file 'State_singlet_A_7_Transition.txt'
  Transition density matrix of state singlet_A_8 printed to ASCII file 'State_singlet_A_8_Transition.txt'
  Transition density matrix of state singlet_A_9 printed to ASCII file 'State_singlet_A_9_Transition.txt'
  Transition density matrix of state singlet_A_10 printed to ASCII file 'State_singlet_A_10_Transition.txt'
  Transition properties ...  CPU 0.28 s  wall 0.52 s
  Difference density matrix of state singlet_A_1 printed to ASCII file 'State_singlet_A_1_Difference.txt'
  Total density matrix of state singlet_A_1 printed to ASCII file 'State_singlet_A_1_Total.txt'
  Difference density matrix of state singlet_A_2 printed to ASCII file 'State_singlet_A_2_Difference.txt'
  Total density matrix of state singlet_A_2 printed to ASCII file 'State_singlet_A_2_Total.txt'
  Difference density matrix of state singlet_A_3 printed to ASCII file 'State_singlet_A_3_Difference.txt'
  Total density matrix of state singlet_A_3 printed to ASCII file 'State_singlet_A_3_Total.txt'
  Difference density matrix of state singlet_A_4 printed to ASCII file 'State_singlet_A_4_Difference.txt'
  Total density matrix of state singlet_A_4 printed to ASCII file 'State_singlet_A_4_Total.txt'
  Difference density matrix of state singlet_A_5 printed to ASCII file 'State_singlet_A_5_Difference.txt'
  Total density matrix of state singlet_A_5 printed to ASCII file 'State_singlet_A_5_Total.txt'
  Difference density matrix of state singlet_A_6 printed to ASCII file 'State_singlet_A_6_Difference.txt'
  Total density matrix of state singlet_A_6 printed to ASCII file 'State_singlet_A_6_Total.txt'
  Difference density matrix of state singlet_A_7 printed to ASCII file 'State_singlet_A_7_Difference.txt'
  Total density matrix of state singlet_A_7 printed to ASCII file 'State_singlet_A_7_Total.txt'
  Difference density matrix of state singlet_A_8 printed to ASCII file 'State_singlet_A_8_Difference.txt'
  Total density matrix of state singlet_A_8 printed to ASCII file 'State_singlet_A_8_Total.txt'
  Difference density matrix of state singlet_A_9 printed to ASCII file 'State_singlet_A_9_Difference.txt'
  Total density matrix of state singlet_A_9 printed to ASCII file 'State_singlet_A_9_Total.txt'
  Difference density matrix of state singlet_A_10 printed to ASCII file 'State_singlet_A_10_Difference.txt'
  Total density matrix of state singlet_A_10 printed to ASCII file 'State_singlet_A_10_Total.txt'
  Properties ...  CPU 0.50 s  wall 0.80 s
  ISR TDMS ...  CPU 16.71 s  wall 5.95 s
  ISR transition properties ...  CPU 0.30 s  wall 0.14 s
  Sum-over-states TPA ...  CPU 0.00 s  wall 0.00 s

--------------------------------------------------------------------------------
                   State-averaged natural transition orbitals
--------------------------------------------------------------------------------
--------------------------------------------------------------------------------
  SA-NTO decomposition ...  CPU 0.01 s  wall 0.03 s

--------------------------------------------------------------------------------
                             Excited State Summary
--------------------------------------------------------------------------------
--------------------------------------------------------------------------------

  Excited state 1 (singlet, A)                                     [converged]
  ----------------------------------------------------------------------------
  Term symbol:  2 (1) A                                     R^2 =  3.27293e-14

  Total energy:                                            -78.0006770677 a.u.
  Excitation energy:                                               8.677323 eV

  Osc. strength:                                                      0.442532
  Trans. dip. moment [a.u.]:           [   1.043736,   -0.996070,   -0.008670]
  <i|r^2|0> [a.u.]:                    [   6.160406,   -0.239919,   -0.000601]
  Two-photon absorption cross-section (SoS) [a.u.]:                   0.002149
  Two-photon absorption matrix (SoS) [a.u.]:
                                       |    0.006735   -0.009320   -0.001039 |
                                       |   -0.009320   -0.015473   -0.001479 |
                                       |   -0.001039   -0.001479    0.008495 |
  Two-photon absorption cross-section [a.u.]:                         0.002214
  Two-photon absorption matrix [a.u.]:
                                       |    0.013472   -0.005014    0.000137 |
                                       |   -0.005014   -0.012839    0.000859 |
                                       |    0.000137    0.000859    0.009965 |

  Dip. moment [a.u.]:                  [   0.000026,    0.000975,    0.001039]
  Total dipole [Debye]:                                               0.003621
  <r^2> [a.u.]:                        [ 176.130241,   35.799525,   11.867184]
  Total <r^2> [a.u.]:                                               223.796951

  V1^2 = 0.9715, V2^2 = 0.0285

  Important amplitudes:
      occ i     occ j     vir a      vir b          v   
    -----------------------------------------------------
     8 (A) A              9 (A) A                -0.6810
     6 (A) A             14 (A) A                -0.0637
     4 (A) A             10 (A) A                -0.0600
     7 (A) A             16 (A) A                 0.0564
     5 (A) A             13 (A) A                 0.0508
     6 (A) A             23 (A) A                -0.0486
     8 (A) A             20 (A) A                -0.0352
     6 (A) A             19 (A) A                -0.0321
     3 (A) A             12 (A) A                 0.0282
     7 (A) A             11 (A) A                -0.0216
     5 (A) A             22 (A) A                 0.0212
     4 (A) A             24 (A) A                -0.0186
     3 (A) A             26 (A) A                 0.0184
     8 (A) A   8 (A) B   17 (A) A   20 (A) B      0.0184
     8 (A) A   8 (A) B    9 (A) A   28 (A) B      0.0169
     6 (A) A             26 (A) A                 0.0161
     7 (A) A             21 (A) A                -0.0147
     3 (A) A             14 (A) A                -0.0140
     3 (A) A   4 (A) B    9 (A) A    9 (A) B      0.0129
     3 (A) A             19 (A) A                -0.0121
     6 (A) A             12 (A) A                -0.0119
     8 (A) A   8 (A) B   18 (A) A   19 (A) B      0.0113
     7 (A) A             32 (A) A                -0.0096
     7 (A) A             36 (A) A                 0.0085
     3 (A) A             23 (A) A                -0.0080
     8 (A) A   8 (A) B   25 (A) A   29 (A) B     -0.0076
     6 (A) A             35 (A) A                 0.0073
     6 (A) A             40 (A) A                 0.0068
     3 (A) A   6 (A) B    9 (A) A   28 (A) B      0.0065
     6 (A) A   8 (A) A   19 (A) A   28 (A) A     -0.0062
     5 (A) A   7 (A) B    9 (A) A    9 (A) B      0.0060
     5 (A) A   8 (A) B   11 (A) A   20 (A) B      0.0059
     7 (A) A   8 (A) B   13 (A) A   20 (A) B     -0.0059
     5 (A) A   8 (A) B   16 (A) A    9 (A) B     -0.0059
     3 (A) A   5 (A) B    9 (A) A   25 (A) B      0.0058
     6 (A) A   8 (A) A    9 (A) A   18 (A) A      0.0057
     5 (A) A   8 (A) B   11 (A) A    9 (A) B     -0.0057
     7 (A) A   8 (A) B   22 (A) A   20 (A) B     -0.0057
     3 (A) A             40 (A) A                 0.0057
     8 (A) A   8 (A) B   19 (A) A   30 (A) B      0.0056
    -----------------------------------------------------

  Density matrix analysis:
  ------------------------
  NOs
    Occupation of frontier NOs:
       0.9494   1.0217
    Number of electrons: 16.000000
    Number of unpaired electrons: n_u =  2.31363, n_u,nl =  2.03285
    NO participation ratio (PR_NO):  2.864801
  
  
  Mulliken Population Analysis
  Atom      Charge (e)              h+              e-           Del q
  --------------------------------------------------------------------
   1 H        0.058473        0.019945       -0.012549        0.007396
   2 C       -0.118830        0.490347       -0.505285       -0.014938
   3 H        0.058726        0.019975       -0.012517        0.007458
   4 C       -0.113362        0.490340       -0.505053       -0.014712
   5 H        0.056192        0.019909       -0.012550        0.007358
   6 H        0.058802        0.020005       -0.012567        0.007438
  --------------------------------------------------------------------
  Sum:       -0.000000        1.060522       -1.060522       -0.000000
  
  Multipole moment analysis of the density matrix
    Molecular charge:                      -0.000000
    Number of electrons:                   16.000000
      Center of electronic charge [Ang]: [ -1.560577,  -0.061885,   0.001944]
    Total nuclear charge:                  16.000000
      Center of nuclear charge [Ang]:    [ -1.560576,  -0.061852,   0.001978]
    Dipole moment [D]:                     0.003621
      Cartesian components [D]:          [  0.000066,   0.002477,   0.002640]
    RMS size of the density [Ang]:         1.215570
      Cartesian components [Ang]:        [  0.804483,   0.789130,   0.455734]
  
  Exciton analysis of the difference density matrix
    <r_h> [Ang]:                  [ -1.560295,  -0.061199,   0.001617]
    <r_e> [Ang]:                  [ -1.560165,  -0.061054,   0.001530]
    |<r_e - r_h>| [Ang]:            0.000213
    Hole size [Ang]:                1.286321
      Cartesian components [Ang]: [  0.727721,   0.714265,   0.784135]
    Electron size [Ang]:            1.462892
      Cartesian components [Ang]: [  0.851862,   0.833017,   0.848803]

  Transition density matrix analysis:
  -----------------------------------
  
  CT numbers (Mulliken)
    omega =     0.9535
    <Phe> =    -0.1625
  
  Exciton analysis of the transition density matrix
    Trans. dipole moment [D]:             1.833591
      Cartesian components [D]:         [  1.326456,  -1.265878,  -0.011019]
    <r_h> [Ang]:                        [ -1.560306,  -0.060893,   0.001707]
    <r_e> [Ang]:                        [ -1.560183,  -0.061123,   0.001464]
    |<r_e - r_h>| [Ang]:                  0.000357
    Hole size [Ang]:                      1.216761
      Cartesian components [Ang]:       [  0.650367,   0.639488,   0.805348]
    Electron size [Ang]:                  1.484863
      Cartesian components [Ang]:       [  0.861774,   0.841597,   0.868261]
    RMS electron-hole separation [Ang]:   1.938635
      Cartesian components [Ang]:       [  1.105414,   1.080358,   1.170125]
    Covariance(r_h, r_e) [Ang^2]:        -0.036490
    Correlation coefficient:             -0.020197
    Center-of-mass size [Ang]:            0.950309
      Cartesian components [Ang]:       [  0.526622,   0.516549,   0.599111]

  Decomposition into state-averaged NTOs
    H- 0 -> L+ 0:  0.6698 ( 89.7%)
    H- 2 -> L+ 5: -0.0850 (  1.4%)
    H- 5 -> L+ 6:  0.0710 (  1.0%)
                   omega =  95.4%
  ----------------------------------------------------------------------------


  Excited state 2 (singlet, A)                                     [converged]
  ----------------------------------------------------------------------------
  Term symbol:  3 (1) A                                     R^2 =  7.68128e-14

  Total energy:                                            -77.9867219113 a.u.
  Excitation energy:                                               9.057062 eV

  Osc. strength:                                                      0.000199
  Trans. dip. moment [a.u.]:           [   0.001006,   -0.004777,    0.029534]
  <i|r^2|0> [a.u.]:                    [  -0.062669,   -0.081629,    0.148909]
  Two-photon absorption cross-section (SoS) [a.u.]:                   5.179874
  Two-photon absorption matrix (SoS) [a.u.]:
                                       |   -0.059557   -0.060746    0.574914 |
                                       |   -0.060746   -0.062444    0.549859 |
                                       |    0.574914    0.549859    0.119985 |
  Two-photon absorption cross-section [a.u.]:                         0.071009
  Two-photon absorption matrix [a.u.]:
                                       |   -0.001184    0.006592   -0.084014 |
                                       |    0.006592    0.013078   -0.040029 |
                                       |   -0.084014   -0.040029   -0.013075 |

  Dip. moment [a.u.]:                  [   0.045974,    0.029042,    0.005647]
  Total dipole [Debye]:                                               0.138960
  <r^2> [a.u.]:                        [ 174.756265,   34.306069,   13.159825]
  Total <r^2> [a.u.]:                                               222.222159

  V1^2 = 0.9540, V2^2 = 0.0460

  Important amplitudes:
      occ i     occ j     vir a      vir b          v   
    -----------------------------------------------------
     7 (A) A              9 (A) A                 0.6666
     8 (A) A             11 (A) A                 0.1488
     7 (A) A             20 (A) A                 0.0755
     8 (A) A             10 (A) A                -0.0575
     5 (A) A   8 (A) B    9 (A) A    9 (A) B     -0.0318
     8 (A) A             16 (A) A                 0.0273
     8 (A) A             21 (A) A                 0.0178
     5 (A) A             28 (A) A                -0.0150
     4 (A) A   7 (A) B    9 (A) A   19 (A) B     -0.0134
     5 (A) A   7 (A) B    9 (A) A   16 (A) B     -0.0133
     7 (A) A   8 (A) B   20 (A) A   17 (A) B     -0.0105
     7 (A) A   8 (A) A    9 (A) A   28 (A) A      0.0098
     5 (A) A   8 (A) B    9 (A) A   20 (A) B     -0.0095
     4 (A) A   6 (A) B    9 (A) A   16 (A) B      0.0091
     5 (A) A   6 (A) A    9 (A) A   23 (A) A      0.0091
     5 (A) A   6 (A) A    9 (A) A   14 (A) A      0.0090
     5 (A) A   6 (A) B    9 (A) A   19 (A) B      0.0088
     8 (A) A   7 (A) B    9 (A) A   28 (A) B     -0.0085
     4 (A) A   5 (A) A    9 (A) A   10 (A) A     -0.0084
     6 (A) A   7 (A) B    9 (A) A   18 (A) B     -0.0082
     5 (A) A   6 (A) B    9 (A) A   23 (A) B      0.0080
     3 (A) A   7 (A) B    9 (A) A   18 (A) B      0.0079
     5 (A) A   7 (A) A    9 (A) A   16 (A) A     -0.0079
     4 (A) A   8 (A) B    9 (A) A   25 (A) B     -0.0077
     7 (A) A   8 (A) B   17 (A) A   20 (A) B     -0.0074
     4 (A) A   7 (A) B   19 (A) A    9 (A) B     -0.0073
     5 (A) A   5 (A) B    9 (A) A   13 (A) B     -0.0072
     7 (A) A   8 (A) B   19 (A) A   18 (A) B     -0.0071
     5 (A) A   8 (A) A    9 (A) A   20 (A) A     -0.0069
     4 (A) A   5 (A) B    9 (A) A   18 (A) B      0.0067
     7 (A) A   8 (A) B   17 (A) A    9 (A) B     -0.0066
     5 (A) A   6 (A) B    9 (A) A   14 (A) B      0.0065
     7 (A) A   7 (A) B   20 (A) A   22 (A) B      0.0065
     4 (A) A   5 (A) B   10 (A) A    9 (A) B      0.0061
     4 (A) A   7 (A) A    9 (A) A   19 (A) A     -0.0061
     5 (A) A   7 (A) B   11 (A) A   20 (A) B     -0.0060
     4 (A) A   7 (A) B    9 (A) A   14 (A) B      0.0059
     6 (A) A   7 (A) A   19 (A) A   28 (A) A      0.0057
     4 (A) A   8 (A) A    9 (A) A   25 (A) A     -0.0057
     5 (A) A             37 (A) A                -0.0053
    -----------------------------------------------------

  Density matrix analysis:
  ------------------------
  NOs
    Occupation of frontier NOs:
       0.9511   1.0609
    Number of electrons: 16.000000
    Number of unpaired electrons: n_u =  2.35610, n_u,nl =  2.06798
    NO participation ratio (PR_NO):  3.070200
  
  
  Mulliken Population Analysis
  Atom      Charge (e)              h+              e-           Del q
  --------------------------------------------------------------------
   1 H        0.160480        0.125813       -0.016409        0.109403
   2 C       -0.299425        0.273907       -0.469439       -0.195532
   3 H        0.140224        0.124296       -0.035339        0.088956
   4 C       -0.294653        0.270580       -0.466583       -0.196004
   5 H        0.149891        0.116712       -0.015655        0.101057
   6 H        0.143483        0.129091       -0.036972        0.092119
  --------------------------------------------------------------------
  Sum:       -0.000000        1.040399       -1.040399       -0.000000
  
  Multipole moment analysis of the density matrix
    Molecular charge:                      0.000000
    Number of electrons:                   16.000000
      Center of electronic charge [Ang]: [ -1.562097,  -0.062813,   0.001791]
    Total nuclear charge:                  16.000000
      Center of nuclear charge [Ang]:    [ -1.560576,  -0.061852,   0.001978]
    Dipole moment [D]:                     0.138960
      Cartesian components [D]:          [  0.116854,   0.073817,   0.014354]
    RMS size of the density [Ang]:         1.202160
      Cartesian components [Ang]:        [  0.786384,   0.772316,   0.479914]
  
  Exciton analysis of the difference density matrix
    <r_h> [Ang]:                  [ -1.563364,  -0.075511,   0.001114]
    <r_e> [Ang]:                  [ -1.586602,  -0.089639,  -0.001319]
    |<r_e - r_h>| [Ang]:            0.027304
    Hole size [Ang]:                1.485821
      Cartesian components [Ang]: [  1.016054,   0.982370,   0.458528]
    Electron size [Ang]:            1.484135
      Cartesian components [Ang]: [  0.888157,   0.864884,   0.815971]

  Transition density matrix analysis:
  -----------------------------------
  
  CT numbers (Mulliken)
    omega =     0.9213
    <Phe> =    -0.0122
  
  Exciton analysis of the transition density matrix
    Trans. dipole moment [D]:             0.038043
      Cartesian components [D]:         [  0.001278,  -0.006071,   0.037533]
    <r_h> [Ang]:                        [ -1.562215,  -0.075909,   0.001255]
    <r_e> [Ang]:                        [ -1.589076,  -0.090581,  -0.001605]
    |<r_e - r_h>| [Ang]:                  0.030741
    Hole size [Ang]:                      1.512153
      Cartesian components [Ang]:       [  1.039164,   1.003128,   0.447747]
    Electron size [Ang]:                  1.481709
      Cartesian components [Ang]:       [  0.879059,   0.855754,   0.830904]
    RMS electron-hole separation [Ang]:   2.097860
      Cartesian components [Ang]:       [  1.345606,   1.304183,   0.943117]
    Covariance(r_h, r_e) [Ang^2]:         0.040998
    Correlation coefficient:              0.018298
    Center-of-mass size [Ang]:            1.068183
      Cartesian components [Ang]:       [  0.688346,   0.666424,   0.472307]

  Decomposition into state-averaged NTOs
    H- 1 -> L+ 0:  0.6589 ( 86.8%)
    H- 0 -> L+ 2:  0.1494 (  4.5%)
                   omega =  92.1%
  ----------------------------------------------------------------------------


  Excited state 3 (singlet, A)                                     [converged]
  ----------------------------------------------------------------------------
  Term symbol:  4 (1) A                                     R^2 =  5.81635e-14

  Total energy:                                            -77.9836200572 a.u.
  Excitation energy:                                               9.141468 eV

  Osc. strength:                                                      0.025143
  Trans. dip. moment [a.u.]:           [   0.014869,    0.020715,   -0.334090]
  <i|r^2|0> [a.u.]:                    [   0.083170,   -0.003367,    0.014391]
  Two-photon absorption cross-section (SoS) [a.u.]:                   0.007039
  Two-photon absorption matrix (SoS) [a.u.]:
                                       |    0.012705    0.002526   -0.008558 |
                                       |    0.002526   -0.007071   -0.025852 |
                                       |   -0.008558   -0.025852    0.003395 |
  Two-photon absorption cross-section [a.u.]:                         0.032438
  Two-photon absorption matrix [a.u.]:
                                       |    0.015060    0.004152   -0.042115 |
                                       |    0.004152    0.001056   -0.045896 |
                                       |   -0.042115   -0.045896   -0.004945 |

  Dip. moment [a.u.]:                  [   0.015087,    0.059231,    0.003222]
  Total dipole [Debye]:                                               0.155573
  <r^2> [a.u.]:                        [ 180.944245,   40.683730,   11.050099]
  Total <r^2> [a.u.]:                                               232.678074

  V1^2 = 0.9588, V2^2 = 0.0412

  Important amplitudes:
      occ i     occ j     vir a      vir b          v   
    -----------------------------------------------------
     8 (A) A             10 (A) A                 0.6867
     7 (A) A              9 (A) A                 0.0582
     8 (A) A             24 (A) A                 0.0504
     8 (A) A             18 (A) A                -0.0310
     4 (A) A              9 (A) A                 0.0237
     8 (A) A   8 (A) B    9 (A) A   12 (A) B     -0.0219
     8 (A) A             15 (A) A                 0.0173
     8 (A) A   8 (A) B   10 (A) A   17 (A) B      0.0171
     5 (A) A   8 (A) B   11 (A) A   10 (A) B      0.0163
     7 (A) A   8 (A) B   13 (A) A   10 (A) B     -0.0140
     4 (A) A   8 (A) B   12 (A) A   10 (A) B     -0.0110
     6 (A) A   8 (A) A   10 (A) A   15 (A) A     -0.0108
     7 (A) A   8 (A) B   22 (A) A   10 (A) B     -0.0107
     6 (A) A   8 (A) B   15 (A) A   10 (A) B      0.0106
     4 (A) A   8 (A) A   10 (A) A   12 (A) A      0.0105
     7 (A) A   8 (A) A   10 (A) A   22 (A) A      0.0098
     7 (A) A   8 (A) A   10 (A) A   13 (A) A      0.0097
     5 (A) A   8 (A) B   21 (A) A   10 (A) B      0.0094
     5 (A) A   8 (A) A   10 (A) A   11 (A) A     -0.0092
     6 (A) A   8 (A) A   10 (A) A   18 (A) A     -0.0089
     6 (A) A   8 (A) B   10 (A) A   10 (A) B     -0.0086
     7 (A) A   8 (A) A   12 (A) A   16 (A) A      0.0081
     3 (A) A   4 (A) B   10 (A) A    9 (A) B     -0.0079
     5 (A) A   8 (A) A   10 (A) A   21 (A) A     -0.0079
     8 (A) A   8 (A) B    9 (A) A   23 (A) B     -0.0076
     4 (A) A   8 (A) B   19 (A) A   10 (A) B      0.0074
     8 (A) A   8 (A) B   10 (A) A   28 (A) B     -0.0073
     3 (A) A   8 (A) B   10 (A) A   10 (A) B      0.0072
     3 (A) A   8 (A) A   10 (A) A   24 (A) A     -0.0071
     5 (A) A   8 (A) B   10 (A) A   11 (A) B      0.0071
     7 (A) A   8 (A) B   16 (A) A   12 (A) B     -0.0070
     3 (A) A   8 (A) B   10 (A) A   18 (A) B     -0.0068
     6 (A) A   8 (A) B   18 (A) A   10 (A) B      0.0067
     8 (A) A   8 (A) B    9 (A) A   19 (A) B      0.0067
     7 (A) A             20 (A) A                 0.0065
     3 (A) A   6 (A) B   10 (A) A   28 (A) B     -0.0062
     7 (A) A   8 (A) B   12 (A) A   11 (A) B     -0.0057
     6 (A) A             28 (A) A                 0.0056
     3 (A) A   5 (A) B   10 (A) A   25 (A) B     -0.0056
     3 (A) A   8 (A) A   10 (A) A   18 (A) A     -0.0055
    -----------------------------------------------------

  Density matrix analysis:
  ------------------------
  NOs
    Occupation of frontier NOs:
       0.9780   0.9882
    Number of electrons: 16.000000
    Number of unpaired electrons: n_u =  2.29962, n_u,nl =  2.02776
    NO participation ratio (PR_NO):  2.725200
  
  
  Mulliken Population Analysis
  Atom      Charge (e)              h+              e-           Del q
  --------------------------------------------------------------------
   1 H       -0.159403        0.055057       -0.265537       -0.210480
   2 C        0.322208        0.532900       -0.106800        0.426100
   3 H       -0.168990        0.053163       -0.273421       -0.220258
   4 C        0.324439        0.529340       -0.106251        0.423089
   5 H       -0.154925        0.054642       -0.258400       -0.203759
   6 H       -0.163328        0.053552       -0.268244       -0.214692
  --------------------------------------------------------------------
  Sum:       -0.000000        1.278654       -1.278654       -0.000000
  
  Multipole moment analysis of the density matrix
    Molecular charge:                      -0.000000
    Number of electrons:                   16.000000
      Center of electronic charge [Ang]: [ -1.561075,  -0.063811,   0.001872]
    Total nuclear charge:                  16.000000
      Center of nuclear charge [Ang]:    [ -1.560576,  -0.061852,   0.001978]
    Dipole moment [D]:                     0.155573
      Cartesian components [D]:          [  0.038348,   0.150550,   0.008189]
    RMS size of the density [Ang]:         1.277204
      Cartesian components [Ang]:        [  0.854337,   0.841407,   0.439765]
  
  Exciton analysis of the difference density matrix
    <r_h> [Ang]:                  [ -1.558234,  -0.062272,   0.001827]
    <r_e> [Ang]:                  [ -1.564359,  -0.086261,   0.000852]
    |<r_e - r_h>| [Ang]:            0.024778
    Hole size [Ang]:                1.413716
      Cartesian components [Ang]: [  0.836256,   0.823110,   0.788516]
    Electron size [Ang]:            2.079221
      Cartesian components [Ang]: [  1.377236,   1.376947,   0.728286]

  Transition density matrix analysis:
  -----------------------------------
  
  CT numbers (Mulliken)
    omega =     0.9258
    <Phe> =    -0.0110
  
  Exciton analysis of the transition density matrix
    Trans. dipole moment [D]:             0.425821
      Cartesian components [D]:         [  0.018897,   0.026326,  -0.424586]
    <r_h> [Ang]:                        [ -1.557127,  -0.058318,   0.001906]
    <r_e> [Ang]:                        [ -1.565104,  -0.093485,   0.000572]
    |<r_e - r_h>| [Ang]:                  0.036085
    Hole size [Ang]:                      1.218327
      Cartesian components [Ang]:       [  0.641352,   0.630523,   0.821844]
    Electron size [Ang]:                  2.291276
      Cartesian components [Ang]:       [  1.516753,   1.517657,   0.803817]
    RMS electron-hole separation [Ang]:   2.585165
      Cartesian components [Ang]:       [  1.639186,   1.636570,   1.147950]
    Covariance(r_h, r_e) [Ang^2]:         0.026244
    Correlation coefficient:              0.009401
    Center-of-mass size [Ang]:            1.302570
      Cartesian components [Ang]:       [  0.827176,   0.825312,   0.575611]

  Decomposition into state-averaged NTOs
    H- 0 -> L+ 1:  0.6772 ( 91.7%)
                   omega =  92.6%
  ----------------------------------------------------------------------------


  Excited state 4 (singlet, A)                                     [converged]
  ----------------------------------------------------------------------------
  Term symbol:  5 (1) A                                     R^2 =  2.06213e-13

  Total energy:                                            -77.9582802097 a.u.
  Excitation energy:                                               9.831000 eV

  Osc. strength:                                                      0.000051
  Trans. dip. moment [a.u.]:           [  -0.000398,    0.001974,   -0.014482]
  <i|r^2|0> [a.u.]:                    [  -0.019650,   -0.019370,    0.037202]
  Two-photon absorption cross-section (SoS) [a.u.]:                 153.628816
  Two-photon absorption matrix (SoS) [a.u.]:
                                       |   -0.304371   -0.329202    3.065519 |
                                       |   -0.329202   -0.354885    3.061318 |
                                       |    3.065519    3.061318    0.658569 |
  Two-photon absorption cross-section [a.u.]:                        95.958858
  Two-photon absorption matrix [a.u.]:
                                       |   -0.248498   -0.260966    2.444620 |
                                       |   -0.260966   -0.272008    2.397407 |
                                       |    2.444620    2.397407    0.519911 |

  Dip. moment [a.u.]:                  [  -0.098081,   -0.078189,   -0.010412]
  Total dipole [Debye]:                                               0.319917
  <r^2> [a.u.]:                        [ 180.937384,   40.509978,   10.777867]
  Total <r^2> [a.u.]:                                               232.225229

  V1^2 = 0.9635, V2^2 = 0.0365

  Important amplitudes:
      occ i     occ j     vir a      vir b          v   
    -----------------------------------------------------
     8 (A) A             11 (A) A                 0.6696
     7 (A) A              9 (A) A                -0.1505
     8 (A) A             21 (A) A                 0.0780
     8 (A) A             16 (A) A                 0.0637
     8 (A) A   8 (A) B    9 (A) A   13 (A) B     -0.0168
     5 (A) A   8 (A) B   11 (A) A   11 (A) B      0.0155
     8 (A) A   8 (A) B   11 (A) A   17 (A) B      0.0140
     7 (A) A             20 (A) A                -0.0138
     8 (A) A             12 (A) A                 0.0127
     7 (A) A   8 (A) B   13 (A) A   11 (A) B     -0.0127
     5 (A) A   8 (A) A   11 (A) A   21 (A) A     -0.0110
     4 (A) A   8 (A) B   12 (A) A   11 (A) B     -0.0110
     8 (A) A   8 (A) B    9 (A) A   22 (A) B     -0.0107
     8 (A) A             10 (A) A                 0.0106
     7 (A) A   8 (A) A   11 (A) A   22 (A) A      0.0097
     6 (A) A   8 (A) B   15 (A) A   11 (A) B      0.0090
     6 (A) A   8 (A) B   10 (A) A   11 (A) B     -0.0089
     7 (A) A   8 (A) B   22 (A) A   11 (A) B     -0.0089
     3 (A) A   4 (A) B   11 (A) A    9 (A) B     -0.0083
     3 (A) A   8 (A) B   11 (A) A   18 (A) B     -0.0081
     6 (A) A   8 (A) A   11 (A) A   15 (A) A     -0.0080
     7 (A) A   8 (A) A   13 (A) A   16 (A) A      0.0078
     7 (A) A   8 (A) A   11 (A) A   13 (A) A      0.0077
     5 (A) A   8 (A) B   21 (A) A   11 (A) B      0.0071
     4 (A) A   8 (A) B   19 (A) A   11 (A) B      0.0069
     5 (A) A   8 (A) B    9 (A) A    9 (A) B      0.0068
     6 (A) A   8 (A) A   11 (A) A   18 (A) A     -0.0063
     4 (A) A   8 (A) A   11 (A) A   12 (A) A      0.0063
     3 (A) A   6 (A) B   11 (A) A   28 (A) B     -0.0061
     6 (A) A   8 (A) B   18 (A) A   11 (A) B      0.0060
     7 (A) A   8 (A) B   16 (A) A   13 (A) B     -0.0057
     3 (A) A   8 (A) A   11 (A) A   18 (A) A     -0.0056
     5 (A) A   8 (A) B   10 (A) A   10 (A) B      0.0056
     3 (A) A   8 (A) B   11 (A) A   30 (A) B     -0.0055
     3 (A) A   5 (A) B   11 (A) A   25 (A) B     -0.0054
     6 (A) A   8 (A) B   11 (A) A   10 (A) B     -0.0054
     7 (A) A   8 (A) B   12 (A) A   10 (A) B     -0.0053
     8 (A) A   8 (A) B   20 (A) A   22 (A) B     -0.0053
     3 (A) A   8 (A) A   11 (A) A   24 (A) A     -0.0053
     5 (A) A   8 (A) A   11 (A) A   16 (A) A     -0.0048
    -----------------------------------------------------

  Density matrix analysis:
  ------------------------
  NOs
    Occupation of frontier NOs:
       0.9406   1.0277
    Number of electrons: 16.000000
    Number of unpaired electrons: n_u =  2.31963, n_u,nl =  2.04926
    NO participation ratio (PR_NO):  2.915710
  
  
  Mulliken Population Analysis
  Atom      Charge (e)              h+              e-           Del q
  --------------------------------------------------------------------
   1 H       -0.169250        0.046528       -0.266855       -0.220327
   2 C        0.273774        0.497805       -0.120139        0.377666
   3 H       -0.108446        0.046450       -0.206164       -0.159714
   4 C        0.278229        0.495837       -0.118958        0.376879
   5 H       -0.141918        0.046648       -0.237400       -0.190751
   6 H       -0.132390        0.046263       -0.230017       -0.183754
  --------------------------------------------------------------------
  Sum:       -0.000000        1.179532       -1.179532       -0.000000
  
  Multipole moment analysis of the density matrix
    Molecular charge:                      -0.000000
    Number of electrons:                   16.000000
      Center of electronic charge [Ang]: [ -1.557332,  -0.059266,   0.002323]
    Total nuclear charge:                  16.000000
      Center of nuclear charge [Ang]:    [ -1.560576,  -0.061852,   0.001978]
    Dipole moment [D]:                     0.319917
      Cartesian components [D]:          [ -0.249298,  -0.198738,  -0.026465]
    RMS size of the density [Ang]:         1.278888
      Cartesian components [Ang]:        [  0.861071,   0.839931,   0.434312]
  
  Exciton analysis of the difference density matrix
    <r_h> [Ang]:                  [ -1.557073,  -0.059830,   0.001990]
    <r_e> [Ang]:                  [ -1.512942,  -0.024184,   0.007049]
    |<r_e - r_h>| [Ang]:            0.056954
    Hole size [Ang]:                1.397241
      Cartesian components [Ang]: [  0.821392,   0.807050,   0.791371]
    Electron size [Ang]:            2.127843
      Cartesian components [Ang]: [  1.458545,   1.392051,   0.680114]

  Transition density matrix analysis:
  -----------------------------------
  
  CT numbers (Mulliken)
    omega =     0.9296
    <Phe> =    -0.0133
  
  Exciton analysis of the transition density matrix
    Trans. dipole moment [D]:             0.018582
      Cartesian components [D]:         [ -0.000506,   0.002509,  -0.018405]
    <r_h> [Ang]:                        [ -1.560189,  -0.061512,   0.001597]
    <r_e> [Ang]:                        [ -1.503775,  -0.017315,   0.008010]
    |<r_e - r_h>| [Ang]:                  0.071952
    Hole size [Ang]:                      1.230724
      Cartesian components [Ang]:       [  0.661130,   0.650969,   0.808597]
    Electron size [Ang]:                  2.265991
      Cartesian components [Ang]:       [  1.554684,   1.481684,   0.722693]
    RMS electron-hole separation [Ang]:   2.568913
      Cartesian components [Ang]:       [  1.681682,   1.611247,   1.084040]
    Covariance(r_h, r_e) [Ang^2]:         0.027631
    Correlation coefficient:              0.009908
    Center-of-mass size [Ang]:            1.294668
      Cartesian components [Ang]:       [  0.849029,   0.813040,   0.542477]

  Decomposition into state-averaged NTOs
    H- 0 -> L+ 2:  0.6639 ( 88.2%)
    H- 1 -> L+ 0: -0.1484 (  4.4%)
                   omega =  93.0%
  ----------------------------------------------------------------------------


  Excited state 5 (singlet, A)                                     [converged]
  ----------------------------------------------------------------------------
  Term symbol:  6 (1) A                                     R^2 =  1.24771e-13

  Total energy:                                            -77.9460612027 a.u.
  Excitation energy:                                              10.163496 eV

  Osc. strength:                                                      0.000002
  Trans. dip. moment [a.u.]:           [  -0.000457,   -0.000136,    0.002954]
  <i|r^2|0> [a.u.]:                    [  -0.090477,    0.108386,   -0.021194]
[...]
    16   -1.484482189575e-03
    17   -1.789619950056e-03
    18   -8.421318557524e-05
    19   -3.386988035067e-03
    20    1.217456271844e-02
    21    9.571166986310e-01
    22   -1.833991222452e-04
    23    1.428771134233e-02
    24    8.424015993283e-04
    25    6.980905131027e-02
    26   -5.192571149396e-02
    27   -1.397367497850e+00
    28    1.003632676794e-01
    29   -8.845969240994e-02
    30   -9.061202873711e-04
    31    3.848417507410e-01
    32   -3.495684738953e-01
    33   -4.191274968866e-03
    34    1.569357390636e-02
    35   -1.423470061058e-03
    36   -1.860579143632e-03
    37    5.818152597025e-04
    38   -3.196094206666e-03
    39    9.111823452777e-03
    40    9.198289318095e-01
    41    5.077065777924e-04
    42   -1.405030824607e-02
    43   -8.370165041045e-04
    44    1.109213219874e-02
    45    9.422631888830e-01
    46    1.406783785371e-02
    47    4.789603655976e-04
    48    6.765826132555e-04
Sym=X
Ene= 0.233511
Spin=Alpha
Occup=0
     1    2.531397879259e-02
     2    1.264240722587e+00
     3   -1.509233377904e-02
     4   -3.949248763700e-03
     5   -9.398622736998e-04
     6    5.236355938741e-03
     7   -4.505494340562e-03
     8   -1.033811672284e-01
     9   -1.578817127822e-01
    10   -1.556696907194e-01
    11   -1.664268812442e-02
    12   -5.623687957749e-01
    13   -5.533958099197e-01
    14   -5.914807520819e-02
    15    1.433570564527e-03
    16   -1.920201323483e-04
    17   -1.080249034762e-04
    18   -1.028805319068e-03
    19   -7.947863251110e-04
    20   -2.358748163830e-02
    21   -1.128719260059e+00
    22   -2.491904762244e-03
    23   -1.302736073477e-02
    24   -8.924535661904e-04
    25   -3.099186971345e-03
    26    3.052156847930e-03
    27    4.062498837785e-02
    28   -1.536101677318e-01
    29   -1.573453870975e-01
    30   -1.671136806680e-02
    31   -5.441859501741e-01
    32   -5.684494340267e-01
    33   -5.993974073811e-02
    34   -5.771089343416e-04
    35    6.530671443378e-05
    36   -1.477202491146e-05
    37    7.268368823729e-04
    38    3.305548427389e-04
    39    2.274657666376e-02
    40    1.169807951218e+00
    41   -2.673535365621e-03
    42   -1.381587427732e-02
    43   -9.603957510264e-04
    44   -2.649659145671e-02
    45   -1.227215540699e+00
    46   -1.435368207696e-02
    47   -3.743236930628e-03
    48   -8.986750826936e-04
Sym=X
Ene= 0.239596
Spin=Alpha
Occup=0
     1   -1.626458375617e-02
     2   -1.026277282698e+00
     3    1.619926847961e-02
     4    9.048452053137e-03
     5    1.313340944202e-03
     6   -8.618037114230e-02
     7    7.906919177668e-02
     8    1.590331246258e+00
     9    4.977593714524e-02
    10   -6.238025006822e-02
    11   -1.173250996879e-03
    12    1.973024877089e-01
    13   -2.361598115997e-01
    14   -3.799703872972e-03
    15   -2.237013897273e-02
    16    2.605081446932e-03
    17    2.933646481766e-03
    18   -6.741386983913e-04
    19    1.278452072257e-02
    20   -1.692986945544e-02
    21   -1.134390691094e+00
    22   -8.634903919403e-03
    23   -1.782345213887e-02
    24   -1.456993936401e-03
    25    8.704304946235e-02
    26   -7.982155774785e-02
    27   -1.617045196102e+00
    28    5.142008234414e-02
    29   -6.175225378952e-02
    30   -1.688487134417e-03
    31    1.972517630250e-01
    32   -2.459054240919e-01
    33   -7.054565675532e-03
    34    2.287138784860e-02
    35   -2.583841655644e-03
    36   -3.091771101683e-03
    37    1.163174274772e-03
    38   -1.295451181379e-02
    39    1.691342039220e-02
    40    1.165651391638e+00
    41   -8.523329870548e-03
    42   -1.863757718003e-02
    43   -1.548157629392e-03
    44    1.484879400282e-02
    45    1.028335517273e+00
    46    1.615903091206e-02
    47    9.272598521823e-03
    48    1.287066724560e-03
Sym=X
Ene= 0.302863
Spin=Alpha
Occup=0
     1    1.900619132718e-02
     2   -1.684755148386e+00
     3    2.273625385865e-02
     4   -3.296694253072e-04
     5    1.074616884131e-03
     6    3.471573837650e-04
     7   -6.095497375639e-05
     8   -1.346089507382e-02
     9    1.336766971378e-01
    10    1.402055090260e-01
    11    1.460250240944e-02
    12    1.141306809716e+00
    13    1.184685324023e+00
    14    1.242814088013e-01
    15    2.269462224732e-04
    16    1.611258383981e-03
    17   -1.843932559823e-03
    18    3.223820526562e-02
    19    1.240885076046e-03
    20   -1.928470489635e-02
    21    1.691870854500e+00
    22   -1.196192906394e-03
    23    2.288775047466e-02
    24    1.277073322549e-03
    25   -2.263643725392e-04
    26    1.133174698160e-05
    27   -1.131639924246e-02
    28   -1.342557569492e-01
    29   -1.400979272273e-01
    30   -1.474644220922e-02
    31   -1.134955834048e+00
    32   -1.200106509820e+00
    33   -1.253166536496e-01
    34    1.948858889182e-04
    35    1.526741105860e-03
    36   -1.989348849051e-03
    37    3.263930022307e-02
    38    1.178781016047e-03
    39   -2.141017327666e-02
    40    1.710598025310e+00
    41    1.266593156997e-03
    42   -2.280458295462e-02
    43   -1.309689091247e-03
    44    1.863448016400e-02
    45   -1.691443517019e+00
    46   -2.293695233370e-02
    47    3.744914588087e-04
    48   -1.058100997362e-03
Sym=X
Ene= 0.460437
Spin=Alpha
Occup=0
     1   -1.161105143328e-01
     2   -7.075479442299e-01
     3   -1.533362230546e-02
     4   -9.754146419125e-03
     5   -1.297527210519e-03
     6    6.102687688025e-02
     7    1.541786875423e-02
     8   -3.504523746152e+00
     9    1.063722265714e-01
    10   -1.024156409131e-01
    11   -1.108970765510e-03
    12    2.383174506274e+00
    13   -2.280628568520e+00
    14   -2.009811399918e-02
    15    5.211854920389e-02
    16   -3.255067855857e-03
    17   -4.466070265766e-03
    18   -1.158578996048e-03
    19    1.791664045353e-02
    20   -1.141303801209e-01
    21   -7.055806251503e-01
    22    9.203665741193e-03
    23    1.548642135685e-02
    24    1.351677773857e-03
    25   -6.079905168138e-02
    26   -1.587613642261e-02
    27    3.495244720988e+00
    28    1.063066272781e-01
    29   -1.004642255070e-01
    30   -1.378036172939e-03
    31    2.378810638996e+00
    32   -2.291931004193e+00
    33   -2.271296588483e-02
    34   -5.213649422201e-02
    35    3.360418401445e-03
    36    4.491385310272e-03
    37    1.193986566141e-03
    38   -1.743997826647e-02
    39    1.119109375468e-01
    40    7.300582744356e-01
    41    9.503903251425e-03
    42    1.568217083647e-02
    43    1.376097614457e-03
    44    1.191619055143e-01
    45    6.904217586212e-01
    46   -1.539669925980e-02
    47   -9.463995879149e-03
    48   -1.311950867514e-03
Sym=X
Ene= 0.578396
Spin=Alpha
Occup=0
     1    2.566777596339e-01
     2    4.155940466759e-02
     3   -1.751514176350e-02
     4    2.647374374183e-02
     5    7.328006638909e-04
     6   -4.563649581214e-03
     7   -1.515288033972e-01
     8   -4.332337403432e-01
     9    2.972615559769e-01
    10   -2.840634307324e-01
    11   -2.612025706454e-03
    12   -7.451613004270e-01
    13    7.138104419741e-01
    14    7.104310207511e-03
    15   -6.869267837164e-03
    16    4.188576308434e-03
    17    3.786380814149e-03
    18   -1.869372889369e-03
    19    6.215506708451e-02
    20    2.563861401187e-01
    21    4.471338051351e-02
    22   -2.680015719454e-02
    23    1.652730987537e-02
    24   -2.959911511372e-04
    25   -4.056295274115e-03
    26   -1.507662711160e-01
    27   -4.587249292187e-01
    28   -2.989400311341e-01
    29    2.837711296604e-01
    30    2.471413062388e-03
    31    7.304407206834e-01
    32   -7.057138109305e-01
    33   -7.749485598391e-03
    34   -6.609062764317e-03
    35    4.178777015576e-03
    36    3.750837329179e-03
    37   -1.581227335747e-03
    38    6.217915110001e-02
    39    2.546246447338e-01
    40    5.388928764709e-02
    41    2.611300777237e-02
    42   -1.571354937995e-02
    43    2.777598062045e-04
    44    2.594253650370e-01
    45    2.808526431165e-02
    46    1.739306635378e-02
    47   -2.608136452455e-02
    48   -7.543023631828e-04
Sym=X
Ene= 0.615435
Spin=Alpha
Occup=0
     1    5.154632954822e-01
     2   -2.043852021452e-01
     3    6.042541111706e-02
     4   -3.838032855397e-02
     5    6.265209387519e-04
     6   -2.645982933935e-05
     7    5.583060065251e-04
     8   -2.280021740598e-02
     9    3.971152572996e-02
    10    4.143604886691e-02
    11    4.371918365561e-03
    12   -2.781968199566e-01
    13   -3.141776712976e-01
    14   -3.156761149025e-02
    15    6.963271248343e-04
    16    7.452200885703e-03
    17   -8.522153041370e-03
    18    1.487856848925e-01
    19    6.507393288922e-03
    20   -5.187269052691e-01
    21    1.971808719065e-01
    22   -4.101541962738e-02
    23    5.929033925031e-02
    24    1.550393575177e-03
    25    2.266536098993e-04
    26    4.406705963154e-03
    27   -5.137425603860e-03
    28    3.953852711009e-02
    29    4.542135218259e-02
    30    4.541809968118e-03
    31   -2.776332673103e-01
    32   -3.365760612856e-01
    33   -3.344494377572e-02
    34    8.780958534067e-04
    35   -7.323654471751e-03
    36    8.513554284301e-03
    37   -1.473291107222e-01
    38   -8.047472919460e-03
    39    5.128758613759e-01
    40   -1.675996444676e-01
    41   -4.050058502525e-02
    42    5.845420712339e-02
    43    1.607562517078e-03
    44   -5.158012503236e-01
    45    2.031703964951e-01
    46    6.067645508642e-02
    47   -3.864327730343e-02
    48    5.095465624533e-04
Sym=X
Ene= 0.690626
Spin=Alpha
Occup=0
     1    7.796893495650e-04
     2    3.557715707229e-04
     3    1.110847015870e-03
     4    1.334139208476e-03
     5   -2.126370737053e-02
     6    5.390720680251e-05
     7    4.121223135142e-04
     8    1.728207838151e-04
     9    3.164417113583e-02
    10    3.992156946460e-02
    11   -6.721042948980e-01
    12   -3.000754428179e-02
    13   -3.526835776075e-02
    14    6.135151691963e-01
    15   -1.466790635250e-03
    16    8.208744111211e-02
    17   -7.864850231607e-02
    18   -8.613847817438e-03
    19   -9.188745620849e-04
    20    8.239521320878e-04
    21    1.486341046856e-04
    22    9.022925016297e-04
    23    1.131935168277e-03
    24   -2.122251138082e-02
    25    4.909404167072e-06
    26    8.463484183116e-04
    27   -9.066869107477e-04
    28    3.209021973327e-02
    29    3.990740170454e-02
    30   -6.717438961125e-01
    31   -3.055757292429e-02
    32   -3.539172147799e-02
    33    6.139476949558e-01
    34    1.084882884116e-03
    35   -8.208849570726e-02
    36    7.896503151202e-02
    37    8.546738945779e-03
    38    1.054518845470e-03
    39    6.737406857890e-05
    40   -1.093164945868e-03
    41    1.099807815711e-03
    42    1.589368461901e-03
    43   -2.303035134600e-02
    44    2.854341845833e-05
    45   -8.799809107528e-04
    46    7.881350271447e-04
    47    1.251690556064e-03
    48   -2.072126251787e-02
Sym=X
Ene= 0.709521
Spin=Alpha
Occup=0
     1   -4.804818220925e-01
     2    1.551581301217e-01
     3   -8.188863647201e-02
     4   -4.371710898826e-02
     5   -6.546504840946e-03
     6   -4.821552301391e-02
     7   -3.193788682378e-01
     8    4.810033824413e-01
     9    2.050624524082e-01
    10   -1.985634511081e-01
    11   -2.737311200815e-03
    12   -8.622652766849e-02
    13    8.871178403752e-02
    14    1.118118244669e-03
    15    1.964874556272e-01
    16   -2.062347073254e-02
    17   -2.402278394492e-02
    18    2.991613340675e-03
    19   -7.566113307693e-02
    20   -4.743427819393e-01
    21    1.574606419619e-01
    22    4.113058477603e-02
    23    8.353713385786e-02
    24    6.815044386770e-03
    25   -4.666348837577e-02
    26   -3.262119064204e-01
    27    4.813591533075e-01
    28   -2.126243182530e-01
    29    1.939143696622e-01
    30    6.487684493637e-04
    31    9.350022593946e-02
    32   -6.378492126867e-02
    33    2.440888252450e-03
    34    1.923651863668e-01
    35   -2.032270128118e-02
    36   -2.370372400370e-02
    37    2.995634258128e-03
    38   -7.548601448494e-02
    39   -4.617508592091e-01
    40    1.199648245794e-01
    41   -3.989025426631e-02
    42   -8.161605821901e-02
    43   -6.740675209852e-03
    44   -4.675509523648e-01
    45    1.570880048896e-01
    46    7.978290639104e-02
    47    4.457200374678e-02
    48    6.466060141249e-03
Sym=X
Ene= 0.782980
Spin=Alpha
Occup=0
     1    5.265299774113e-01
     2   -4.589039189415e-01
     3    1.096621151176e-01
     4    2.502297117998e-02
     5    6.704755743708e-03
     6    9.052328087810e-02
     7   -2.214375816146e-01
     8   -6.021840560548e-01
     9    1.187975080609e-01
    10   -1.180208481102e-01
    11    8.757299008509e-05
    12    2.806401932181e-01
    13   -2.648592698276e-01
    14   -4.737870376002e-03
    15   -2.043666698432e-01
    16    1.736282963252e-02
    17    2.112585554976e-02
    18    1.964048095887e-03
    19    5.912320524858e-03
    20    5.294377841338e-01
    21   -4.514601162189e-01
    22   -1.922050355414e-02
    23   -1.090128617270e-01
    24   -7.318558221893e-03
    25   -9.193037251221e-02
    26    2.051131224563e-01
    27    6.295557791003e-01
    28    1.072676067024e-01
    29   -1.222832592596e-01
    30   -3.131239845345e-03
    31    3.032975528389e-01
    32   -2.408163160494e-01
    33    2.618067930433e-03
    34    2.098369385498e-01
    35   -1.773920882339e-02
    36   -2.225479031160e-02
    37   -2.202244141447e-03
    38   -7.728364417158e-03
    39   -5.309693068645e-01
    40    4.211985500557e-01
    41   -1.943788178930e-02
    42   -1.101574691820e-01
    43   -7.506271330637e-03
    44   -5.409541476250e-01
    45    4.805074520889e-01
    46    1.128743176466e-01
    47    2.655145451948e-02
    48    6.935937074971e-03
Sym=X
Ene= 0.807247
Spin=Alpha
Occup=0
     1   -7.454734335451e-04
     2    1.078525284701e-03
     3   -1.827351351254e-03
     4   -2.016377344249e-03
     5    3.396144427588e-02
     6   -1.585458697561e-04
     7    6.708800112391e-04
     8   -1.017418454528e-04
     9   -3.663379066360e-02
    10   -4.450870691585e-02
    11    7.630591466846e-01
    12    5.312226005735e-02
    13    6.623889455756e-02
    14   -1.123444140520e+00
    15   -5.630133704913e-04
    16    6.293988058652e-02
    17   -6.046820906340e-02
    18   -6.663500050945e-03
    19   -6.899199035232e-04
    20   -7.416969620270e-04
    21    4.947406111701e-04
    22   -1.658573885491e-03
    23   -1.855379519139e-03
    24    3.389812659317e-02
    25    1.277940725938e-04
    26    7.478914866742e-05
    27   -3.201992740109e-04
    28    3.600850636786e-02
    29    4.589288770994e-02
    30   -7.628133830215e-01
    31   -5.401580829170e-02
    32   -6.678314850283e-02
    33    1.123738344553e+00
    34   -1.437009508044e-03
    35    6.306814600007e-02
    36   -6.034906474097e-02
    37   -6.492904414618e-03
    38   -9.032946760702e-04
    39    7.307503381614e-04
    40   -6.405518240658e-04
    41    1.583802874939e-03
    42    2.441237050566e-03
    43   -3.555228674395e-02
    44    7.603178649782e-04
    45   -1.322147787868e-03
    46    1.205843555441e-03
    47    2.046574885515e-03
    48   -3.380573580080e-02
Sym=X
Ene= 0.863783
Spin=Alpha
Occup=0
     1    1.390564099210e-02
     2   -1.106471133602e+00
     3    1.498977570424e-01
     4    5.668251411157e-02
     5    1.042133221493e-02
     6   -1.042316189395e-03
     7    1.157209013644e-02
     8   -1.511841072525e-02
     9   -4.193443443211e-01
    10   -4.271169819973e-01
    11   -4.493789695165e-02
    12    9.706641061127e-01
    13    9.965403621101e-01
    14    1.045281007142e-01
    15    1.860279694969e-03
    16    1.182772687414e-02
    17   -1.380310788974e-02
    18    2.382008818954e-01
    19    1.256117812343e-02
    20   -2.187655570929e-02
    21    1.110975746954e+00
    22    4.979486193251e-02
    23    1.547750328849e-01
    24    1.156244667001e-02
    25    2.074555827072e-03
    26    9.236498569171e-03
    27   -1.723296194376e-03
    28   -4.098802133560e-01
    29   -4.158268586955e-01
    30   -4.444797600583e-02
    31    9.505367053030e-01
    32    9.796917228783e-01
    33    1.039570589413e-01
    34   -6.490911928084e-03
    35   -1.136765525042e-02
    36    1.420025282507e-02
    37   -2.364342900934e-01
    38   -1.357896952071e-02
    39    1.839845619214e-02
    40   -1.094382379811e+00
    41    4.905571658279e-02
    42    1.517926687688e-01
    43    1.150289062166e-02
    44   -5.781443621433e-03
    45    1.093980962051e+00
    46    1.465877228595e-01
    47    5.789661209445e-02
    48    1.027214342162e-02
Sym=X
Ene= 0.935697
Spin=Alpha
Occup=0
     1   -1.138320085686e-01
     2    1.255226805285e+00
     3   -1.800046041890e-01
     4    7.322442459734e-03
     5   -8.231348289387e-03
     6   -1.319586728031e-03
     7    1.466705694381e-02
     8   -5.756133731566e-02
     9    4.543864666301e-01
    10    5.079592748549e-01
    11    5.160215288882e-02
    12   -1.412915132179e+00
    13   -1.570721108623e+00
    14   -1.599515169522e-01
    15    2.830022435008e-03
    16   -5.731285164077e-03
    17    6.664199275731e-03
    18   -1.179386947978e-01
    19    4.738143200342e-03
    20    1.129836284773e-01
    21   -1.292818254156e+00
    22    9.914166746714e-03
    23   -1.801572303986e-01
    24   -1.003786473340e-02
    25    2.367520445861e-03
    26    3.017499685083e-02
    27   -9.123857384682e-03
    28   -4.992089536650e-01
    29   -4.774074666618e-01
    30   -5.211590343853e-02
    31    1.538177902733e+00
    32    1.489318384950e+00
    33    1.616535302532e-01
    34   -6.306852321491e-03
    35   -6.428466033103e-03
    36    7.213300882796e-03
    37   -1.235264859612e-01
    38   -1.975813431707e-02
    39    1.144627741739e-01
    40   -1.259598696713e+00
    41   -1.721178695993e-02
    42    1.788636628643e-01
    43    9.839017575124e-03
    44   -1.140287489764e-01
    45    1.340272665571e+00
    46    1.876588577905e-01
    47    1.286015467719e-03
    48    8.982999494421e-03
Sym=X
Ene= 0.969073
Spin=Alpha
Occup=0
     1   -7.244526543431e-02
     2    9.730701352374e-01
     3   -9.735139659694e-02
     4   -9.846421423783e-02
     5   -1.044571757218e-02
     6    2.298607800616e-02
     7    2.483154335508e-01
     8    5.511300242043e-01
     9    4.946639456387e-01
    10   -4.422919341988e-01
    11   -2.332915657095e-03
    12   -1.564991416295e+00
    13    1.374944855971e+00
    14    5.933150212509e-03
    15   -4.970934782917e-02
    16   -1.318647109065e-02
    17   -1.016038230707e-02
    18    1.117412215682e-02
    19   -3.019544307992e-01
    20   -7.541331627819e-02
    21    8.813093468681e-01
    22    9.506229408699e-02
    23    9.024117008331e-02
    24    9.888299954551e-03
    25   -2.255726035794e-02
    26   -2.196917158207e-01
    27   -5.981936102100e-01
    28    4.540660874125e-01
    29   -4.756206913522e-01
    30   -7.218825113617e-03
    31   -1.413728688440e+00
    32    1.511436431385e+00
    33    2.385779733215e-02
    34    4.832289858003e-02
    35    1.252140517484e-02
    36    1.086386482668e-02
    37   -2.232620502030e-02
    38    2.990613624144e-01
    39    7.323059098290e-02
    40   -9.848700178355e-01
    41    9.318440247821e-02
    42    1.026775802647e-01
    43    1.072283698200e-02
    44    7.173747148982e-02
    45   -8.363972906888e-01
    46   -7.908515283912e-02
    47   -9.761249916255e-02
    48   -9.349317184880e-03
[5D]

======= END OF MOLDEN-FORMATTED INPUT FILE =======


        *************************************************************
        *                                                           *
        *  Thank you very much for using Q-Chem.  Have a nice day.  *
        *                                                           *
        *************************************************************


