                  Welcome to Q-Chem
     A Quantum Leap Into The Future Of Chemistry


 Q-Chem 5.4 (devel), Q-Chem, Inc., Pleasanton, CA (2021)

 E. Epifanovsky,  A. T. B. Gilbert,  Xintian Feng,  Joonho Lee,  Yuezhi Mao,  
 N. Mardirossian,  P. Pokhilko,  A. White,  M. Wormit,  M. P. Coons,  
 A. L. Dempwolff,  Zhengting Gan,  D. Hait,  P. R. Horn,  L. D. Jacobson,  
 I. Kaliman,  J. Kussmann,  A. W. Lange,  Ka Un Lao,  D. S. Levine,  Jie Liu,  
 S. C. McKenzie,  A. F. Morrison,  K. Nanda,  F. Plasser,  D. R. Rehn,  
 M. L. Vidal,  Zhi-Qiang You,  Ying Zhu,  B. Alam,  B. Albrecht,  
 A. Aldossary,  E. Alguire,  J. H. Andersen,  D. Barton,  K. Begam,  A. Behn,  
 Y. A. Bernard,  E. J. Berquist,  H. Burton,  A. Carreras,  K. Carter-Fenk,  
 R. Chakraborty,  A. D. Chien,  K. D. Closser,  V. Cofer-Shabica,  
 S. Dasgupta,  Jia Deng,  M. de Wergifosse,  M. Diedenhofen,  Hainam Do,  
 S. Ehlert,  Po-Tung Fang,  S. Fatehi,  Qingguo Feng,  T. Friedhoff,  
 J. Gayvert,  Qinghui Ge,  G. Gidofalvi,  M. Goldey,  J. Gomes,  
 C. Gonzalez-Espinoza,  S. Gulania,  A. Gunina,  M. W. D. Hanson-Heine,  
 P. H. P. Harbach,  A. W. Hauser,  M. F. Herbst,  M. Hernandez Vera,  
 M. Hodecker,  Z. C. Holden,  S. Houck,  Xunkun Huang,  Kerwin Hui,  
 B. C. Huynh,  M. Ivanov,  Hyunjun Ji,  Hanjie Jiang,  B. Kaduk,  S. Kaehler,  
 K. Khistyaev,  Jaehoon Kim,  P. Klunzinger,  Z. Koczor-Benda,  
 Joong Hoon Koh,  D. Kosenkov,  L. Koulias,  T. Kowalczyk,  C. M. Krauter,  
 K. Kue,  A. Kunitsa,  T. Kus,  A. Landau,  K. V. Lawler,  D. Lefrancois,  
 S. Lehtola,  Rain Li,  Yi-Pei Li,  Jiashu Liang,  M. Liebenthal,  
 Hung-Hsuan Lin,  You-Sheng Lin,  Fenglai Liu,  Kuan-Yu Liu,  
 M. Loipersberger,  A. Luenser,  A. Manjanath,  P. Manohar,  E. Mansoor,  
 S. F. Manzer,  Shan-Ping Mao,  A. V. Marenich,  T. Markovich,  S. Mason,  
 S. A. Maurer,  P. F. McLaughlin,  M. F. S. J. Menger,  J.-M. Mewes,  
 S. A. Mewes,  P. Morgante,  J. W. Mullinax,  K. J. Oosterbaan,  G. Paran,  
 Alexander C. Paul,  Suranjan K. Paul,  F. Pavosevic,  Zheng Pei,  S. Prager,  
 E. I. Proynov,  E. Ramos,  B. Rana,  A. E. Rask,  A. Rettig,  R. M. Richard,  
 F. Rob,  E. Rossomme,  T. Scheele,  M. Scheurer,  M. Schneider,  
 N. Sergueev,  S. M. Sharada,  W. Skomorowski,  D. W. Small,  C. J. Stein,  
 Yu-Chuan Su,  E. J. Sundstrom,  Zhen Tao,  J. Thirman,  T. Tsuchimochi,  
 N. M. Tubman,  S. P. Veccham,  O. Vydrov,  J. Wenzel,  J. Witte,  A. Yamada,  
 Kun Yao,  S. Yeganeh,  S. R. Yost,  A. Zech,  Igor Ying Zhang,  Xing Zhang,  
 Yu Zhang,  D. Zuev,  A. Aspuru-Guzik,  A. T. Bell,  N. A. Besley,  
 K. B. Bravaya,  B. R. Brooks,  D. Casanova,  Jeng-Da Chai,  S. Coriani,  
 C. J. Cramer,  A. E. DePrince, III,  R. A. DiStasio Jr.,  A. Dreuw,  
 B. D. Dunietz,  T. R. Furlani,  W. A. Goddard III,  S. Grimme,  
 S. Hammes-Schiffer,  T. Head-Gordon,  W. J. Hehre,  Chao-Ping Hsu,  
 T.-C. Jagau,  Yousung Jung,  A. Klamt,  Jing Kong,  D. S. Lambrecht,  
 WanZhen Liang,  N. J. Mayhall,  C. W. McCurdy,  J. B. Neaton,  
 C. Ochsenfeld,  J. A. Parkhill,  R. Peverati,  V. A. Rassolov,  Yihan Shao,  
 L. V. Slipchenko,  T. Stauch,  R. P. Steele,  J. E. Subotnik,  
 A. J. W. Thom,  A. Tkatchenko,  D. G. Truhlar,  T. Van Voorhis,  
 T. A. Wesolowski,  K. B. Whaley,  H. L. Woodcock III,  P. M. Zimmerman,  
 S. Faraji,  P. M. W. Gill,  M. Head-Gordon,  J. M. Herbert,  A. I. Krylov

 Additional authors for Version 5.4.1: 
 S. Kotaru,  Shaozhi Li,  Xiangyuan Li,  F. Matz,  A. Molle,  Haisheng Ren,  
 Yingli Su,  Hung-Yi Tsai,  C. Utku,  Fang Wang

 Contributors to earlier versions of Q-Chem not listed above: 
 R. D. Adamson,  B. Austin,  R. Baer,  J. Baker,  G. J. O. Beran,  
 K. Brandhorst,  S. T. Brown,  E. F. C. Byrd,  A. K. Chakraborty,  
 G. K. L. Chan,  Chun-Min Chang,  Yunqing Chen,  C.-L. Cheng,  
 Siu Hung Chien,  D. M. Chipman,  D. L. Crittenden,  H. Dachsel,  
 R. J. Doerksen,  A. D. Dutoi,  R. G. Edgar,  J. Fosso-Tande,  
 L. Fusti-Molnar,  D. Ghosh,  A. Ghysels,  A. Golubeva-Zadorozhnaya,  
 J. Gonthier,  M. S. Gordon,  S. R. Gwaltney,  G. Hawkins,  J. E. Herr,  
 A. Heyden,  S. Hirata,  E. G. Hohenstein,  G. Kedziora,  F. J. Keil,  
 C. Kelley,  Jihan Kim,  R. A. King,  R. Z. Khaliullin,  P. P. Korambath,  
 W. Kurlancheek,  A. Laurent,  A. M. Lee,  M. S. Lee,  S. V. Levchenko,  
 Ching Yeh Lin,  D. Liotard,  E. Livshits,  R. C. Lochan,  I. Lotan,  
 L. A. Martinez-Martinez,  P. E. Maslen,  N. Nair,  D. P. O'Neill,  
 D. Neuhauser,  E. Neuscamman,  C. M. Oana,  R. Olivares-Amaya,  R. Olson,  
 T. M. Perrine,  B. Peters,  P. A. Pieniazek,  A. Prociuk,  Y. M. Rhee,  
 J. Ritchie,  M. A. Rohrdanz,  E. Rosta,  N. J. Russ,  H. F. Schaefer III,  
 M. W. Schmidt,  N. E. Schultz,  S. Sharma,  N. Shenvi,  C. D. Sherrill,  
 A. C. Simmonett,  A. Sodt,  T. Stein,  D. Stuck,  K. S. Thanthiriwatte,  
 V. Vanovschi,  L. Vogt,  Tao Wang,  A. Warshel,  M. A. Watson,  
 C. F. Williams,  Q. Wu,  X. Xu,  Jun Yang,  W. Zhang,  Yan Zhao

 Please cite Q-Chem as follows:
 Y. Shao et al., Mol. Phys. 113, 184-215 (2015)
 DOI: 10.1080/00268976.2014.952696

 Q-Chem 5.4.1 for Intel X86 EM64T Linux

 Parts of Q-Chem use Armadillo 9.800.1 (Horizon Scraper).
 http://arma.sourceforge.net/

 Q-Chem begins on Tue Mar 21 11:28:36 2023  

 Host: cpu186.baobab
0

     Scratch files written to /scratch/fum/qchem56747//
 Processing $rem in /home/share/wesolowski/qc5.aug2021.FDE/config/preferences:
 Processing $rem in /home/fum/.qchemrc:

 Checking the input file for inconsistencies... 	...done.

--------------------------------------------------------------
User input:
--------------------------------------------------------------
$comment
generated from CCJob.Templates
$end

$rem
sym_ignore = true
method = adc(2)
ee_states = 10
basis = cc-pVDZ
mem_static = 1024
mem_total = 40000
adc_davidson_maxiter = 900
adc_davidson_conv = 6
adc_print = 3
adc_prop_es = true
adc_prop_es2es = true
adc_prop_tpa = true
molden_format = True
state_analysis = true
print_orbitals = 15
gen_scfman = false
fde_export_density = true
fde_details = 3
$end

$molecule
0 1
H -0.022248227831681046 -0.24527340933730696 0.06519614532287434
C -1.078703115061584 -0.5236648270509101 -0.002355544397530205
H -1.3029423732748557 -1.592427363996989 -0.07774241851535528
C -2.0439678165383843 0.3930887981508797 0.006602511897539455
H -1.8197681273252342 1.4618634250970195 0.08196904801531696
H -3.1004332828683387 0.11470889483738492 -0.06087064402286641                     
$end
--------------------------------------------------------------
 ----------------------------------------------------------------
             Standard Nuclear Orientation (Angstroms)
    I     Atom           X                Y                Z
 ----------------------------------------------------------------
    1      H      -0.0222482278    -0.2452734093     0.0651961453
    2      C      -1.0787031151    -0.5236648271    -0.0023555444
    3      H      -1.3029423733    -1.5924273640    -0.0777424185
    4      C      -2.0439678165     0.3930887982     0.0066025119
    5      H      -1.8197681273     1.4618634251     0.0819690480
    6      H      -3.1004332829     0.1147088948    -0.0608706440
 ----------------------------------------------------------------
 Nuclear Repulsion Energy =          33.23630693 hartrees
 There are        8 alpha and        8 beta electrons
 Requested basis set is cc-pVDZ
 There are 24 shells and 48 basis functions
 Total memory of 40000 MB is distributed as follows: 
   MEM_STATIC is set to 1024 MB
   QALLOC/CCMAN JOB total memory use is  38976 MB
 Warning: actual memory use might exceed 40000 MB

 Total QAlloc Memory Limit  40000 MB
 Mega-Array Size      1001 MB
 MEM_STATIC part      1024 MB

                       Distance Matrix (Angstroms)
             H (  1)   C (  2)   H (  3)   C (  4)   H (  5)
   C (  2)  1.094606
   H (  3)  1.864251  1.094632
   C (  4)  2.120917  1.331260  2.120968
   H (  5)  2.479047  2.120993  3.101823  1.094635
   H (  6)  3.101726  2.120929  2.479027  1.094608  1.864224

 A cutoff of  1.0D-11 yielded    300 shell pairs
 There are      1220 function pairs (      1329 Cartesian)
 Smallest overlap matrix eigenvalue = 4.77E-03

 Scale SEOQF with 1.000000e-01/1.000000e-01/1.000000e+00

 Standard Electronic Orientation quadrupole field applied
 Nucleus-field energy     =     0.0000000022 hartrees
 Guess from superposition of atomic densities
 Warning:  Energy on first SCF cycle will be non-variational
 SAD guess density has 16.000000 electrons
 A restricted Hartree-Fock SCF calculation will be
 performed using Pulay DIIS extrapolation
 SCF converges when DIIS error is below 1.0E-08
 using 10 threads for integral computing
 -------------------------------------------------------
 OpenMP Integral computing Module                
 Release: version 1.0, May 2013, Q-Chem Inc. Pittsburgh 
 -------------------------------------------------------
 ---------------------------------------
  Cycle       Energy         DIIS Error
 ---------------------------------------
    1     -78.4014549880      9.95E-02
    2     -78.0176121374      7.14E-03
    3     -78.0380990771      1.83E-03
    4     -78.0395780078      5.69E-04
    5     -78.0396974317      5.81E-05
    6     -78.0396992946      9.28E-06
    7     -78.0396993557      1.95E-06
    8     -78.0396993584      1.67E-07
    9     -78.0396993585      1.73E-08
   10     -78.0396993585      3.76E-09 Convergence criterion met
 ---------------------------------------
 SCF time:  CPU 1.87 s  wall 2.37 s
 SCF   energy in the final basis set = -78.03969936
 Total energy in the final basis set = -78.03969936
Exporting Density Matrix to file 'Densmat_SCF.txt'.
Export successful
================================================================================
|                                                                              |
|                                 A D C  M A N                                 |
|                                                                              |
 ------------------------------------------------------------------------------ 
|                                                                              |
| Components:                                                                  |
|                                                                              |
| - libvmm - 1.3-trunk                                                         |
|   Authors:                                                                   |
|   Evgeny Epifanovsky, Ilya Kaliman                                           |
|                                                                              |
| - libtensor - 2.5-trunk                                                      |
|   Authors:                                                                   |
|   Evgeny Epifanovsky, Michael Wormit, Dmitry Zuev, Sam Manzer,               |
|   Ilya Kaliman                                                               |
|                                                                              |
| - libwfa - 1.1-trunk                                                         |
|   Authors:                                                                   |
|   Felix Plasser, Stefanie Mewes (Baeppler), Benjamin Thomitzni,              |
|   Michael Wormit, Feng Chen, Anna I. Krylov, Pavel Pokhilko                  |
|                                                                              |
| - libadc - 1.1-trunk                                                         |
|   Authors:                                                                   |
|   Michael Wormit, Adrian L. Dempwolff, Philipp H. P. Harbach,                |
|   Caroline Krauter, Dirk Rehn, Matthias Schneider, Jan Wenzel                |
|                                                                              |
| - adcman - 2.6-trunk                                                         |
|   Authors:                                                                   |
|   Michael Wormit, Adrian L. Dempwolff, Philipp H. P. Harbach,                |
|   Caroline Krauter, Daniel Lefrancois, Jan-Michael Mewes, Dirk Rehn,         |
|   Matthias Schneider, Jan Wenzel, Andreas Dreuw                              |
|                                                                              |
| Authors of earlier versions of ADCMAN:                                       |
| Andreas Dreuw, Jan Hendrik Starcke, Dirk Rehn, Michael Wormit                |
|                                                                              |
================================================================================

 Created directory /scratch/fum/qchem56747/plots
  Import QC data ...  CPU 0.00 s  wall 0.00 s

 Alpha MOs, Restricted
 -- Occupied --                  
-11.238 -11.237  -1.031  -0.785  -0.635  -0.582  -0.499  -0.375
  1 A     2 A     3 A     4 A     5 A     6 A     7 A     8 A                  
 -- Virtual --                   
  0.168   0.203   0.231   0.237   0.303   0.463   0.579   0.610
  9 A    10 A    11 A    12 A    13 A    14 A    15 A    16 A                  
  0.688   0.704   0.776   0.808   0.858   0.928   0.972   1.006
 17 A    18 A    19 A    20 A    21 A    22 A    23 A    24 A                  
  1.130   1.237   1.243   1.264   1.291   1.592   1.727   1.743
 25 A    26 A    27 A    28 A    29 A    30 A    31 A    32 A                  
  1.811   1.854   1.855   1.903   1.964   1.972   2.224   2.249
 33 A    34 A    35 A    36 A    37 A    38 A    39 A    40 A                  
  2.357   2.424   2.492   2.623   2.679   2.795   3.101   3.370
 41 A    42 A    43 A    44 A    45 A    46 A    47 A    48 A                  

 Beta MOs, Restricted
 -- Occupied --                  
-11.238 -11.237  -1.031  -0.785  -0.635  -0.582  -0.499  -0.375
  1 A     2 A     3 A     4 A     5 A     6 A     7 A     8 A                  
 -- Virtual --                   
  0.168   0.203   0.231   0.237   0.303   0.463   0.579   0.610
  9 A    10 A    11 A    12 A    13 A    14 A    15 A    16 A                  
  0.688   0.704   0.776   0.808   0.858   0.928   0.972   1.006
 17 A    18 A    19 A    20 A    21 A    22 A    23 A    24 A                  
  1.130   1.237   1.243   1.264   1.291   1.592   1.727   1.743
 25 A    26 A    27 A    28 A    29 A    30 A    31 A    32 A                  
  1.811   1.854   1.855   1.903   1.964   1.972   2.224   2.249
 33 A    34 A    35 A    36 A    37 A    38 A    39 A    40 A                  
  2.357   2.424   2.492   2.623   2.679   2.795   3.101   3.370
 41 A    42 A    43 A    44 A    45 A    46 A    47 A    48 A                  
  Import AO data ...  CPU 0.00 s  wall 0.00 s
  Using point group: C1
  Irreducible representations in point group: A
  Molecular orbitals: 
  Occupied MOs:
  Block   0:   1 (  A) A   2 (  A) A   3 (  A) A   4 (  A) A   5 (  A) A
                  -11.24      -11.24      -1.031     -0.7853     -0.6354
               6 (  A) A   7 (  A) A   8 (  A) A
                 -0.5824     -0.4992     -0.3749
  Block   1:   1 (  A) B   2 (  A) B   3 (  A) B   4 (  A) B   5 (  A) B
                  -11.24      -11.24      -1.031     -0.7853     -0.6354
               6 (  A) B   7 (  A) B   8 (  A) B
                 -0.5824     -0.4992     -0.3749
  Virtual MOs:
  Block   0:   9 (  A) A  10 (  A) A  11 (  A) A  12 (  A) A  13 (  A) A
                  0.1685      0.2026      0.2308      0.2366      0.3031
              14 (  A) A  15 (  A) A  16 (  A) A  17 (  A) A  18 (  A) A
                  0.4629      0.5791      0.6096      0.6882      0.7043
              19 (  A) A  20 (  A) A  21 (  A) A  22 (  A) A
                  0.7765      0.8077      0.8581      0.9283
  Block   1:  23 (  A) A  24 (  A) A  25 (  A) A  26 (  A) A  27 (  A) A
                  0.9716       1.006        1.13       1.237       1.243
              28 (  A) A  29 (  A) A  30 (  A) A  31 (  A) A  32 (  A) A
                   1.264       1.291       1.592       1.727       1.743
              33 (  A) A  34 (  A) A  35 (  A) A  36 (  A) A
                   1.811       1.854       1.855       1.903
  Block   2:  37 (  A) A  38 (  A) A  39 (  A) A  40 (  A) A  41 (  A) A
                   1.964       1.972       2.224       2.249       2.357
              42 (  A) A  43 (  A) A  44 (  A) A  45 (  A) A  46 (  A) A
                   2.424       2.492       2.623       2.679       2.795
              47 (  A) A  48 (  A) A
                   3.101        3.37
  Block   3:   9 (  A) B  10 (  A) B  11 (  A) B  12 (  A) B  13 (  A) B
                  0.1685      0.2026      0.2308      0.2366      0.3031
              14 (  A) B  15 (  A) B  16 (  A) B  17 (  A) B  18 (  A) B
                  0.4629      0.5791      0.6096      0.6882      0.7043
              19 (  A) B  20 (  A) B  21 (  A) B  22 (  A) B
                  0.7765      0.8077      0.8581      0.9283
  Block   4:  23 (  A) B  24 (  A) B  25 (  A) B  26 (  A) B  27 (  A) B
                  0.9716       1.006        1.13       1.237       1.243
              28 (  A) B  29 (  A) B  30 (  A) B  31 (  A) B  32 (  A) B
                   1.264       1.291       1.592       1.727       1.743
              33 (  A) B  34 (  A) B  35 (  A) B  36 (  A) B
                   1.811       1.854       1.855       1.903
  Block   5:  37 (  A) B  38 (  A) B  39 (  A) B  40 (  A) B  41 (  A) B
                   1.964       1.972       2.224       2.249       2.357
              42 (  A) B  43 (  A) B  44 (  A) B  45 (  A) B  46 (  A) B
                   2.424       2.492       2.623       2.679       2.795
              47 (  A) B  48 (  A) B
                   3.101        3.37
  Import MO data ...  CPU 0.07 s  wall 0.02 s
  Import HF data ...  CPU 0.59 s  wall 0.18 s
  Import 2e integrals ...  CPU 1.04 s  wall 0.20 s

--------------------------------------------------------------------------------
                                   HF Summary                                   
--------------------------------------------------------------------------------
  Energy:                                                  -78.0396993585 a.u.
  Dip. moment [a.u.]:                  [  -0.000005,    0.000002,    0.000016]
  Total dipole [Debye]:                                               0.000043
  <r^2> [a.u.]:                        [ 175.771936,   35.252372,   11.675471]
  Total <r^2> [a.u.]:                                               222.699780
--------------------------------------------------------------------------------
  HF properties ...  CPU 0.03 s  wall 0.02 s
  MP(1) calculation ...  CPU 0.01 s  wall 0.01 s
  N^6 prerequesite intermediates ...  CPU 0.67 s  wall 0.12 s
  Difference density matrix of state mp2_gs printed to ASCII file 'State_mp2_gs_Difference.txt'
Exporting MP density matrix to file 'Densmat_MP.txt'.
Export successful
  Total density matrix of state mp2_gs printed to ASCII file 'State_mp2_gs_Total.txt'
Exporting MP density matrix to file 'Densmat_MP.txt'.
Export successful

--------------------------------------------------------------------------------
                                 MP(2) Summary                                  
--------------------------------------------------------------------------------
  MP energy contribution:                                   -0.2803834417 a.u.
  Total energy:                                            -78.3200828002 a.u.
  Dip. moment [a.u.]:                  [  -0.000004,    0.000002,    0.000016]
  Total dipole [Debye]:                                               0.000042
  <r^2> [a.u.]:                        [ 175.812515,   35.288538,   11.504438]
  Total <r^2> [a.u.]:                                               222.605491

  Density matrix analysis:
  ------------------------
  NOs
    Occupation of frontier NOs:
       0.0453   1.9382
    Number of electrons: 16.000000
    Number of unpaired electrons: n_u =  0.40676, n_u,nl =  0.04564
    NO participation ratio (PR_NO): 13.915796
  
  
  Mulliken Population Analysis
  Atom      Charge (e)              h+              e-           Del q
  --------------------------------------------------------------------
   1 H        0.054840        0.013899       -0.011308        0.002591
   2 C       -0.109682        0.094419       -0.099599       -0.005180
   3 H        0.054848        0.013898       -0.011308        0.002590
   4 C       -0.109692        0.094418       -0.099600       -0.005182
   5 H        0.054847        0.013898       -0.011308        0.002590
   6 H        0.054838        0.013899       -0.011308        0.002591
  --------------------------------------------------------------------
  Sum:        0.000000        0.244431       -0.244431       -0.000000
  
  Multipole moment analysis of the density matrix
    Molecular charge:                      0.000000
    Number of electrons:                   16.000000
      Center of electronic charge [Ang]: [ -1.561338,  -0.065287,   0.002127]
    Total nuclear charge:                  16.000000
      Center of nuclear charge [Ang]:    [ -1.561339,  -0.065287,   0.002127]
    Dipole moment [D]:                     0.000042
      Cartesian components [D]:          [ -0.000011,   0.000004,   0.000040]
    RMS size of the density [Ang]:         1.205798
      Cartesian components [Ang]:        [  0.799534,   0.783167,   0.448713]
  
  Exciton analysis of the difference density matrix
    <r_h> [Ang]:                  [ -1.561338,  -0.065287,   0.002124]
    <r_e> [Ang]:                  [ -1.561339,  -0.065286,   0.002125]
    |<r_e - r_h>| [Ang]:            0.000001
    Hole size [Ang]:                1.400714
      Cartesian components [Ang]: [  0.852598,   0.839884,   0.727786]
    Electron size [Ang]:            1.361609
      Cartesian components [Ang]: [  0.879438,   0.864197,   0.577695]
--------------------------------------------------------------------------------
  MP(2) calculation ...  CPU 0.30 s  wall 0.21 s
  Start ADC(2)-s ...  CPU 0.02 s  wall 0.01 s
  ADC(2) intermediates ...  CPU 0.07 s  wall 0.02 s
  Starting Davidson for singlet states of irrep A ... 
--------------------------------------------------------------------------------
   It NVec Conv  Avg. Norm  Max. Norm  Conv. states           Remark
--------------------------------------------------------------------------------
        10    0  1.329e-01  4.688e-01  0.4120 n n n n n n n n Guess.
    1   20    0  2.308e-02  1.120e-01  0.3268 n n n n n n n n 
    2   30    0  5.833e-03  2.455e-02  0.3220 n n n n n n n n 
    3   40    0  1.748e-03  1.044e-02  0.3216 n n n n n n n n 
    4   50    0  4.958e-04  3.421e-03  0.3216 n n n n n n n n 
    5   20    0  2.542e-04  1.667e-03  0.3216 n n n n n n n n Subspace collapsed.
    6   30    0  1.082e-04  7.646e-04  0.3216 n n n n n n n n 
    7   40    0  8.366e-05  7.642e-04  0.3216 n n n n n n n n 
    8   50    0  3.801e-05  3.269e-04  0.3216 n n n n n n n n 
    9   20    2  2.023e-05  1.731e-04  0.3216 n y n y n n n n Subspace collapsed.
   10   30    5  1.883e-05  1.728e-04  0.3216 n y y y y y n n 
   11   40    5  8.101e-06  7.363e-05  0.3216 n y y y y y n n 
   12   50    6  3.161e-06  2.613e-05  0.3216 y y y y y y n n 
   13   20    6  1.834e-06  1.515e-05  0.3216 y y y y y y n n Subspace collapsed.
   14   30    7  1.626e-06  1.519e-05  0.3216 y y y y y y n y 
   15   40    8  7.827e-07  7.204e-06  0.3216 y y y y y y n y 
   16   50    8  3.900e-07  3.126e-06  0.3216 y y y y y y n y 
   17   20    8  2.073e-07  1.723e-06  0.3216 y y y y y y n y Subspace collapsed.
   18   30    9  1.492e-07  1.182e-06  0.3216 y y y y y y n y 
   19   40   10  9.238e-08  5.535e-07  0.3216 y y y y y y y y Converged.
--------------------------------------------------------------------------------
  Davidson Summary: 
 ------------------------------------------------------------
  State  0: excitation energy =   0.3216 a.u.   (converged)
  State  1: excitation energy =   0.3292 a.u.   (converged)
  State  2: excitation energy =   0.3361 a.u.   (converged)
  State  3: excitation energy =   0.3580 a.u.   (converged)
  State  4: excitation energy =   0.3738 a.u.   (converged)
  State  5: excitation energy =   0.3872 a.u.   (converged)
  State  6: excitation energy =   0.4198 a.u.   (converged)
  State  7: excitation energy =   0.4442 a.u.   (converged)
  State  8: excitation energy =   0.4543 a.u.   (converged)
  State  9: excitation energy =   0.4581 a.u.   (converged)
 ------------------------------------------------------------

  Singlet states of irrep A ...  CPU 141.01 s  wall 44.43 s
  TDMs ...  CPU 2.25 s  wall 0.83 s
  SDMs ...  CPU 5.49 s  wall 1.77 s
  Starting TPA DIIS iterations ... 
------------------------------------ 
   It     Res. Norm  Remark
------------------------------------
                       Guess.
    1     4.369e+00  
    2     5.788e+00  
    3     1.082e+00  
    4     2.618e-01  
    5     6.505e-02  
    6     2.756e-02  
    7     8.417e-03  
    8     1.551e-03  
    9     5.828e-04  
   10     9.754e-05  
   11     3.154e-05  
   12     4.859e-06  
   13     1.648e-06  
   14     4.782e-07  Converged.
   ... Converged in 14 steps (norm: 4.78169e-07)
------------------------------------
  Starting TPA DIIS iterations ... 
------------------------------------ 
   It     Res. Norm  Remark
------------------------------------
                       Guess.
    1     4.161e+00  
    2     5.502e+00  
    3     1.033e+00  
    4     2.599e-01  
    5     6.480e-02  
    6     2.756e-02  
    7     8.276e-03  
    8     1.570e-03  
    9     5.916e-04  
   10     9.709e-05  
   11     3.185e-05  
   12     4.829e-06  
   13     1.674e-06  
   14     4.736e-07  Converged.
   ... Converged in 14 steps (norm: 4.73616e-07)
------------------------------------
  Starting TPA DIIS iterations ... 
------------------------------------ 
   It     Res. Norm  Remark
------------------------------------
                       Guess.
    1     6.862e-01  
    2     4.795e-01  
    3     1.685e-01  
    4     6.294e-02  
    5     1.875e-02  
    6     6.706e-03  
    7     1.078e-03  
    8     4.616e-04  
    9     1.270e-04  
   10     3.120e-05  
   11     5.083e-06  
   12     1.816e-06  
   13     8.585e-07  Converged.
   ... Converged in 13 steps (norm: 8.5851e-07)
------------------------------------
  Starting TPA DIIS iterations ... 
------------------------------------ 
   It     Res. Norm  Remark
------------------------------------
                       Guess.
    1     4.552e+00  
    2     6.114e+00  
    3     1.134e+00  
    4     2.804e-01  
    5     7.032e-02  
    6     2.998e-02  
    7     9.146e-03  
    8     1.684e-03  
    9     6.358e-04  
   10     1.068e-04  
   11     3.476e-05  
   12     5.386e-06  
   13     1.835e-06  
   14     5.313e-07  Converged.
   ... Converged in 14 steps (norm: 5.31289e-07)
------------------------------------
  Starting TPA DIIS iterations ... 
------------------------------------ 
   It     Res. Norm  Remark
------------------------------------
                       Guess.
    1     4.334e+00  
    2     5.811e+00  
    3     1.082e+00  
    4     2.782e-01  
    5     7.005e-02  
    6     2.999e-02  
    7     8.994e-03  
    8     1.706e-03  
    9     6.457e-04  
   10     1.063e-04  
   11     3.509e-05  
   12     5.350e-06  
   13     1.865e-06  
   14     5.261e-07  Converged.
   ... Converged in 14 steps (norm: 5.26053e-07)
------------------------------------
  Starting TPA DIIS iterations ... 
------------------------------------ 
   It     Res. Norm  Remark
------------------------------------
                       Guess.
    1     6.941e-01  
    2     4.906e-01  
    3     1.748e-01  
    4     6.821e-02  
    5     1.967e-02  
    6     7.101e-03  
    7     1.165e-03  
    8     5.140e-04  
    9     1.437e-04  
   10     3.438e-05  
   11     5.510e-06  
   12     2.021e-06  
   13     9.890e-07  Converged.
   ... Converged in 13 steps (norm: 9.88969e-07)
------------------------------------
  Starting TPA DIIS iterations ... 
------------------------------------ 
   It     Res. Norm  Remark
------------------------------------
                       Guess.
    1     4.727e+00  
    2     6.433e+00  
    3     1.184e+00  
    4     2.988e-01  
    5     7.554e-02  
    6     3.240e-02  
    7     9.870e-03  
    8     1.816e-03  
    9     6.887e-04  
   10     1.161e-04  
   11     3.799e-05  
   12     5.917e-06  
   13     2.025e-06  
   14     5.849e-07  Converged.
   ... Converged in 14 steps (norm: 5.84902e-07)
------------------------------------
  Starting TPA DIIS iterations ... 
------------------------------------ 
   It     Res. Norm  Remark
------------------------------------
                       Guess.
    1     4.501e+00  
    2     6.114e+00  
    3     1.130e+00  
    4     2.964e-01  
    5     7.526e-02  
    6     3.242e-02  
    7     9.706e-03  
    8     1.841e-03  
    9     6.996e-04  
   10     1.156e-04  
   11     3.834e-05  
   12     5.875e-06  
   13     2.060e-06  
   14     5.790e-07  Converged.
   ... Converged in 14 steps (norm: 5.7899e-07)
------------------------------------
  Starting TPA DIIS iterations ... 
------------------------------------ 
   It     Res. Norm  Remark
------------------------------------
                       Guess.
    1     7.013e-01  
    2     5.010e-01  
    3     1.807e-01  
    4     7.351e-02  
    5     2.055e-02  
    6     7.492e-03  
    7     1.252e-03  
    8     5.678e-04  
    9     1.608e-04  
   10     3.713e-05  
   11     5.928e-06  
   12     2.230e-06  
   13     1.128e-06  
   14     4.195e-07  Converged.
   ... Converged in 14 steps (norm: 4.1951e-07)
------------------------------------
  Starting TPA DIIS iterations ... 
------------------------------------ 
   It     Res. Norm  Remark
------------------------------------
                       Guess.
    1     5.365e+00  
    2     7.616e+00  
    3     1.365e+00  
    4     3.695e-01  
    5     9.558e-02  
    6     4.176e-02  
    7     1.265e-02  
    8     2.323e-03  
    9     8.937e-04  
   10     1.521e-04  
   11     5.080e-05  
   12     8.022e-06  
   13     2.794e-06  
   14     7.987e-07  Converged.
   ... Converged in 14 steps (norm: 7.98706e-07)
------------------------------------
  Starting TPA DIIS iterations ... 
------------------------------------ 
   It     Res. Norm  Remark
------------------------------------
                       Guess.
    1     5.106e+00  
    2     7.237e+00  
    3     1.302e+00  
    4     3.658e-01  
    5     9.525e-02  
    6     4.184e-02  
    7     1.245e-02  
    8     2.359e-03  
    9     9.087e-04  
   10     1.515e-04  
   11     5.120e-05  
   12     7.955e-06  
   13     2.845e-06  
   14     7.903e-07  Converged.
   ... Converged in 14 steps (norm: 7.90327e-07)
------------------------------------
  Starting TPA DIIS iterations ... 
------------------------------------ 
   It     Res. Norm  Remark
------------------------------------
                       Guess.
    1     7.253e-01  
    2     5.370e-01  
    3     2.018e-01  
    4     9.437e-02  
    5     2.371e-02  
    6     8.992e-03  
    7     1.600e-03  
    8     7.846e-04  
    9     2.286e-04  
   10     4.411e-05  
   11     7.502e-06  
   12     3.077e-06  
   13     1.739e-06  
   14     6.011e-07  Converged.
   ... Converged in 14 steps (norm: 6.01122e-07)
------------------------------------
  Starting TPA DIIS iterations ... 
------------------------------------ 
   It     Res. Norm  Remark
------------------------------------
                       Guess.
    1     5.918e+00  
    2     8.678e+00  
    3     1.521e+00  
    4     4.356e-01  
    5     1.143e-01  
    6     5.063e-02  
    7     1.526e-02  
    8     2.795e-03  
    9     1.087e-03  
   10     1.863e-04  
   11     6.315e-05  
   12     1.006e-05  
   13     3.554e-06  
   14     1.009e-06  
   15     3.290e-07  Converged.
   ... Converged in 15 steps (norm: 3.29001e-07)
------------------------------------
  Starting TPA DIIS iterations ... 
------------------------------------ 
   It     Res. Norm  Remark
------------------------------------
                       Guess.
    1     5.631e+00  
    2     8.246e+00  
    3     1.450e+00  
    4     4.306e-01  
    5     1.139e-01  
    6     5.077e-02  
    7     1.501e-02  
    8     2.842e-03  
    9     1.106e-03  
   10     1.855e-04  
   11     6.358e-05  
   12     9.960e-06  
   13     3.620e-06  
   14     9.991e-07  Converged.
   ... Converged in 14 steps (norm: 9.99065e-07)
------------------------------------
  Starting TPA DIIS iterations ... 
------------------------------------ 
   It     Res. Norm  Remark
------------------------------------
                       Guess.
    1     7.436e-01  
    2     5.661e-01  
    3     2.194e-01  
    4     1.144e-01  
    5     2.647e-02  
    6     1.040e-02  
    7     1.943e-03  
    8     9.887e-04  
    9     2.905e-04  
   10     4.699e-05  
   11     8.969e-06  
   12     3.908e-06  
   13     2.400e-06  
   14     7.791e-07  Converged.
   ... Converged in 14 steps (norm: 7.79093e-07)
------------------------------------
  Starting TPA DIIS iterations ... 
------------------------------------ 
   It     Res. Norm  Remark
------------------------------------
                       Guess.
    1     6.465e+00  
    2     9.757e+00  
    3     1.675e+00  
    4     5.048e-01  
    5     1.339e-01  
    6     6.001e-02  
    7     1.799e-02  
    8     3.289e-03  
    9     1.292e-03  
   10     2.224e-04  
   11     7.633e-05  
   12     1.223e-05  
   13     4.377e-06  
   14     1.242e-06  
   15     4.079e-07  Converged.
   ... Converged in 15 steps (norm: 4.07924e-07)
------------------------------------
  Starting TPA DIIS iterations ... 
------------------------------------ 
   It     Res. Norm  Remark
------------------------------------
                       Guess.
    1     6.150e+00  
    2     9.271e+00  
    3     1.596e+00  
    4     4.984e-01  
    5     1.334e-01  
    6     6.022e-02  
    7     1.770e-02  
    8     3.348e-03  
    9     1.315e-03  
   10     2.215e-04  
   11     7.676e-05  
   12     1.210e-05  
   13     4.457e-06  
   14     1.230e-06  
   15     4.066e-07  Converged.
   ... Converged in 15 steps (norm: 4.06569e-07)
------------------------------------
  Starting TPA DIIS iterations ... 
------------------------------------ 
   It     Res. Norm  Remark
------------------------------------
                       Guess.
    1     7.600e-01  
    2     5.933e-01  
    3     2.363e-01  
    4     1.357e-01  
    5     2.928e-02  
    6     1.188e-02  
    7     2.318e-03  
    8     1.191e-03  
    9     3.514e-04  
   10     4.842e-05  
   11     1.054e-05  
   12     4.797e-06  
   13     3.157e-06  
   14     9.703e-07  Converged.
   ... Converged in 14 steps (norm: 9.70317e-07)
------------------------------------
  Starting TPA DIIS iterations ... 
------------------------------------ 
   It     Res. Norm  Remark
------------------------------------
                       Guess.
    1     8.202e+00  
    2     1.336e+01  
    3     2.154e+00  
    4     7.467e-01  
    5     2.023e-01  
    6     9.346e-02  
    7     2.754e-02  
    8     5.008e-03  
    9     2.019e-03  
   10     3.505e-04  
   11     1.227e-04  
   12     2.000e-05  
   13     7.291e-06  
   14     2.150e-06  
   15     6.945e-07  Converged.
   ... Converged in 15 steps (norm: 6.9451e-07)
------------------------------------
  Starting TPA DIIS iterations ... 
------------------------------------ 
   It     Res. Norm  Remark
------------------------------------
                       Guess.
    1     7.798e+00  
    2     1.269e+01  
    3     2.051e+00  
    4     7.344e-01  
    5     2.017e-01  
    6     9.397e-02  
    7     2.712e-02  
    8     5.113e-03  
    9     2.057e-03  
   10     3.490e-04  
   11     1.231e-04  
   12     1.974e-05  
   13     7.415e-06  
   14     2.131e-06  
   15     6.908e-07  Converged.
   ... Converged in 15 steps (norm: 6.90834e-07)
------------------------------------
  Starting TPA DIIS iterations ... 
------------------------------------ 
   It     Res. Norm  Remark
------------------------------------
                       Guess.
    1     8.032e-01  
    2     6.717e-01  
    3     2.873e-01  
    4     2.103e-01  
    5     3.879e-02  
    6     1.705e-02  
    7     3.728e-03  
    8     1.726e-03  
    9     5.314e-04  
   10     5.524e-05  
   11     1.633e-05  
   12     7.855e-06  
   13     6.039e-06  
   14     1.656e-06  
   15     5.994e-07  Converged.
   ... Converged in 15 steps (norm: 5.99425e-07)
------------------------------------
  Starting TPA DIIS iterations ... 
------------------------------------ 
   It     Res. Norm  Remark
------------------------------------
                       Guess.
    1     1.005e+01  
    2     1.745e+01  
    3     2.650e+00  
    4     1.032e+00  
    5     2.837e-01  
    6     1.342e-01  
    7     3.892e-02  
    8     7.045e-03  
    9     2.899e-03  
   10     5.048e-04  
   11     1.761e-04  
   12     2.957e-05  
   13     1.063e-05  
   14     3.397e-06  
   15     1.096e-06  
   16     2.518e-07  Converged.
   ... Converged in 16 steps (norm: 2.51757e-07)
------------------------------------
  Starting TPA DIIS iterations ... 
------------------------------------ 
   It     Res. Norm  Remark
------------------------------------
                       Guess.
    1     9.548e+00  
    2     1.658e+01  
    3     2.523e+00  
    4     1.012e+00  
    5     2.829e-01  
    6     1.351e-01  
    7     3.833e-02  
    8     7.209e-03  
    9     2.955e-03  
   10     5.025e-04  
   11     1.764e-04  
   12     2.915e-05  
   13     1.080e-05  
   14     3.357e-06  
   15     1.094e-06  
   16     2.644e-07  Converged.
   ... Converged in 16 steps (norm: 2.64421e-07)
------------------------------------
  Starting TPA DIIS iterations ... 
------------------------------------ 
   It     Res. Norm  Remark
------------------------------------
                       Guess.
    1     8.393e-01  
    2     7.453e-01  
    3     3.375e-01  
    4     2.930e-01  
    5     4.971e-02  
    6     2.300e-02  
    7     5.502e-03  
    8     2.046e-03  
    9     7.018e-04  
   10     7.242e-05  
   11     2.367e-05  
   12     1.115e-05  
   13     9.359e-06  
   14     2.483e-06  
   15     8.177e-07  Converged.
   ... Converged in 15 steps (norm: 8.17729e-07)
------------------------------------
  Starting TPA DIIS iterations ... 
------------------------------------ 
   It     Res. Norm  Remark
------------------------------------
                       Guess.
    1     1.101e+01  
    2     1.968e+01  
    3     2.905e+00  
    4     1.190e+00  
    5     3.292e-01  
    6     1.574e-01  
    7     4.528e-02  
    8     8.182e-03  
    9     3.397e-03  
   10     5.914e-04  
   11     2.048e-04  
   12     3.516e-05  
   13     1.251e-05  
   14     4.150e-06  
   15     1.393e-06  
   16     3.188e-07  Converged.
   ... Converged in 16 steps (norm: 3.1877e-07)
------------------------------------
  Starting TPA DIIS iterations ... 
------------------------------------ 
   It     Res. Norm  Remark
------------------------------------
                       Guess.
    1     1.046e+01  
    2     1.870e+01  
    3     2.764e+00  
    4     1.165e+00  
    5     3.283e-01  
    6     1.585e-01  
    7     4.461e-02  
    8     8.379e-03  
    9     3.463e-03  
   10     5.886e-04  
   11     2.052e-04  
   12     3.464e-05  
   13     1.271e-05  
   14     4.091e-06  
   15     1.394e-06  
   16     3.340e-07  Converged.
   ... Converged in 16 steps (norm: 3.34e-07)
------------------------------------
  Starting TPA DIIS iterations ... 
------------------------------------ 
   It     Res. Norm  Remark
------------------------------------
                       Guess.
    1     8.554e-01  
    2     7.808e-01  
    3     3.625e-01  
    4     3.346e-01  
    5     5.565e-02  
    6     2.613e-02  
    7     6.503e-03  
    8     2.135e-03  
    9     7.852e-04  
   10     8.387e-05  
   11     2.787e-05  
   12     1.284e-05  
   13     1.104e-05  
   14     2.939e-06  
   15     9.126e-07  Converged.
   ... Converged in 15 steps (norm: 9.12646e-07)
------------------------------------
  Starting TPA DIIS iterations ... 
------------------------------------ 
   It     Res. Norm  Remark
------------------------------------
                       Guess.
    1     1.140e+01  
    2     2.062e+01  
    3     3.009e+00  
    4     1.257e+00  
    5     3.485e-01  
    6     1.673e-01  
    7     4.799e-02  
    8     8.664e-03  
    9     3.610e-03  
   10     6.283e-04  
   11     2.168e-04  
   12     3.759e-05  
   13     1.332e-05  
   14     4.480e-06  
   15     1.539e-06  
   16     3.489e-07  Converged.
   ... Converged in 16 steps (norm: 3.48871e-07)
------------------------------------
  Starting TPA DIIS iterations ... 
------------------------------------ 
   It     Res. Norm  Remark
------------------------------------
                       Guess.
    1     1.084e+01  
    2     1.959e+01  
    3     2.863e+00  
    4     1.229e+00  
    5     3.476e-01  
    6     1.686e-01  
    7     4.728e-02  
    8     8.876e-03  
    9     3.679e-03  
   10     6.253e-04  
   11     2.173e-04  
   12     3.703e-05  
   13     1.353e-05  
   14     4.412e-06  
   15     1.541e-06  
   16     3.642e-07  Converged.
   ... Converged in 16 steps (norm: 3.6422e-07)
------------------------------------
  Starting TPA DIIS iterations ... 
------------------------------------ 
   It     Res. Norm  Remark
------------------------------------
                       Guess.
    1     8.616e-01  
    2     7.951e-01  
    3     3.725e-01  
    4     3.512e-01  
    5     5.814e-02  
    6     2.742e-02  
    7     6.927e-03  
    8     2.162e-03  
    9     8.188e-04  
   10     8.884e-05  
   11     2.967e-05  
   12     1.354e-05  
   13     1.173e-05  
   14     3.129e-06  
   15     9.494e-07  Converged.
   ... Converged in 15 steps (norm: 9.49366e-07)
------------------------------------
  Two-photon absorbption ...  CPU 154.76 s  wall 41.79 s
  Transition density matrix of state singlet_A_1 printed to ASCII file 'State_singlet_A_1_Transition.txt'
  Transition density matrix of state singlet_A_2 printed to ASCII file 'State_singlet_A_2_Transition.txt'
  Transition density matrix of state singlet_A_3 printed to ASCII file 'State_singlet_A_3_Transition.txt'
  Transition density matrix of state singlet_A_4 printed to ASCII file 'State_singlet_A_4_Transition.txt'
  Transition density matrix of state singlet_A_5 printed to ASCII file 'State_singlet_A_5_Transition.txt'
  Transition density matrix of state singlet_A_6 printed to ASCII file 'State_singlet_A_6_Transition.txt'
  Transition density matrix of state singlet_A_7 printed to ASCII file 'State_singlet_A_7_Transition.txt'
  Transition density matrix of state singlet_A_8 printed to ASCII file 'State_singlet_A_8_Transition.txt'
  Transition density matrix of state singlet_A_9 printed to ASCII file 'State_singlet_A_9_Transition.txt'
  Transition density matrix of state singlet_A_10 printed to ASCII file 'State_singlet_A_10_Transition.txt'
  Transition properties ...  CPU 0.36 s  wall 0.67 s
  Difference density matrix of state singlet_A_1 printed to ASCII file 'State_singlet_A_1_Difference.txt'
  Total density matrix of state singlet_A_1 printed to ASCII file 'State_singlet_A_1_Total.txt'
  Difference density matrix of state singlet_A_2 printed to ASCII file 'State_singlet_A_2_Difference.txt'
  Total density matrix of state singlet_A_2 printed to ASCII file 'State_singlet_A_2_Total.txt'
  Difference density matrix of state singlet_A_3 printed to ASCII file 'State_singlet_A_3_Difference.txt'
  Total density matrix of state singlet_A_3 printed to ASCII file 'State_singlet_A_3_Total.txt'
  Difference density matrix of state singlet_A_4 printed to ASCII file 'State_singlet_A_4_Difference.txt'
  Total density matrix of state singlet_A_4 printed to ASCII file 'State_singlet_A_4_Total.txt'
  Difference density matrix of state singlet_A_5 printed to ASCII file 'State_singlet_A_5_Difference.txt'
  Total density matrix of state singlet_A_5 printed to ASCII file 'State_singlet_A_5_Total.txt'
  Difference density matrix of state singlet_A_6 printed to ASCII file 'State_singlet_A_6_Difference.txt'
  Total density matrix of state singlet_A_6 printed to ASCII file 'State_singlet_A_6_Total.txt'
  Difference density matrix of state singlet_A_7 printed to ASCII file 'State_singlet_A_7_Difference.txt'
  Total density matrix of state singlet_A_7 printed to ASCII file 'State_singlet_A_7_Total.txt'
  Difference density matrix of state singlet_A_8 printed to ASCII file 'State_singlet_A_8_Difference.txt'
  Total density matrix of state singlet_A_8 printed to ASCII file 'State_singlet_A_8_Total.txt'
  Difference density matrix of state singlet_A_9 printed to ASCII file 'State_singlet_A_9_Difference.txt'
  Total density matrix of state singlet_A_9 printed to ASCII file 'State_singlet_A_9_Total.txt'
  Difference density matrix of state singlet_A_10 printed to ASCII file 'State_singlet_A_10_Difference.txt'
  Total density matrix of state singlet_A_10 printed to ASCII file 'State_singlet_A_10_Total.txt'
  Properties ...  CPU 0.66 s  wall 1.11 s
  ISR TDMS ...  CPU 29.81 s  wall 9.74 s
  ISR transition properties ...  CPU 0.53 s  wall 0.26 s
  Sum-over-states TPA ...  CPU 0.00 s  wall 0.00 s

--------------------------------------------------------------------------------
                   State-averaged natural transition orbitals
--------------------------------------------------------------------------------
--------------------------------------------------------------------------------
  SA-NTO decomposition ...  CPU 0.01 s  wall 0.04 s

--------------------------------------------------------------------------------
                             Excited State Summary
--------------------------------------------------------------------------------
--------------------------------------------------------------------------------

  Excited state 1 (singlet, A)                                     [converged]
  ----------------------------------------------------------------------------
  Term symbol:  2 (1) A                                     R^2 =  1.71135e-10

  Total energy:                                            -77.9984808107 a.u.
  Excitation energy:                                               8.751235 eV

  Osc. strength:                                                      0.447191
  Trans. dip. moment [a.u.]:           [  -1.047171,    0.994538,    0.009710]
  <i|r^2|0> [a.u.]:                    [  -6.179315,    0.245450,   -0.000161]
  Two-photon absorption cross-section (SoS) [a.u.]:                   0.000000
  Two-photon absorption matrix (SoS) [a.u.]:
                                       |   -0.000031    0.000006   -0.000044 |
                                       |    0.000006   -0.000008   -0.000078 |
                                       |   -0.000044   -0.000078   -0.000030 |
  Two-photon absorption cross-section [a.u.]:                         0.000001
  Two-photon absorption matrix [a.u.]:
                                       |   -0.000022   -0.000017    0.000259 |
                                       |   -0.000017    0.000011    0.000214 |
                                       |    0.000259    0.000214    0.000042 |

  Dip. moment [a.u.]:                  [  -0.000004,    0.000000,    0.000019]
  Total dipole [Debye]:                                               0.000050
  <r^2> [a.u.]:                        [ 176.560457,   35.975987,   11.918314]
  Total <r^2> [a.u.]:                                               224.454758

  V1^2 = 0.9713, V2^2 = 0.0287

  Important amplitudes:
      occ i     occ j     vir a      vir b          v   
    -----------------------------------------------------
     8 (A) A              9 (A) A                -0.6809
     4 (A) A             10 (A) A                -0.0617
     6 (A) A             14 (A) A                 0.0613
     7 (A) A             16 (A) A                 0.0575
     5 (A) A             13 (A) A                 0.0528
     6 (A) A             23 (A) A                 0.0485
     8 (A) A             20 (A) A                -0.0348
     6 (A) A             19 (A) A                 0.0298
     3 (A) A             12 (A) A                 0.0284
     5 (A) A             22 (A) A                -0.0219
     4 (A) A             24 (A) A                -0.0188
     3 (A) A             26 (A) A                -0.0187
     7 (A) A             11 (A) A                -0.0186
     8 (A) A   8 (A) B   17 (A) A   20 (A) B      0.0184
     8 (A) A   8 (A) B    9 (A) A   28 (A) B      0.0168
     6 (A) A             26 (A) A                -0.0164
     7 (A) A             21 (A) A                 0.0153
     3 (A) A             14 (A) A                 0.0142
     6 (A) A             12 (A) A                -0.0141
     3 (A) A   4 (A) B    9 (A) A    9 (A) B      0.0129
     3 (A) A             19 (A) A                 0.0120
     8 (A) A   8 (A) B   18 (A) A   19 (A) B     -0.0110
     7 (A) A             32 (A) A                 0.0098
     7 (A) A             36 (A) A                 0.0086
     3 (A) A             23 (A) A                 0.0083
     8 (A) A   8 (A) B   25 (A) A   29 (A) B      0.0076
     6 (A) A             35 (A) A                -0.0072
     6 (A) A             40 (A) A                 0.0067
     3 (A) A   6 (A) B    9 (A) A   28 (A) B      0.0065
     5 (A) A   8 (A) B   11 (A) A    9 (A) B      0.0062
     7 (A) A   8 (A) B   13 (A) A   20 (A) B      0.0060
     5 (A) A   8 (A) B   11 (A) A   20 (A) B     -0.0060
     5 (A) A   7 (A) B    9 (A) A    9 (A) B     -0.0060
     5 (A) A   8 (A) B   16 (A) A    9 (A) B      0.0060
     6 (A) A   8 (A) A   19 (A) A   28 (A) A      0.0059
     5 (A) A             27 (A) A                 0.0059
     3 (A) A   5 (A) B    9 (A) A   25 (A) B      0.0058
     7 (A) A   8 (A) B   22 (A) A   20 (A) B     -0.0057
     3 (A) A             40 (A) A                 0.0056
     8 (A) A   8 (A) B   19 (A) A   30 (A) B     -0.0056
    -----------------------------------------------------

  Density matrix analysis:
  ------------------------
  NOs
    Occupation of frontier NOs:
       0.9491   1.0220
    Number of electrons: 16.000000
    Number of unpaired electrons: n_u =  2.31664, n_u,nl =  2.03322
    NO participation ratio (PR_NO):  2.873826
  
  
  Mulliken Population Analysis
  Atom      Charge (e)              h+              e-           Del q
  --------------------------------------------------------------------
   1 H        0.062905        0.020505       -0.012440        0.008065
   2 C       -0.125813        0.490819       -0.506950       -0.016131
   3 H        0.062915        0.020506       -0.012440        0.008067
   4 C       -0.125825        0.490818       -0.506951       -0.016133
   5 H        0.062914        0.020506       -0.012439        0.008067
   6 H        0.062903        0.020505       -0.012440        0.008065
  --------------------------------------------------------------------
  Sum:        0.000000        1.063659       -1.063659       -0.000000
  
  Multipole moment analysis of the density matrix
    Molecular charge:                      0.000000
    Number of electrons:                   16.000000
      Center of electronic charge [Ang]: [ -1.561338,  -0.065287,   0.002126]
    Total nuclear charge:                  16.000000
      Center of nuclear charge [Ang]:    [ -1.561339,  -0.065287,   0.002127]
    Dipole moment [D]:                     0.000050
      Cartesian components [D]:          [ -0.000010,   0.000001,   0.000049]
    RMS size of the density [Ang]:         1.219145
      Cartesian components [Ang]:        [  0.807679,   0.790811,   0.456713]
  
  Exciton analysis of the difference density matrix
    <r_h> [Ang]:                  [ -1.561336,  -0.065288,   0.002119]
    <r_e> [Ang]:                  [ -1.561336,  -0.065287,   0.002117]
    |<r_e - r_h>| [Ang]:            0.000002
    Hole size [Ang]:                1.286937
      Cartesian components [Ang]: [  0.729935,   0.714585,   0.782796]
    Electron size [Ang]:            1.463919
      Cartesian components [Ang]: [  0.854233,   0.831634,   0.849547]

  Transition density matrix analysis:
  -----------------------------------
  
  CT numbers (Mulliken)
    omega =     0.9532
    <Phe> =    -0.1597
  
  Exciton analysis of the transition density matrix
    Trans. dipole moment [D]:             1.835418
      Cartesian components [D]:         [ -1.330821,   1.263931,   0.012341]
    <r_h> [Ang]:                        [ -1.561335,  -0.065289,   0.002120]
    <r_e> [Ang]:                        [ -1.561336,  -0.065287,   0.002116]
    |<r_e - r_h>| [Ang]:                  0.000005
    Hole size [Ang]:                      1.213585
      Cartesian components [Ang]:       [  0.649297,   0.636477,   0.803802]
    Electron size [Ang]:                  1.487073
      Cartesian components [Ang]:       [  0.864826,   0.840635,   0.869940]
    RMS electron-hole separation [Ang]:   1.936451
      Cartesian components [Ang]:       [  1.106058,   1.075628,   1.170258]
    Covariance(r_h, r_e) [Ang^2]:        -0.032834
    Correlation coefficient:             -0.018194
    Center-of-mass size [Ang]:            0.951118
      Cartesian components [Ang]:       [  0.528123,   0.516373,   0.599225]

  Decomposition into state-averaged NTOs
    H- 0 -> L+ 0: -0.6697 ( 89.7%)
    H- 2 -> L+ 5: -0.0826 (  1.4%)
                   omega =  95.3%
  ----------------------------------------------------------------------------


  Excited state 2 (singlet, A)                                     [converged]
  ----------------------------------------------------------------------------
  Term symbol:  3 (1) A                                     R^2 =  1.92911e-11

  Total energy:                                            -77.9908437830 a.u.
  Excitation energy:                                               8.959049 eV

  Osc. strength:                                                      0.000000
  Trans. dip. moment [a.u.]:           [   0.000580,   -0.000533,   -0.000010]
  <i|r^2|0> [a.u.]:                    [   0.069427,    0.086795,   -0.152933]
  Two-photon absorption cross-section (SoS) [a.u.]:                   4.589772
  Two-photon absorption matrix (SoS) [a.u.]:
                                       |    0.050038    0.057560   -0.515825 |
                                       |    0.057560    0.065732   -0.542419 |
                                       |   -0.515825   -0.542419   -0.115772 |
  Two-photon absorption cross-section [a.u.]:                         0.169604
  Two-photon absorption matrix [a.u.]:
                                       |   -0.008830   -0.011024    0.099196 |
                                       |   -0.011024   -0.013424    0.104223 |
                                       |    0.099196    0.104223    0.022254 |

  Dip. moment [a.u.]:                  [  -0.000049,    0.000054,    0.000037]
  Total dipole [Debye]:                                               0.000207
  <r^2> [a.u.]:                        [ 174.899206,   34.325006,   13.211855]
  Total <r^2> [a.u.]:                                               222.436068

  V1^2 = 0.9541, V2^2 = 0.0459

  Important amplitudes:
      occ i     occ j     vir a      vir b          v   
    -----------------------------------------------------
     7 (A) A              9 (A) A                 0.6684
     8 (A) A             11 (A) A                 0.1521
     7 (A) A             20 (A) A                 0.0756
     5 (A) A   8 (A) B    9 (A) A    9 (A) B      0.0314
     8 (A) A             16 (A) A                 0.0281
     8 (A) A             21 (A) A                -0.0178
     5 (A) A             28 (A) A                 0.0150
     4 (A) A   7 (A) B    9 (A) A   19 (A) B      0.0136
     5 (A) A   7 (A) B    9 (A) A   16 (A) B      0.0134
     7 (A) A   8 (A) B   20 (A) A   17 (A) B     -0.0106
     7 (A) A   8 (A) A    9 (A) A   28 (A) A      0.0098
     5 (A) A   8 (A) B    9 (A) A   20 (A) B      0.0094
     4 (A) A   6 (A) B    9 (A) A   16 (A) B      0.0091
     5 (A) A   6 (A) A    9 (A) A   23 (A) A      0.0090
     5 (A) A   6 (A) A    9 (A) A   14 (A) A      0.0088
     8 (A) A   7 (A) B    9 (A) A   28 (A) B     -0.0085
     6 (A) A   7 (A) B    9 (A) A   18 (A) B     -0.0085
     4 (A) A   5 (A) A    9 (A) A   10 (A) A      0.0085
     5 (A) A   6 (A) B    9 (A) A   19 (A) B      0.0085
     5 (A) A   6 (A) B    9 (A) A   23 (A) B      0.0080
     3 (A) A   7 (A) B    9 (A) A   18 (A) B      0.0080
     5 (A) A   7 (A) A    9 (A) A   16 (A) A      0.0078
     4 (A) A   8 (A) B    9 (A) A   25 (A) B      0.0076
     4 (A) A   7 (A) B   19 (A) A    9 (A) B      0.0075
     7 (A) A   8 (A) B   17 (A) A   20 (A) B     -0.0074
     5 (A) A   5 (A) B    9 (A) A   13 (A) B      0.0072
     7 (A) A   8 (A) B   19 (A) A   18 (A) B      0.0071
     4 (A) A   5 (A) B    9 (A) A   18 (A) B     -0.0069
     5 (A) A   8 (A) A    9 (A) A   20 (A) A      0.0068
     7 (A) A   7 (A) B   20 (A) A   22 (A) B      0.0066
     7 (A) A   8 (A) B   17 (A) A    9 (A) B     -0.0064
     5 (A) A   6 (A) B    9 (A) A   14 (A) B      0.0062
     5 (A) A   7 (A) B   11 (A) A   20 (A) B      0.0062
     4 (A) A   5 (A) B   10 (A) A    9 (A) B     -0.0061
     4 (A) A   7 (A) A    9 (A) A   19 (A) A      0.0061
     5 (A) A             38 (A) A                 0.0060
     4 (A) A   7 (A) B    9 (A) A   14 (A) B     -0.0059
     4 (A) A   8 (A) A    9 (A) A   25 (A) A      0.0057
     6 (A) A   7 (A) A   19 (A) A   28 (A) A     -0.0056
     5 (A) A   7 (A) A   11 (A) A   20 (A) A      0.0054
    -----------------------------------------------------

  Density matrix analysis:
  ------------------------
  NOs
    Occupation of frontier NOs:
       0.9554   1.0557
    Number of electrons: 16.000000
    Number of unpaired electrons: n_u =  2.35813, n_u,nl =  2.06513
    NO participation ratio (PR_NO):  3.047459
  
  
  Mulliken Population Analysis
  Atom      Charge (e)              h+              e-           Del q
  --------------------------------------------------------------------
   1 H        0.154889        0.124960       -0.024911        0.100049
   2 C       -0.309773        0.272365       -0.472456       -0.200091
   3 H        0.154877        0.124948       -0.024920        0.100029
   4 C       -0.309781        0.272383       -0.472472       -0.200089
   5 H        0.154891        0.124958       -0.024914        0.100043
   6 H        0.154897        0.124973       -0.024914        0.100059
  --------------------------------------------------------------------
  Sum:        0.000000        1.044587       -1.044587        0.000000
  
  Multipole moment analysis of the density matrix
    Molecular charge:                      0.000000
    Number of electrons:                   16.000000
      Center of electronic charge [Ang]: [ -1.561337,  -0.065288,   0.002126]
    Total nuclear charge:                  16.000000
      Center of nuclear charge [Ang]:    [ -1.561339,  -0.065287,   0.002127]
    Dipole moment [D]:                     0.000207
      Cartesian components [D]:          [ -0.000124,   0.000136,   0.000094]
    RMS size of the density [Ang]:         1.204569
      Cartesian components [Ang]:        [  0.789477,   0.772325,   0.480860]
  
  Exciton analysis of the difference density matrix
    <r_h> [Ang]:                  [ -1.561371,  -0.065262,   0.002129]
    <r_e> [Ang]:                  [ -1.561348,  -0.065288,   0.002118]
    |<r_e - r_h>| [Ang]:            0.000036
    Hole size [Ang]:                1.495794
      Cartesian components [Ang]: [  1.013526,   1.000975,   0.456303]
    Electron size [Ang]:            1.480557
      Cartesian components [Ang]: [  0.884573,   0.862351,   0.816045]

  Transition density matrix analysis:
  -----------------------------------
  
  CT numbers (Mulliken)
    omega =     0.9215
    <Phe> =    -0.0114
  
  Exciton analysis of the transition density matrix
    Trans. dipole moment [D]:             0.001001
      Cartesian components [D]:         [  0.000737,  -0.000678,  -0.000013]
    <r_h> [Ang]:                        [ -1.561376,  -0.065257,   0.002131]
    <r_e> [Ang]:                        [ -1.561344,  -0.065291,   0.002116]
    |<r_e - r_h>| [Ang]:                  0.000049
    Hole size [Ang]:                      1.526574
      Cartesian components [Ang]:       [  1.038213,   1.025633,   0.447905]
    Electron size [Ang]:                  1.476036
      Cartesian components [Ang]:       [  0.873598,   0.850597,   0.831863]
    RMS electron-hole separation [Ang]:   2.103525
      Cartesian components [Ang]:       [  1.340862,   1.317480,   0.944009]
    Covariance(r_h, r_e) [Ang^2]:         0.042147
    Correlation coefficient:              0.018705
    Center-of-mass size [Ang]:            1.071612
      Cartesian components [Ang]:       [  0.686332,   0.673632,   0.472778]

  Decomposition into state-averaged NTOs
    H- 1 -> L+ 0:  0.6607 ( 87.3%)
    H- 0 -> L+ 2: -0.1520 (  4.6%)
                   omega =  92.2%
  ----------------------------------------------------------------------------


  Excited state 3 (singlet, A)                                     [converged]
  ----------------------------------------------------------------------------
  Term symbol:  4 (1) A                                     R^2 =  2.92874e-11

  Total energy:                                            -77.9839428269 a.u.
  Excitation energy:                                               9.146834 eV

  Osc. strength:                                                      0.023451
  Trans. dip. moment [a.u.]:           [   0.015350,    0.019618,   -0.322536]
  <i|r^2|0> [a.u.]:                    [   0.090357,    0.005039,    0.002602]
  Two-photon absorption cross-section (SoS) [a.u.]:                   0.000016
  Two-photon absorption matrix (SoS) [a.u.]:
                                       |   -0.001373   -0.000072   -0.000152 |
                                       |   -0.000072    0.001436    0.000033 |
                                       |   -0.000152    0.000033    0.000132 |
  Two-photon absorption cross-section [a.u.]:                         0.000009
  Two-photon absorption matrix [a.u.]:
                                       |   -0.000933   -0.000074   -0.000134 |
                                       |   -0.000074    0.001099    0.000039 |
                                       |   -0.000134    0.000039    0.000077 |

  Dip. moment [a.u.]:                  [   0.000037,    0.000054,   -0.000016]
  Total dipole [Debye]:                                               0.000171
  <r^2> [a.u.]:                        [ 181.328081,   40.956212,   11.053386]
  Total <r^2> [a.u.]:                                               233.337679

  V1^2 = 0.9580, V2^2 = 0.0420

  Important amplitudes:
      occ i     occ j     vir a      vir b          v   
    -----------------------------------------------------
     8 (A) A             10 (A) A                 0.6887
     8 (A) A             24 (A) A                 0.0509
     8 (A) A             18 (A) A                -0.0332
     4 (A) A              9 (A) A                 0.0248
     8 (A) A   8 (A) B    9 (A) A   12 (A) B     -0.0223
     8 (A) A   8 (A) B   10 (A) A   17 (A) B      0.0172
     5 (A) A   8 (A) B   11 (A) A   10 (A) B     -0.0169
     8 (A) A             15 (A) A                 0.0150
     7 (A) A   8 (A) B   13 (A) A   10 (A) B      0.0143
     4 (A) A   8 (A) B   12 (A) A   10 (A) B     -0.0113
     6 (A) A   8 (A) A   10 (A) A   15 (A) A     -0.0112
     7 (A) A   8 (A) B   22 (A) A   10 (A) B     -0.0109
     6 (A) A   8 (A) B   15 (A) A   10 (A) B      0.0109
     4 (A) A   8 (A) A   10 (A) A   12 (A) A      0.0108
     7 (A) A   8 (A) A   10 (A) A   22 (A) A      0.0099
     7 (A) A   8 (A) A   10 (A) A   13 (A) A     -0.0098
     5 (A) A   8 (A) A   10 (A) A   11 (A) A      0.0097
     5 (A) A   8 (A) B   21 (A) A   10 (A) B      0.0094
     6 (A) A   8 (A) B   10 (A) A   10 (A) B     -0.0090
     6 (A) A   8 (A) A   10 (A) A   18 (A) A     -0.0086
     7 (A) A   8 (A) A   12 (A) A   16 (A) A      0.0084
     3 (A) A   4 (A) B   10 (A) A    9 (A) B     -0.0080
     5 (A) A   8 (A) A   10 (A) A   21 (A) A     -0.0079
     4 (A) A   8 (A) B   19 (A) A   10 (A) B     -0.0076
     8 (A) A   8 (A) B    9 (A) A   23 (A) B      0.0075
     8 (A) A   8 (A) B   10 (A) A   28 (A) B     -0.0074
     5 (A) A   8 (A) B   10 (A) A   11 (A) B     -0.0072
     7 (A) A   8 (A) B   16 (A) A   12 (A) B     -0.0072
     3 (A) A   8 (A) A   10 (A) A   24 (A) A     -0.0072
     3 (A) A   8 (A) B   10 (A) A   10 (A) B      0.0071
     8 (A) A   8 (A) B    9 (A) A   19 (A) B     -0.0070
     3 (A) A   8 (A) B   10 (A) A   18 (A) B     -0.0068
     6 (A) A   8 (A) B   18 (A) A   10 (A) B      0.0065
     3 (A) A   6 (A) B   10 (A) A   28 (A) B     -0.0062
     7 (A) A   8 (A) B   12 (A) A   11 (A) B     -0.0059
     6 (A) A             28 (A) A                 0.0058
     5 (A) A   8 (A) A   10 (A) A   16 (A) A      0.0057
     3 (A) A   5 (A) B   10 (A) A   25 (A) B     -0.0056
     6 (A) A   8 (A) A   11 (A) A   16 (A) A      0.0055
     4 (A) A   8 (A) A   10 (A) A   23 (A) A     -0.0055
    -----------------------------------------------------

  Density matrix analysis:
  ------------------------
  NOs
    Occupation of frontier NOs:
       0.9813   0.9847
    Number of electrons: 16.000000
    Number of unpaired electrons: n_u =  2.28856, n_u,nl =  2.02502
    NO participation ratio (PR_NO):  2.700854
  
  
  Mulliken Population Analysis
  Atom      Charge (e)              h+              e-           Del q
  --------------------------------------------------------------------
   1 H       -0.154760        0.054395       -0.263995       -0.209600
   2 C        0.309522        0.538069       -0.118865        0.419204
   3 H       -0.154761        0.054396       -0.264006       -0.209610
   4 C        0.309513        0.538065       -0.118860        0.419205
   5 H       -0.154743        0.054397       -0.263988       -0.209591
   6 H       -0.154771        0.054395       -0.264005       -0.209609
  --------------------------------------------------------------------
  Sum:        0.000000        1.293718       -1.293718       -0.000000
  
  Multipole moment analysis of the density matrix
    Molecular charge:                      0.000000
    Number of electrons:                   16.000000
      Center of electronic charge [Ang]: [ -1.561340,  -0.065288,   0.002128]
    Total nuclear charge:                  16.000000
      Center of nuclear charge [Ang]:    [ -1.561339,  -0.065287,   0.002127]
    Dipole moment [D]:                     0.000171
      Cartesian components [D]:          [  0.000093,   0.000137,  -0.000041]
    RMS size of the density [Ang]:         1.281318
      Cartesian components [Ang]:        [  0.857778,   0.844123,   0.439829]
  
  Exciton analysis of the difference density matrix
    <r_h> [Ang]:                  [ -1.561337,  -0.065288,   0.002122]
    <r_e> [Ang]:                  [ -1.561354,  -0.065310,   0.002135]
    |<r_e - r_h>| [Ang]:            0.000030
    Hole size [Ang]:                1.412172
      Cartesian components [Ang]: [  0.836021,   0.822209,   0.786938]
    Electron size [Ang]:            2.077783
      Cartesian components [Ang]: [  1.375768,   1.379423,   0.722247]

  Transition density matrix analysis:
  -----------------------------------
  
  CT numbers (Mulliken)
    omega =     0.9251
    <Phe> =    -0.0109
  
  Exciton analysis of the transition density matrix
    Trans. dipole moment [D]:             0.411123
      Cartesian components [D]:         [  0.019508,   0.024932,  -0.409902]
    <r_h> [Ang]:                        [ -1.561334,  -0.065288,   0.002118]
    <r_e> [Ang]:                        [ -1.561359,  -0.065318,   0.002139]
    |<r_e - r_h>| [Ang]:                  0.000044
    Hole size [Ang]:                      1.211847
      Cartesian components [Ang]:       [  0.635594,   0.623095,   0.822402]
    Electron size [Ang]:                  2.300223
      Cartesian components [Ang]:       [  1.522152,   1.528510,   0.798583]
    RMS electron-hole separation [Ang]:   2.589869
      Cartesian components [Ang]:       [  1.641918,   1.643519,   1.144716]
    Covariance(r_h, r_e) [Ang^2]:         0.026087
    Correlation coefficient:              0.009359
    Center-of-mass size [Ang]:            1.304969
      Cartesian components [Ang]:       [  0.828547,   0.828859,   0.573975]

  Decomposition into state-averaged NTOs
    H- 0 -> L+ 1:  0.6794 ( 92.3%)
                   omega =  92.5%
  ----------------------------------------------------------------------------


  Excited state 4 (singlet, A)                                     [converged]
  ----------------------------------------------------------------------------
  Term symbol:  5 (1) A                                     R^2 =  1.14017e-11

  Total energy:                                            -77.9621012599 a.u.
  Excitation energy:                                               9.741173 eV

  Osc. strength:                                                      0.000000
  Trans. dip. moment [a.u.]:           [  -0.000168,    0.000156,    0.000007]
  <i|r^2|0> [a.u.]:                    [   0.012744,    0.018196,   -0.031891]
  Two-photon absorption cross-section (SoS) [a.u.]:                 133.744298
  Two-photon absorption matrix (SoS) [a.u.]:
                                       |    0.269710    0.310694   -2.784724 |
                                       |    0.310694    0.355233   -2.927811 |
                                       |   -2.784724   -2.927811   -0.624945 |
  Two-photon absorption cross-section [a.u.]:                        79.356066
  Two-photon absorption matrix [a.u.]:
                                       |    0.208389    0.239354   -2.144929 |
                                       |    0.239354    0.272998   -2.255361 |
                                       |   -2.144929   -2.255361   -0.481389 |

  Dip. moment [a.u.]:                  [  -0.000055,   -0.000048,   -0.000028]
  Total dipole [Debye]:                                               0.000198
  <r^2> [a.u.]:                        [ 181.438190,   40.959832,   10.786511]
  Total <r^2> [a.u.]:                                               233.184533

  V1^2 = 0.9633, V2^2 = 0.0367

  Important amplitudes:
      occ i     occ j     vir a      vir b          v   
    -----------------------------------------------------
     8 (A) A             11 (A) A                 0.6686
     7 (A) A              9 (A) A                -0.1542
     8 (A) A             21 (A) A                -0.0778
     8 (A) A             16 (A) A                 0.0674
     8 (A) A   8 (A) B    9 (A) A   13 (A) B      0.0166
     5 (A) A   8 (A) B   11 (A) A   11 (A) B     -0.0157
     7 (A) A             20 (A) A                -0.0141
     8 (A) A   8 (A) B   11 (A) A   17 (A) B      0.0137
     7 (A) A   8 (A) B   13 (A) A   11 (A) B      0.0127
     4 (A) A   8 (A) B   12 (A) A   11 (A) B     -0.0111
     8 (A) A   8 (A) B    9 (A) A   22 (A) B     -0.0110
     5 (A) A   8 (A) A   11 (A) A   21 (A) A     -0.0109
     7 (A) A   8 (A) A   11 (A) A   22 (A) A      0.0095
     6 (A) A   8 (A) B   10 (A) A   11 (A) B     -0.0091
     6 (A) A   8 (A) B   15 (A) A   11 (A) B      0.0089
     7 (A) A   8 (A) B   22 (A) A   11 (A) B     -0.0089
     3 (A) A   4 (A) B   11 (A) A    9 (A) B     -0.0083
     3 (A) A   8 (A) B   11 (A) A   18 (A) B     -0.0080
     6 (A) A   8 (A) A   11 (A) A   15 (A) A     -0.0079
     7 (A) A   8 (A) A   13 (A) A   16 (A) A     -0.0079
     7 (A) A   8 (A) A   11 (A) A   13 (A) A     -0.0075
     4 (A) A   8 (A) B   19 (A) A   11 (A) B     -0.0070
     5 (A) A   8 (A) B   21 (A) A   11 (A) B      0.0069
     5 (A) A   8 (A) B    9 (A) A    9 (A) B     -0.0069
     4 (A) A   8 (A) A   11 (A) A   12 (A) A      0.0062
     3 (A) A   6 (A) B   11 (A) A   28 (A) B     -0.0060
     6 (A) A   8 (A) A   11 (A) A   18 (A) A     -0.0059
     6 (A) A   8 (A) B   18 (A) A   11 (A) B      0.0058
     7 (A) A   8 (A) B   16 (A) A   13 (A) B      0.0057
     3 (A) A   8 (A) B   11 (A) A   30 (A) B     -0.0056
     5 (A) A   8 (A) B   10 (A) A   10 (A) B     -0.0055
     7 (A) A   8 (A) B   12 (A) A   10 (A) B     -0.0055
     6 (A) A   8 (A) B   11 (A) A   10 (A) B     -0.0055
     8 (A) A   8 (A) B   20 (A) A   22 (A) B     -0.0055
     3 (A) A   8 (A) A   11 (A) A   18 (A) A     -0.0054
     3 (A) A   5 (A) B   11 (A) A   25 (A) B     -0.0054
     3 (A) A   8 (A) A   11 (A) A   24 (A) A     -0.0053
     5 (A) A   8 (A) A   11 (A) A   16 (A) A      0.0050
     6 (A) A   8 (A) A   10 (A) A   16 (A) A      0.0048
     8 (A) A   8 (A) B   11 (A) A   28 (A) B     -0.0043
    -----------------------------------------------------

  Density matrix analysis:
  ------------------------
  NOs
    Occupation of frontier NOs:
       0.9382   1.0300
    Number of electrons: 16.000000
    Number of unpaired electrons: n_u =  2.32220, n_u,nl =  2.05135
    NO participation ratio (PR_NO):  2.935131
  
  
  Mulliken Population Analysis
  Atom      Charge (e)              h+              e-           Del q
  --------------------------------------------------------------------
   1 H       -0.125509        0.046124       -0.226473       -0.180349
   2 C        0.251251        0.495068       -0.134136        0.360933
   3 H       -0.125739        0.046113       -0.226701       -0.180587
   4 C        0.251236        0.495069       -0.134141        0.360928
   5 H       -0.125753        0.046114       -0.226714       -0.180600
   6 H       -0.125486        0.046125       -0.226449       -0.180324
  --------------------------------------------------------------------
  Sum:        0.000000        1.174613       -1.174613       -0.000000
  
  Multipole moment analysis of the density matrix
    Molecular charge:                      0.000000
    Number of electrons:                   16.000000
      Center of electronic charge [Ang]: [ -1.561337,  -0.065285,   0.002128]
    Total nuclear charge:                  16.000000
      Center of nuclear charge [Ang]:    [ -1.561339,  -0.065287,   0.002127]
    Dipole moment [D]:                     0.000198
      Cartesian components [D]:          [ -0.000139,  -0.000121,  -0.000070]
    RMS size of the density [Ang]:         1.280276
      Cartesian components [Ang]:        [  0.858906,   0.844161,   0.434487]
  
  Exciton analysis of the difference density matrix
    <r_h> [Ang]:                  [ -1.561337,  -0.065284,   0.002122]
    <r_e> [Ang]:                  [ -1.561314,  -0.065262,   0.002141]
    |<r_e - r_h>| [Ang]:            0.000037
    Hole size [Ang]:                1.394459
      Cartesian components [Ang]: [  0.819299,   0.806106,   0.789594]
    Electron size [Ang]:            2.113443
      Cartesian components [Ang]: [  1.418621,   1.414867,   0.672536]

  Transition density matrix analysis:
  -----------------------------------
  
  CT numbers (Mulliken)
    omega =     0.9293
    <Phe> =    -0.0147
  
  Exciton analysis of the transition density matrix
    Trans. dipole moment [D]:             0.000292
      Cartesian components [D]:         [ -0.000213,   0.000199,   0.000008]
    <r_h> [Ang]:                        [ -1.561338,  -0.065286,   0.002119]
    <r_e> [Ang]:                        [ -1.561311,  -0.065257,   0.002144]
    |<r_e - r_h>| [Ang]:                  0.000048
    Hole size [Ang]:                      1.228501
      Cartesian components [Ang]:       [  0.661608,   0.649210,   0.806235]
    Electron size [Ang]:                  2.246923
      Cartesian components [Ang]:       [  1.508060,   1.505360,   0.712958]
    RMS electron-hole separation [Ang]:   2.549739
      Cartesian components [Ang]:       [  1.637988,   1.631220,   1.075772]
    Covariance(r_h, r_e) [Ang^2]:         0.028355
    Correlation coefficient:              0.010272
    Center-of-mass size [Ang]:            1.285942
      Cartesian components [Ang]:       [  0.827789,   0.823755,   0.538369]

  Decomposition into state-averaged NTOs
    H- 0 -> L+ 2: -0.6640 ( 88.2%)
    H- 1 -> L+ 0: -0.1522 (  4.6%)
                   omega =  92.9%
  ----------------------------------------------------------------------------


  Excited state 5 (singlet, A)                                     [converged]
  ----------------------------------------------------------------------------
  Term symbol:  6 (1) A                                     R^2 =  7.82867e-11

  Total energy:                                            -77.9463213820 a.u.
  Excitation energy:                                              10.170565 eV

  Osc. strength:                                                      0.000000
  Trans. dip. moment [a.u.]:           [  -0.000034,   -0.000021,    0.000001]
  <i|r^2|0> [a.u.]:                    [   0.080997,   -0.096916,    0.015777]
  Two-photon absorption cross-section (SoS) [a.u.]:                 222.048710
  Two-photon absorption matrix (SoS) [a.u.]:
                                       |    0.366741    0.055819   -3.811478 |
                                       |    0.055819   -0.436169    3.613963 |
                                       |   -3.811478    3.613963    0.070839 |
  Two-photon absorption cross-section [a.u.]:                       114.507325
  Two-photon absorption matrix [a.u.]:
                                       |    0.263951    0.040486   -2.737058 |
                                       |    0.040486   -0.312588    2.595248 |
                                       |   -2.737058    2.595248    0.050746 |

  Dip. moment [a.u.]:                  [   0.000036,   -0.000055,   -0.000001]
  Total dipole [Debye]:                                               0.000168
  <r^2> [a.u.]:                        [ 180.330080,   39.718312,   11.593924]
  Total <r^2> [a.u.]:                                               231.642316

  V1^2 = 0.9554, V2^2 = 0.0446

  Important amplitudes:
      occ i     occ j     vir a      vir b          v   
    -----------------------------------------------------
     8 (A) A             12 (A) A                -0.5705
     6 (A) A              9 (A) A                -0.3808
     8 (A) A             19 (A) A                -0.0527
     6 (A) A             20 (A) A                -0.0519
     8 (A) A             23 (A) A                 0.0292
     8 (A) A   8 (A) B    9 (A) A   10 (A) B      0.0205
     8 (A) A             26 (A) A                 0.0184
     3 (A) A              9 (A) A                -0.0159
     4 (A) A   8 (A) B    9 (A) A    9 (A) B     -0.0158
     5 (A) A   8 (A) B   11 (A) A   12 (A) B      0.0150
     8 (A) A   8 (A) B   12 (A) A   17 (A) B     -0.0134
     7 (A) A   8 (A) B   13 (A) A   12 (A) B     -0.0130
     4 (A) A   8 (A) B   12 (A) A   12 (A) B      0.0124
     5 (A) A   8 (A) A   11 (A) A   12 (A) A      0.0109
     6 (A) A   8 (A) B   15 (A) A   12 (A) B     -0.0102
     7 (A) A   8 (A) B   22 (A) A   12 (A) B      0.0094
     6 (A) A   8 (A) A   12 (A) A   15 (A) A      0.0092
     6 (A) A   8 (A) B   10 (A) A   12 (A) B      0.0087
     7 (A) A   8 (A) A   12 (A) A   22 (A) A     -0.0086
     3 (A) A             20 (A) A                -0.0085
[...]
    16   -1.423264850181e-03
    17   -1.730306104401e-03
    18    1.361055691540e-04
    19   -2.909944791062e-03
    20    1.163822921846e-02
    21    9.269884356198e-01
    22   -5.299133382180e-04
    23    1.370219994398e-02
    24    8.039512277008e-04
    25    7.035216746430e-02
    26   -5.223224394177e-02
    27   -1.382698130018e+00
    28    9.996085047740e-02
    29   -9.493059986449e-02
    30   -9.656345661415e-04
    31    3.848599632632e-01
    32   -3.654907504545e-01
    33   -3.717559839390e-03
    34    1.499361266116e-02
    35   -1.420958146852e-03
    36   -1.729102018872e-03
    37    1.362736089739e-04
    38   -2.909255367189e-03
    39    1.163380657555e-02
    40    9.269854308283e-01
    41    5.296194888356e-04
    42   -1.370197934413e-02
    43   -8.034946686018e-04
    44    1.163846649778e-02
    45    9.269979249676e-01
    46    1.371803240884e-02
    47    1.719055861342e-04
    48    6.672346026417e-04
Sym=X
Ene= 0.230836
Spin=Alpha
Occup=0
     1   -2.990868664909e-02
     2   -1.167001790015e+00
     3    1.294179426662e-02
     4    3.490849180161e-03
     5    8.327237908222e-04
     6    5.412814028485e-05
     7   -5.748627235516e-05
     8   -8.469821812135e-04
     9    1.545548691620e-01
    10    1.626358784669e-01
    11    1.726181063805e-02
    12    5.299267981677e-01
    13    5.577399694432e-01
    14    5.919985913233e-02
    15    1.143901067030e-05
    16   -7.717018296875e-05
    17    7.994733403528e-05
    18   -1.455065999805e-03
    19   -8.062033998784e-05
    20    2.993906600952e-02
    21    1.168251535432e+00
    22    2.837644506450e-03
    23    1.311243521769e-02
    24    9.296885709880e-04
    25   -5.554109012077e-05
    26    5.862035591700e-05
    27    8.823371212506e-04
    28    1.545527149706e-01
    29    1.626417331417e-01
    30    1.723381643284e-02
    31    5.298873192849e-01
    32    5.577314064700e-01
    33    5.908577894706e-02
    34   -1.146583453678e-05
    35    7.880754724326e-05
    36   -8.076406245685e-05
    37    1.453613810085e-03
    38    8.050562978146e-05
    39   -2.993927418772e-02
    40   -1.168233783370e+00
    41    2.837478725620e-03
    42    1.311264389214e-02
    43    9.281782967435e-04
    44    2.990851988671e-02
    45    1.166938856118e+00
    46    1.294145007874e-02
    47    3.490610915233e-03
    48    8.310807330805e-04
Sym=X
Ene= 0.236593
Spin=Alpha
Occup=0
     1    1.931643149965e-02
     2    1.073360637787e+00
     3   -1.592228438680e-02
     4   -9.183256787588e-03
     5   -1.319235410460e-03
     6    8.707619367714e-02
     7   -8.222920074553e-02
     8   -1.545449687846e+00
     9   -5.925193618853e-02
    10    5.608046222379e-02
    11    5.466914864376e-04
    12   -2.422397802752e-01
    13    2.293627539320e-01
    14    2.228276228628e-03
    15    2.130852831701e-02
    16   -2.511767404112e-03
    17   -2.883521145327e-03
    18    6.166824742562e-04
    19   -1.247301228314e-02
    20    1.928946180076e-02
    21    1.071851985589e+00
    22    8.360603648767e-03
    23    1.634321490541e-02
    24    1.389516923113e-03
    25   -8.707488085614e-02
    26    8.222569207729e-02
    27    1.545441030772e+00
    28   -5.925291461230e-02
    29    5.608281442011e-02
    30    5.611186417496e-04
    31   -2.422379638145e-01
    32    2.293854635803e-01
    33    2.287603879643e-03
    34   -2.130859455285e-02
    35    2.509445125535e-03
    36    2.883810369526e-03
    37   -6.176891224404e-04
    38    1.247258226395e-02
    39   -1.928896541064e-02
    40   -1.071867938131e+00
    41    8.361084711717e-03
    42    1.634351770933e-02
    43    1.390026129149e-03
    44   -1.931524218678e-02
    45   -1.073331122902e+00
    46   -1.592155226995e-02
    47   -9.184233807080e-03
    48   -1.317875033725e-03
Sym=X
Ene= 0.303066
Spin=Alpha
Occup=0
     1   -2.118437385101e-02
     2    1.658585610880e+00
     3   -2.346583432863e-02
     4    3.817769002729e-04
     5   -1.105227116252e-03
     6    1.340582471164e-08
     7   -2.733166393263e-06
     8    7.601133202467e-06
     9   -1.355035543200e-01
    10   -1.425393121347e-01
    11   -1.512607481967e-02
    12   -1.127097396683e+00
    13   -1.185527942763e+00
    14   -1.257735481462e-01
    15    3.190455037087e-05
    16   -1.734058146909e-03
    17    1.964900290432e-03
    18   -3.390888773615e-02
    19   -1.733017271898e-03
    20    2.118301429020e-02
    21   -1.658579340080e+00
    22    1.578400140751e-03
    23   -2.340420697368e-02
    24   -1.337819802048e-03
    25    1.676659742778e-06
    26   -2.083551803516e-06
    27   -5.904035328405e-05
    28    1.355086089750e-01
    29    1.425438758499e-01
    30    1.511177482597e-02
    31    1.127069539248e+00
    32    1.185545614916e+00
    33    1.257244827397e-01
    34    3.345803632848e-05
    35   -1.731209458263e-03
    36    1.966222968186e-03
    37   -3.390738546017e-02
    38   -1.733911381309e-03
    39    2.117893438410e-02
    40   -1.658573340904e+00
    41   -1.579410361074e-03
    42    2.340362912884e-02
    43    1.337342432576e-03
    44   -2.117943469344e-02
    45    1.658613960907e+00
    46    2.346649119580e-02
    47   -3.821186607950e-04
    48    1.103495538532e-03
Sym=X
Ene= 0.462925
Spin=Alpha
Occup=0
     1   -1.153669375255e-01
     2   -6.975415716012e-01
     3   -1.520850300982e-02
     4   -1.023731417467e-02
     5   -1.349933606796e-03
     6    6.226651629507e-02
     7    1.729606565044e-02
     8   -3.663844581190e+00
     9    1.036985974870e-01
    10   -9.847857304970e-02
    11   -9.872018130994e-04
    12    2.438281602755e+00
    13   -2.315713734469e+00
    14   -2.263107270252e-02
    15    5.344880437048e-02
    16   -3.300051012604e-03
    17   -4.584990082932e-03
    18   -1.083084795441e-03
    19    2.021492374890e-02
    20   -1.153411266235e-01
    21   -6.975569871570e-01
    22    9.457604094241e-03
    23    1.570057770457e-02
    24    1.403253638684e-03
    25   -6.226760863182e-02
    26   -1.728865246060e-02
    27    3.663850215484e+00
    28    1.037127635581e-01
    29   -9.848772537686e-02
    30   -9.950397780733e-04
    31    2.438261406571e+00
    32   -2.315677795788e+00
    33   -2.266505967646e-02
    34   -5.344388238749e-02
    35    3.295454512379e-03
    36    4.578771101385e-03
    37    1.082333895771e-03
    38   -2.022121283759e-02
    39    1.153047497129e-01
    40    6.975906581107e-01
    41    9.456729100569e-03
    42    1.569977864834e-02
    43    1.401192468683e-03
    44    1.153368062573e-01
    45    6.975658009159e-01
    46   -1.520720859566e-02
    47   -1.023504009216e-02
    48   -1.348438561015e-03
Sym=X
Ene= 0.579130
Spin=Alpha
Occup=0
     1    2.379635540465e-01
     2    4.624799627474e-02
     3   -2.185982621473e-02
     4    2.691174620844e-02
     5    5.761405899406e-04
     6   -6.316736265810e-03
     7   -1.693046247889e-01
     8   -4.151094614581e-01
     9    3.050536684478e-01
    10   -2.896985221483e-01
    11   -2.833262113163e-03
    12   -7.483000146572e-01
    13    7.105820761928e-01
    14    6.997088038185e-03
    15   -2.462302065171e-03
    16    3.664081463989e-03
    17    3.315054075382e-03
    18   -3.028089671891e-03
    19    5.937231352838e-02
    20    2.379552735121e-01
    21    4.625179058103e-02
    22   -2.800500674884e-02
    23    2.044829209891e-02
    24   -1.096296657009e-04
    25   -6.324696375006e-03
    26   -1.693090589048e-01
    27   -4.147378597863e-01
    28   -3.050444719536e-01
    29    2.896808342582e-01
    30    2.831332504593e-03
    31    7.485748722443e-01
    32   -7.108101124786e-01
    33   -7.005271390606e-03
    34   -2.462061619356e-03
    35    3.664096365803e-03
    36    3.314505717664e-03
    37   -3.021995819532e-03
    38    5.937248134189e-02
    39    2.379160775115e-01
    40    4.638296760610e-02
    41    2.801138951483e-02
    42   -2.045331162282e-02
    43    1.086875352173e-04
    44    2.379827398386e-01
    45    4.633743219202e-02
    46    2.185922348393e-02
    47   -2.691268948071e-02
    48   -5.768173822781e-04
Sym=X
Ene= 0.609627
Spin=Alpha
Occup=0
     1   -5.196947867250e-01
     2    2.465896265329e-01
     3   -5.984880220414e-02
     4    3.720251139566e-02
     5   -6.259629961507e-04
     6    3.306406259047e-06
     7   -1.441137116171e-05
     8    1.926389223058e-04
     9   -3.480412382101e-02
    10   -3.661130000174e-02
    11   -3.879138654627e-03
    12    2.595051978470e-01
    13    2.730975575725e-01
    14    2.899134962463e-02
    15    1.222958483717e-04
    16   -7.619803334727e-03
    17    8.637407905231e-03
    18   -1.490448849040e-01
    19   -7.622579900622e-03
    20    5.197693274446e-01
    21   -2.466502044462e-01
    22    4.022493299975e-02
    23   -5.784958086388e-02
    24   -1.562040563801e-03
    25   -4.043345051395e-06
    26    1.474704877010e-05
    27   -1.455669706430e-04
    28   -3.479296910733e-02
    29   -3.662448524677e-02
    30   -3.887581515390e-03
    31    2.594733150045e-01
    32    2.731605853393e-01
    33    2.893320423646e-02
    34   -1.206832280943e-04
    35    7.612763487217e-03
    36   -8.642964493548e-03
    37    1.490534865904e-01
    38    7.621194044017e-03
    39   -5.198171497174e-01
    40    2.466858400825e-01
    41    4.021971985610e-02
    42   -5.784989776056e-02
    43   -1.566020535686e-03
    44    5.196913046838e-01
    45   -2.466310811018e-01
    46   -5.985050407449e-02
    47    3.720309437088e-02
    48   -6.258317724214e-04
Sym=X
Ene= 0.688207
Spin=Alpha
Occup=0
     1    4.548636494185e-05
     2    3.183183766869e-05
     3    8.973326465066e-04
     4    1.134701216759e-03
     5   -1.866070072716e-02
     6    2.482691044227e-06
     7   -2.818656301195e-06
     8    5.698899688596e-05
     9    3.219376057563e-02
    10    4.049660718240e-02
    11   -6.701015738539e-01
    12   -2.954451004101e-02
    13   -3.691979584964e-02
    14    6.125613391732e-01
    15   -1.333455422715e-03
    16    8.262294163023e-02
    17   -7.838609003020e-02
    18   -8.700610193224e-03
    19   -1.207211763514e-03
    20    3.986309990541e-05
    21    5.797834754545e-05
    22    8.928559727399e-04
    23    1.128374886894e-03
    24   -1.865639864676e-02
    25   -5.912196946496e-07
    26    3.261046740171e-05
    27   -7.892884979478e-05
    28    3.217594477748e-02
    29    4.046202790896e-02
    30   -6.701035600543e-01
    31   -2.951610725209e-02
    32   -3.687959326764e-02
    33    6.125626993656e-01
    34    1.322249887542e-03
    35   -8.262172081511e-02
    36    7.838735769290e-02
    37    8.709658128275e-03
    38    1.211885807103e-03
    39   -1.931896958778e-05
    40   -5.028696668305e-05
    41    8.907083211430e-04
    42    1.133261946263e-03
    43   -1.865603467671e-02
    44   -1.368580809711e-05
    45   -7.644795246669e-05
    46    8.871328362343e-04
    47    1.127981748749e-03
    48   -1.866138530571e-02
Sym=X
Ene= 0.704344
Spin=Alpha
Occup=0
     1   -4.877196556670e-01
     2    1.647026051056e-01
     3   -7.797050180019e-02
     4   -4.425458745553e-02
     5   -6.425312310651e-03
     6   -4.593656426988e-02
     7   -3.012726337395e-01
     8    4.615047613152e-01
     9    1.960104274149e-01
    10   -1.861905741609e-01
    11   -1.851744337407e-03
    12   -5.950462093191e-02
    13    5.666474472584e-02
    14    5.130615543019e-04
    15    1.909167749277e-01
    16   -2.046717259009e-02
    17   -2.404163943645e-02
    18    3.761922994574e-03
    19   -7.681816467138e-02
    20   -4.877585645201e-01
    21    1.648792673579e-01
    22    4.023578468276e-02
    23    8.010141852571e-02
    24    6.767969397554e-03
    25   -4.593095661398e-02
    26   -3.012730412235e-01
    27    4.612082871615e-01
    28   -1.960106058618e-01
    29    1.861907167139e-01
    30    1.811155361877e-03
    31    5.930352626186e-02
    32   -5.649139826073e-02
    33   -4.668381830835e-04
    34    1.909197933835e-01
    35   -2.045765046920e-02
    36   -2.403002583923e-02
    37    3.758138686434e-03
    38   -7.680819636374e-02
    39   -4.877348213474e-01
    40    1.648079837800e-01
    41   -4.023473437711e-02
    42   -8.009898686588e-02
    43   -6.765388570390e-03
    44   -4.877227425268e-01
    45    1.646415527266e-01
    46    7.797106212823e-02
    47    4.425358807540e-02
    48    6.420038684700e-03
Sym=X
Ene= 0.776462
Spin=Alpha
Occup=0
     1    5.390810662212e-01
     2   -4.882292803110e-01
     3    1.081388990443e-01
     4    2.674938675356e-02
     5    6.813704118122e-03
     6    8.904348255125e-02
     7   -2.267311876949e-01
     8   -5.906949537039e-01
     9    1.009022671156e-01
    10   -9.578713140092e-02
    11   -9.024852515929e-04
    12    3.129149806155e-01
    13   -2.973431204572e-01
    14   -2.961998910155e-03
    15   -2.030243871941e-01
    16    1.754631661800e-02
    17    2.184657004671e-02
    18   -2.833912909377e-04
    19    9.266950698733e-03
    20    5.389988956451e-01
    21   -4.883402939560e-01
    22   -2.122404158384e-02
    23   -1.093019289161e-01
    24   -7.623799175654e-03
    25   -8.904461701520e-02
    26    2.267331943739e-01
    27    5.907502434461e-01
    28    1.009166769417e-01
    29   -9.578386815931e-02
    30   -9.367457888356e-04
    31    3.128572237501e-01
    32   -2.973245452200e-01
    33   -2.886365184910e-03
    34    2.030310654550e-01
    35   -1.752245188798e-02
    36   -2.183455794231e-02
    37    2.876148827035e-04
    38   -9.265647618237e-03
    39   -5.390287246016e-01
    40    4.883447039960e-01
    41   -2.122528366724e-02
    42   -1.093043831518e-01
    43   -7.618828018975e-03
    44   -5.391034642546e-01
    45    4.882037142996e-01
    46    1.081352187532e-01
    47    2.675391947003e-02
    48    6.807589720969e-03
Sym=X
Ene= 0.807665
Spin=Alpha
Occup=0
     1    1.146065363953e-05
     2    2.971484753114e-05
     3    1.506349445229e-03
     4    1.900340177251e-03
     5   -3.148549223899e-02
     6    3.612643799928e-06
     7   -3.357449897388e-05
     8    1.604264119645e-05
     9    3.675009003979e-02
    10    4.617385894860e-02
    11   -7.642498425815e-01
    12   -5.412008835844e-02
    13   -6.801463304459e-02
    14    1.125539597392e+00
    15    1.054747571303e-03
    16   -6.597996527667e-02
    17    6.259860837746e-02
    18    6.941872880755e-03
    19    9.671405332430e-04
    20    1.310091650459e-05
    21   -4.469660016753e-05
    22    1.508233368011e-03
    23    1.899615501328e-03
    24   -3.147665194183e-02
    25   -6.019122205337e-07
    26   -2.462426134377e-05
    27    1.361797755440e-05
    28   -3.668459370991e-02
    29   -4.613974924716e-02
    30    7.642566993651e-01
    31    5.404368986242e-02
    32    6.792598032607e-02
    33   -1.125548799636e+00
    34    1.068884968687e-03
    35   -6.597966152120e-02
    36    6.259612727102e-02
    37    6.961069879758e-03
    38    9.724442871611e-04
    39   -1.045333217492e-05
    40    6.079813066723e-05
    41   -1.510410478464e-03
    42   -1.916304057795e-03
    43    3.147301850888e-02
    44   -8.800176629349e-06
    45   -1.359087410732e-05
    46   -1.504562701625e-03
    47   -1.907635984991e-03
    48    3.148411285439e-02
Sym=X
Ene= 0.858109
Spin=Alpha
Occup=0
     1    1.302406710275e-02
     2   -1.075420959097e+00
     3    1.460374684292e-01
     4    5.635951627065e-02
     5    1.041552424247e-02
     6    5.404646044769e-06
     7    5.856516376367e-06
     8    1.452386693351e-05
     9   -4.117075419262e-01
    10   -4.330769961108e-01
    11   -4.597633771250e-02
    12    9.383909847799e-01
    13    9.870308266464e-01
    14    1.047841357406e-01
    15   -2.253758385793e-04
    16    1.173662734738e-02
    17   -1.330070757402e-02
    18    2.295694507483e-01
    19    1.173413222760e-02
    20   -1.297516490632e-02
    21    1.075330229612e+00
    22    4.886107746822e-02
    23    1.486298919418e-01
    24    1.133392695644e-02
    25   -5.029606613498e-06
    26   -1.688135085369e-06
    27   -1.379242214483e-05
    28   -4.117197286915e-01
    29   -4.330971592888e-01
    30   -4.589620137059e-02
    31    9.384100382620e-01
    32    9.870814937309e-01
    33    1.046096064040e-01
    34    2.241050292736e-04
    35   -1.173638299234e-02
    36    1.330238131762e-02
    37   -2.295768681771e-01
    38   -1.173844806061e-02
    39    1.297044160859e-02
    40   -1.075337605899e+00
    41    4.885237609419e-02
    42    1.486344402600e-01
    43    1.133036654196e-02
    44   -1.301782018944e-02
    45    1.075425698208e+00
    46    1.460424705506e-01
    47    5.635487882903e-02
    48    1.040770738939e-02
Sym=X
Ene= 0.928322
Spin=Alpha
Occup=0
     1   -1.409072649259e-01
     2    1.232220431513e+00
     3   -1.825722578408e-01
     4    5.534756679593e-03
     5   -8.444440071344e-03
     6   -2.376548427711e-06
     7   -8.753217552281e-05
     8    1.366376244814e-04
     9    4.743762238219e-01
    10    4.989939247382e-01
    11    5.293918252974e-02
    12   -1.387027212724e+00
    13   -1.459066155277e+00
    14   -1.547910968565e-01
    15    1.273183307195e-04
    16   -6.383042998562e-03
    17    7.213012740679e-03
    18   -1.245607023382e-01
    19   -6.371128332567e-03
    20    1.408900781219e-01
    21   -1.232330731125e+00
    22    1.484895575129e-02
    23   -1.819647768014e-01
    24   -1.027696378718e-02
    25   -2.747676969859e-06
    26   -7.837056655160e-05
    27    1.428040331252e-04
    28   -4.743774760534e-01
    29   -4.989814878571e-01
    30   -5.291456677966e-02
    31    1.387027433796e+00
    32    1.459009869225e+00
    33    1.547201555843e-01
    34    1.319148457962e-04
    35   -6.364647643980e-03
    36    7.208277507236e-03
    37   -1.245564542016e-01
    38   -6.383682629495e-03
    39    1.408841201700e-01
    40   -1.232277178806e+00
    41   -1.485909575003e-02
    42    1.819559204611e-01
    43    1.027205287413e-02
    44   -1.409175815422e-01
    45    1.232229744343e+00
    46    1.825731099534e-01
    47   -5.536062678994e-03
    48    8.432343867460e-03
Sym=X
Ene= 0.971569
Spin=Alpha
Occup=0
     1   -5.658862249831e-02
     2    8.940396187674e-01
     3   -8.687740188747e-02
     4   -9.675539233593e-02
     5   -1.001087432974e-02
     6    2.781847669155e-02
     7    2.548211380151e-01
     8    5.040953003930e-01
     9    4.830718422080e-01
    10   -4.587650929875e-01
    11   -4.501273071931e-03
    12   -1.468928886987e+00
    13    1.394990651511e+00
    14    1.367286496040e-02
    15   -5.963567874477e-02
    16   -1.227357036442e-02
    17   -9.021327358883e-03
    18    1.520985204309e-02
    19   -2.968224854988e-01
    20   -5.661011168960e-02
    21    8.939662611004e-01
    22    9.223738335461e-02
    23    9.164882553116e-02
    24    9.974847639825e-03
    25   -2.781774289803e-02
    26   -2.547495333700e-01
    27   -5.042110830007e-01
    28    4.830576551676e-01
    29   -4.587707420056e-01
    30   -4.521687711950e-03
    31   -1.468880948368e+00
    32    1.395043870432e+00
    33    1.373226744857e-02
    34    5.963070457506e-02
    35    1.227317881580e-02
    36    9.023966652812e-03
    37   -1.521322019163e-02
    38    2.968090181280e-01
    39    5.660907677444e-02
    40   -8.939720729356e-01
    41    9.223146921214e-02
    42    9.164987102130e-02
    43    9.976868395854e-03
    44    5.659696964478e-02
    45   -8.939667354634e-01
    46   -8.686838861653e-02
    47   -9.675246815698e-02
    48   -1.000436245066e-02
[5D]

======= END OF MOLDEN-FORMATTED INPUT FILE =======


        *************************************************************
        *                                                           *
        *  Thank you very much for using Q-Chem.  Have a nice day.  *
        *                                                           *
        *************************************************************


