                  Welcome to Q-Chem
     A Quantum Leap Into The Future Of Chemistry


 Q-Chem 5.4 (devel), Q-Chem, Inc., Pleasanton, CA (2021)

 E. Epifanovsky,  A. T. B. Gilbert,  Xintian Feng,  Joonho Lee,  Yuezhi Mao,  
 N. Mardirossian,  P. Pokhilko,  A. White,  M. Wormit,  M. P. Coons,  
 A. L. Dempwolff,  Zhengting Gan,  D. Hait,  P. R. Horn,  L. D. Jacobson,  
 I. Kaliman,  J. Kussmann,  A. W. Lange,  Ka Un Lao,  D. S. Levine,  Jie Liu,  
 S. C. McKenzie,  A. F. Morrison,  K. Nanda,  F. Plasser,  D. R. Rehn,  
 M. L. Vidal,  Zhi-Qiang You,  Ying Zhu,  B. Alam,  B. Albrecht,  
 A. Aldossary,  E. Alguire,  J. H. Andersen,  D. Barton,  K. Begam,  A. Behn,  
 Y. A. Bernard,  E. J. Berquist,  H. Burton,  A. Carreras,  K. Carter-Fenk,  
 R. Chakraborty,  A. D. Chien,  K. D. Closser,  V. Cofer-Shabica,  
 S. Dasgupta,  Jia Deng,  M. de Wergifosse,  M. Diedenhofen,  Hainam Do,  
 S. Ehlert,  Po-Tung Fang,  S. Fatehi,  Qingguo Feng,  T. Friedhoff,  
 J. Gayvert,  Qinghui Ge,  G. Gidofalvi,  M. Goldey,  J. Gomes,  
 C. Gonzalez-Espinoza,  S. Gulania,  A. Gunina,  M. W. D. Hanson-Heine,  
 P. H. P. Harbach,  A. W. Hauser,  M. F. Herbst,  M. Hernandez Vera,  
 M. Hodecker,  Z. C. Holden,  S. Houck,  Xunkun Huang,  Kerwin Hui,  
 B. C. Huynh,  M. Ivanov,  Hyunjun Ji,  Hanjie Jiang,  B. Kaduk,  S. Kaehler,  
 K. Khistyaev,  Jaehoon Kim,  P. Klunzinger,  Z. Koczor-Benda,  
 Joong Hoon Koh,  D. Kosenkov,  L. Koulias,  T. Kowalczyk,  C. M. Krauter,  
 K. Kue,  A. Kunitsa,  T. Kus,  A. Landau,  K. V. Lawler,  D. Lefrancois,  
 S. Lehtola,  Rain Li,  Yi-Pei Li,  Jiashu Liang,  M. Liebenthal,  
 Hung-Hsuan Lin,  You-Sheng Lin,  Fenglai Liu,  Kuan-Yu Liu,  
 M. Loipersberger,  A. Luenser,  A. Manjanath,  P. Manohar,  E. Mansoor,  
 S. F. Manzer,  Shan-Ping Mao,  A. V. Marenich,  T. Markovich,  S. Mason,  
 S. A. Maurer,  P. F. McLaughlin,  M. F. S. J. Menger,  J.-M. Mewes,  
 S. A. Mewes,  P. Morgante,  J. W. Mullinax,  K. J. Oosterbaan,  G. Paran,  
 Alexander C. Paul,  Suranjan K. Paul,  F. Pavosevic,  Zheng Pei,  S. Prager,  
 E. I. Proynov,  E. Ramos,  B. Rana,  A. E. Rask,  A. Rettig,  R. M. Richard,  
 F. Rob,  E. Rossomme,  T. Scheele,  M. Scheurer,  M. Schneider,  
 N. Sergueev,  S. M. Sharada,  W. Skomorowski,  D. W. Small,  C. J. Stein,  
 Yu-Chuan Su,  E. J. Sundstrom,  Zhen Tao,  J. Thirman,  T. Tsuchimochi,  
 N. M. Tubman,  S. P. Veccham,  O. Vydrov,  J. Wenzel,  J. Witte,  A. Yamada,  
 Kun Yao,  S. Yeganeh,  S. R. Yost,  A. Zech,  Igor Ying Zhang,  Xing Zhang,  
 Yu Zhang,  D. Zuev,  A. Aspuru-Guzik,  A. T. Bell,  N. A. Besley,  
 K. B. Bravaya,  B. R. Brooks,  D. Casanova,  Jeng-Da Chai,  S. Coriani,  
 C. J. Cramer,  A. E. DePrince, III,  R. A. DiStasio Jr.,  A. Dreuw,  
 B. D. Dunietz,  T. R. Furlani,  W. A. Goddard III,  S. Grimme,  
 S. Hammes-Schiffer,  T. Head-Gordon,  W. J. Hehre,  Chao-Ping Hsu,  
 T.-C. Jagau,  Yousung Jung,  A. Klamt,  Jing Kong,  D. S. Lambrecht,  
 WanZhen Liang,  N. J. Mayhall,  C. W. McCurdy,  J. B. Neaton,  
 C. Ochsenfeld,  J. A. Parkhill,  R. Peverati,  V. A. Rassolov,  Yihan Shao,  
 L. V. Slipchenko,  T. Stauch,  R. P. Steele,  J. E. Subotnik,  
 A. J. W. Thom,  A. Tkatchenko,  D. G. Truhlar,  T. Van Voorhis,  
 T. A. Wesolowski,  K. B. Whaley,  H. L. Woodcock III,  P. M. Zimmerman,  
 S. Faraji,  P. M. W. Gill,  M. Head-Gordon,  J. M. Herbert,  A. I. Krylov

 Additional authors for Version 5.4.1: 
 S. Kotaru,  Shaozhi Li,  Xiangyuan Li,  F. Matz,  A. Molle,  Haisheng Ren,  
 Yingli Su,  Hung-Yi Tsai,  C. Utku,  Fang Wang

 Contributors to earlier versions of Q-Chem not listed above: 
 R. D. Adamson,  B. Austin,  R. Baer,  J. Baker,  G. J. O. Beran,  
 K. Brandhorst,  S. T. Brown,  E. F. C. Byrd,  A. K. Chakraborty,  
 G. K. L. Chan,  Chun-Min Chang,  Yunqing Chen,  C.-L. Cheng,  
 Siu Hung Chien,  D. M. Chipman,  D. L. Crittenden,  H. Dachsel,  
 R. J. Doerksen,  A. D. Dutoi,  R. G. Edgar,  J. Fosso-Tande,  
 L. Fusti-Molnar,  D. Ghosh,  A. Ghysels,  A. Golubeva-Zadorozhnaya,  
 J. Gonthier,  M. S. Gordon,  S. R. Gwaltney,  G. Hawkins,  J. E. Herr,  
 A. Heyden,  S. Hirata,  E. G. Hohenstein,  G. Kedziora,  F. J. Keil,  
 C. Kelley,  Jihan Kim,  R. A. King,  R. Z. Khaliullin,  P. P. Korambath,  
 W. Kurlancheek,  A. Laurent,  A. M. Lee,  M. S. Lee,  S. V. Levchenko,  
 Ching Yeh Lin,  D. Liotard,  E. Livshits,  R. C. Lochan,  I. Lotan,  
 L. A. Martinez-Martinez,  P. E. Maslen,  N. Nair,  D. P. O'Neill,  
 D. Neuhauser,  E. Neuscamman,  C. M. Oana,  R. Olivares-Amaya,  R. Olson,  
 T. M. Perrine,  B. Peters,  P. A. Pieniazek,  A. Prociuk,  Y. M. Rhee,  
 J. Ritchie,  M. A. Rohrdanz,  E. Rosta,  N. J. Russ,  H. F. Schaefer III,  
 M. W. Schmidt,  N. E. Schultz,  S. Sharma,  N. Shenvi,  C. D. Sherrill,  
 A. C. Simmonett,  A. Sodt,  T. Stein,  D. Stuck,  K. S. Thanthiriwatte,  
 V. Vanovschi,  L. Vogt,  Tao Wang,  A. Warshel,  M. A. Watson,  
 C. F. Williams,  Q. Wu,  X. Xu,  Jun Yang,  W. Zhang,  Yan Zhao

 Please cite Q-Chem as follows:
 Y. Shao et al., Mol. Phys. 113, 184-215 (2015)
 DOI: 10.1080/00268976.2014.952696

 Q-Chem 5.4.1 for Intel X86 EM64T Linux

 Parts of Q-Chem use Armadillo 9.800.1 (Horizon Scraper).
 http://arma.sourceforge.net/

 Q-Chem begins on Wed Mar 15 16:20:56 2023  

 Host: cpu121.yggdrasil
0

     Scratch files written to /srv/beegfs/scratch/users/f/fum/qchem68583//
 Processing $rem in /home/share/wesolowski/qc5.aug2021.FDE/config/preferences:
 Processing $rem in /home/fum/.qchemrc:

 Checking the input file for inconsistencies... 	...done.

--------------------------------------------------------------
User input:
--------------------------------------------------------------
$comment
generated from CCJob.Templates
$end

$rem
sym_ignore = true
method = adc(2)
ee_states = 10
basis = cc-pVDZ
mem_static = 1024
mem_total = 40000
adc_davidson_maxiter = 900
adc_davidson_conv = 6
adc_print = 3
adc_prop_es = true
adc_prop_es2es = true
adc_prop_tpa = true
molden_format = True
state_analysis = true
print_orbitals = 15
gen_scfman = false
fde_export_density = true
fde_details = 3
$end

$molecule
0 1
H -0.0348278765 -0.2442097827 0.0636489606
C -1.0765972949 -0.5242748755 -0.0023551776
H -1.313264467 -1.5767591607 -0.0757276926
C -2.043634118 0.3926884087 0.0061254933
H -1.8137616575 1.4459188338 0.0804456828
H -3.125977293 0.114931858 -0.0593381042                     
$end
--------------------------------------------------------------
 ----------------------------------------------------------------
             Standard Nuclear Orientation (Angstroms)
    I     Atom           X                Y                Z
 ----------------------------------------------------------------
    1      H      -0.0348278765    -0.2442097827     0.0636489606
    2      C      -1.0765972949    -0.5242748755    -0.0023551776
    3      H      -1.3132644670    -1.5767591607    -0.0757276926
    4      C      -2.0436341180     0.3926884087     0.0061254933
    5      H      -1.8137616575     1.4459188338     0.0804456828
    6      H      -3.1259772930     0.1149318580    -0.0593381042
 ----------------------------------------------------------------
 Nuclear Repulsion Energy =          33.28654918 hartrees
 There are        8 alpha and        8 beta electrons
 Requested basis set is cc-pVDZ
 There are 24 shells and 48 basis functions
 Total memory of 40000 MB is distributed as follows: 
   MEM_STATIC is set to 1024 MB
   QALLOC/CCMAN JOB total memory use is  38976 MB
 Warning: actual memory use might exceed 40000 MB

 Total QAlloc Memory Limit  40000 MB
 Mega-Array Size      1001 MB
 MEM_STATIC part      1024 MB

                       Distance Matrix (Angstroms)
             H (  1)   C (  2)   H (  3)   C (  4)   H (  5)
   C (  2)  1.080776
   H (  3)  1.851895  1.081258
   C (  4)  2.108139  1.332687  2.102109
   H (  5)  2.453859  2.105215  3.067812  1.080583
   H (  6)  3.114372  2.147508  2.479519  1.119331  1.874293

 A cutoff of  1.0D-11 yielded    300 shell pairs
 There are      1220 function pairs (      1329 Cartesian)
 Smallest overlap matrix eigenvalue = 4.80E-03

 Scale SEOQF with 1.000000e-01/1.000000e-01/1.000000e+00

 Standard Electronic Orientation quadrupole field applied
 Nucleus-field energy     =     0.0000000022 hartrees
 Guess from superposition of atomic densities
 Warning:  Energy on first SCF cycle will be non-variational
 SAD guess density has 16.000000 electrons
 A restricted Hartree-Fock SCF calculation will be
 performed using Pulay DIIS extrapolation
 SCF converges when DIIS error is below 1.0E-08
 using 10 threads for integral computing
 -------------------------------------------------------
 OpenMP Integral computing Module                
 Release: version 1.0, May 2013, Q-Chem Inc. Pittsburgh 
 -------------------------------------------------------
 ---------------------------------------
  Cycle       Energy         DIIS Error
 ---------------------------------------
    1     -78.4111742558      9.99E-02
    2     -78.0169189058      7.17E-03
    3     -78.0374738084      1.84E-03
    4     -78.0389586714      5.78E-04
    5     -78.0390819025      6.53E-05
    6     -78.0390839458      1.88E-05
    7     -78.0390841025      6.81E-06
    8     -78.0390841214      1.42E-06
    9     -78.0390841233      4.53E-07
   10     -78.0390841234      9.03E-08
   11     -78.0390841234      6.16E-09 Convergence criterion met
 ---------------------------------------
 SCF time:  CPU 1.99 s  wall 3.37 s
 SCF   energy in the final basis set = -78.03908412
 Total energy in the final basis set = -78.03908412
Exporting Density Matrix to file 'Densmat_SCF.txt'.
Export successful
================================================================================
|                                                                              |
|                                 A D C  M A N                                 |
|                                                                              |
 ------------------------------------------------------------------------------ 
|                                                                              |
| Components:                                                                  |
|                                                                              |
| - libvmm - 1.3-trunk                                                         |
|   Authors:                                                                   |
|   Evgeny Epifanovsky, Ilya Kaliman                                           |
|                                                                              |
| - libtensor - 2.5-trunk                                                      |
|   Authors:                                                                   |
|   Evgeny Epifanovsky, Michael Wormit, Dmitry Zuev, Sam Manzer,               |
|   Ilya Kaliman                                                               |
|                                                                              |
| - libwfa - 1.1-trunk                                                         |
|   Authors:                                                                   |
|   Felix Plasser, Stefanie Mewes (Baeppler), Benjamin Thomitzni,              |
|   Michael Wormit, Feng Chen, Anna I. Krylov, Pavel Pokhilko                  |
|                                                                              |
| - libadc - 1.1-trunk                                                         |
|   Authors:                                                                   |
|   Michael Wormit, Adrian L. Dempwolff, Philipp H. P. Harbach,                |
|   Caroline Krauter, Dirk Rehn, Matthias Schneider, Jan Wenzel                |
|                                                                              |
| - adcman - 2.6-trunk                                                         |
|   Authors:                                                                   |
|   Michael Wormit, Adrian L. Dempwolff, Philipp H. P. Harbach,                |
|   Caroline Krauter, Daniel Lefrancois, Jan-Michael Mewes, Dirk Rehn,         |
|   Matthias Schneider, Jan Wenzel, Andreas Dreuw                              |
|                                                                              |
| Authors of earlier versions of ADCMAN:                                       |
| Andreas Dreuw, Jan Hendrik Starcke, Dirk Rehn, Michael Wormit                |
|                                                                              |
================================================================================

 Created directory /srv/beegfs/scratch/users/f/fum/qchem68583/plots
  Import QC data ...  CPU 0.00 s  wall 0.01 s

 Alpha MOs, Restricted
 -- Occupied --                  
-11.239 -11.235  -1.031  -0.787  -0.638  -0.581  -0.501  -0.374
  1 A     2 A     3 A     4 A     5 A     6 A     7 A     8 A                  
 -- Virtual --                   
  0.168   0.203   0.231   0.238   0.303   0.462   0.578   0.612
  9 A    10 A    11 A    12 A    13 A    14 A    15 A    16 A                  
  0.689   0.705   0.779   0.808   0.860   0.931   0.971   1.007
 17 A    18 A    19 A    20 A    21 A    22 A    23 A    24 A                  
  1.129   1.236   1.249   1.265   1.292   1.594   1.722   1.743
 25 A    26 A    27 A    28 A    29 A    30 A    31 A    32 A                  
  1.814   1.853   1.860   1.913   1.964   1.977   2.220   2.251
 33 A    34 A    35 A    36 A    37 A    38 A    39 A    40 A                  
  2.364   2.432   2.493   2.620   2.693   2.807   3.118   3.377
 41 A    42 A    43 A    44 A    45 A    46 A    47 A    48 A                  

 Beta MOs, Restricted
 -- Occupied --                  
-11.239 -11.235  -1.031  -0.787  -0.638  -0.581  -0.501  -0.374
  1 A     2 A     3 A     4 A     5 A     6 A     7 A     8 A                  
 -- Virtual --                   
  0.168   0.203   0.231   0.238   0.303   0.462   0.578   0.612
  9 A    10 A    11 A    12 A    13 A    14 A    15 A    16 A                  
  0.689   0.705   0.779   0.808   0.860   0.931   0.971   1.007
 17 A    18 A    19 A    20 A    21 A    22 A    23 A    24 A                  
  1.129   1.236   1.249   1.265   1.292   1.594   1.722   1.743
 25 A    26 A    27 A    28 A    29 A    30 A    31 A    32 A                  
  1.814   1.853   1.860   1.913   1.964   1.977   2.220   2.251
 33 A    34 A    35 A    36 A    37 A    38 A    39 A    40 A                  
  2.364   2.432   2.493   2.620   2.693   2.807   3.118   3.377
 41 A    42 A    43 A    44 A    45 A    46 A    47 A    48 A                  
  Import AO data ...  CPU 0.01 s  wall 0.61 s
  Using point group: C1
  Irreducible representations in point group: A
  Molecular orbitals: 
  Occupied MOs:
  Block   0:   1 (  A) A   2 (  A) A   3 (  A) A   4 (  A) A   5 (  A) A
                  -11.24      -11.23      -1.031     -0.7865     -0.6378
               6 (  A) A   7 (  A) A   8 (  A) A
                 -0.5812     -0.5012     -0.3744
  Block   1:   1 (  A) B   2 (  A) B   3 (  A) B   4 (  A) B   5 (  A) B
                  -11.24      -11.23      -1.031     -0.7865     -0.6378
               6 (  A) B   7 (  A) B   8 (  A) B
                 -0.5812     -0.5012     -0.3744
  Virtual MOs:
  Block   0:   9 (  A) A  10 (  A) A  11 (  A) A  12 (  A) A  13 (  A) A
                  0.1683      0.2027       0.231      0.2381      0.3029
              14 (  A) A  15 (  A) A  16 (  A) A  17 (  A) A  18 (  A) A
                  0.4618      0.5782      0.6124      0.6887       0.705
              19 (  A) A  20 (  A) A  21 (  A) A  22 (  A) A
                  0.7788      0.8076      0.8597      0.9309
  Block   1:  23 (  A) A  24 (  A) A  25 (  A) A  26 (  A) A  27 (  A) A
                  0.9712       1.007       1.129       1.236       1.249
              28 (  A) A  29 (  A) A  30 (  A) A  31 (  A) A  32 (  A) A
                   1.265       1.292       1.594       1.722       1.743
              33 (  A) A  34 (  A) A  35 (  A) A  36 (  A) A
                   1.814       1.853        1.86       1.913
  Block   2:  37 (  A) A  38 (  A) A  39 (  A) A  40 (  A) A  41 (  A) A
                   1.964       1.977        2.22       2.251       2.364
              42 (  A) A  43 (  A) A  44 (  A) A  45 (  A) A  46 (  A) A
                   2.432       2.493        2.62       2.693       2.807
              47 (  A) A  48 (  A) A
                   3.118       3.377
  Block   3:   9 (  A) B  10 (  A) B  11 (  A) B  12 (  A) B  13 (  A) B
                  0.1683      0.2027       0.231      0.2381      0.3029
              14 (  A) B  15 (  A) B  16 (  A) B  17 (  A) B  18 (  A) B
                  0.4618      0.5782      0.6124      0.6887       0.705
              19 (  A) B  20 (  A) B  21 (  A) B  22 (  A) B
                  0.7788      0.8076      0.8597      0.9309
  Block   4:  23 (  A) B  24 (  A) B  25 (  A) B  26 (  A) B  27 (  A) B
                  0.9712       1.007       1.129       1.236       1.249
              28 (  A) B  29 (  A) B  30 (  A) B  31 (  A) B  32 (  A) B
                   1.265       1.292       1.594       1.722       1.743
              33 (  A) B  34 (  A) B  35 (  A) B  36 (  A) B
                   1.814       1.853        1.86       1.913
  Block   5:  37 (  A) B  38 (  A) B  39 (  A) B  40 (  A) B  41 (  A) B
                   1.964       1.977        2.22       2.251       2.364
              42 (  A) B  43 (  A) B  44 (  A) B  45 (  A) B  46 (  A) B
                   2.432       2.493        2.62       2.693       2.807
              47 (  A) B  48 (  A) B
                   3.118       3.377
  Import MO data ...  CPU 0.01 s  wall 0.01 s
  Import HF data ...  CPU 0.07 s  wall 0.03 s
  Import 2e integrals ...  CPU 0.85 s  wall 0.43 s

--------------------------------------------------------------------------------
                                   HF Summary                                   
--------------------------------------------------------------------------------
  Energy:                                                  -78.0390841234 a.u.
  Dip. moment [a.u.]:                  [   0.006756,    0.002104,    0.001408]
  Total dipole [Debye]:                                               0.018338
  <r^2> [a.u.]:                        [ 176.253220,   34.934834,   11.661847]
  Total <r^2> [a.u.]:                                               222.849901
--------------------------------------------------------------------------------
  HF properties ...  CPU 0.01 s  wall 0.01 s
  MP(1) calculation ...  CPU 0.01 s  wall 0.01 s
  N^6 prerequesite intermediates ...  CPU 0.45 s  wall 0.07 s
  Difference density matrix of state mp2_gs printed to ASCII file 'State_mp2_gs_Difference.txt'
Exporting MP density matrix to file 'Densmat_MP.txt'.
Export successful
  Total density matrix of state mp2_gs printed to ASCII file 'State_mp2_gs_Total.txt'
Exporting MP density matrix to file 'Densmat_MP.txt'.
Export successful

--------------------------------------------------------------------------------
                                 MP(2) Summary                                  
--------------------------------------------------------------------------------
  MP energy contribution:                                   -0.2802442966 a.u.
  Total energy:                                            -78.3193284200 a.u.
  Dip. moment [a.u.]:                  [   0.006063,    0.001465,    0.001325]
  Total dipole [Debye]:                                               0.016208
  <r^2> [a.u.]:                        [ 176.289663,   34.973705,   11.490866]
  Total <r^2> [a.u.]:                                               222.754233

  Density matrix analysis:
  ------------------------
  NOs
    Occupation of frontier NOs:
       0.0454   1.9381
    Number of electrons: 16.000000
    Number of unpaired electrons: n_u =  0.40605, n_u,nl =  0.04556
    NO participation ratio (PR_NO): 13.888485
  
  
  Mulliken Population Analysis
  Atom      Charge (e)              h+              e-           Del q
  --------------------------------------------------------------------
   1 H        0.051728        0.014045       -0.011212        0.002833
   2 C       -0.094784        0.092839       -0.098792       -0.005953
   3 H        0.051190        0.014091       -0.011218        0.002873
   4 C       -0.119142        0.095474       -0.100180       -0.004706
   5 H        0.051279        0.014059       -0.011300        0.002759
   6 H        0.059729        0.013583       -0.011390        0.002193
  --------------------------------------------------------------------
  Sum:       -0.000000        0.244092       -0.244092        0.000000
  
  Multipole moment analysis of the density matrix
    Molecular charge:                      -0.000000
    Number of electrons:                   16.000000
      Center of electronic charge [Ang]: [ -1.563277,  -0.065651,   0.001934]
    Total nuclear charge:                  16.000000
      Center of nuclear charge [Ang]:    [ -1.563076,  -0.065602,   0.001978]
    Dipole moment [D]:                     0.016208
      Cartesian components [D]:          [  0.015411,   0.003724,   0.003367]
    RMS size of the density [Ang]:         1.204346
      Cartesian components [Ang]:        [  0.800968,   0.779610,   0.448449]
  
  Exciton analysis of the difference density matrix
    <r_h> [Ang]:                  [ -1.569360,  -0.064238,   0.001578]
    <r_e> [Ang]:                  [ -1.567858,  -0.062853,   0.001758]
    |<r_e - r_h>| [Ang]:            0.002052
    Hole size [Ang]:                1.398985
      Cartesian components [Ang]: [  0.855112,   0.833967,   0.728315]
    Electron size [Ang]:            1.360991
      Cartesian components [Ang]: [  0.881895,   0.860390,   0.578176]
--------------------------------------------------------------------------------
  MP(2) calculation ...  CPU 0.11 s  wall 0.13 s
  Start ADC(2)-s ...  CPU 0.01 s  wall 0.00 s
  ADC(2) intermediates ...  CPU 0.02 s  wall 0.01 s
  Starting Davidson for singlet states of irrep A ... 
--------------------------------------------------------------------------------
   It NVec Conv  Avg. Norm  Max. Norm  Conv. states           Remark
--------------------------------------------------------------------------------
        10    0  1.329e-01  4.683e-01  0.4113 n n n n n n n n Guess.
    1   20    0  2.361e-02  1.120e-01  0.3264 n n n n n n n n 
    2   30    0  5.944e-03  2.652e-02  0.3216 n n n n n n n n 
    3   40    0  2.082e-03  1.335e-02  0.3212 n n n n n n n n 
    4   50    0  6.851e-04  4.723e-03  0.3212 n n n n n n n n 
    5   20    0  3.594e-04  2.781e-03  0.3212 n n n n n n n n Subspace collapsed.
    6   30    0  3.051e-04  2.309e-03  0.3212 n n n n n n n n 
    7   40    0  1.953e-04  1.667e-03  0.3212 n n n n n n n n 
    8   50    0  2.258e-04  2.202e-03  0.3212 n n n n n n n n 
    9   20    1  1.534e-04  1.508e-03  0.3212 n n n y n n n n Subspace collapsed.
   10   30    4  8.240e-05  7.955e-04  0.3212 n y y y y n n n 
   11   40    5  8.447e-05  8.298e-04  0.3212 n y y y y y n n 
   12   50    6  8.722e-05  8.680e-04  0.3212 y y y y y y n n 
   13   20    6  5.562e-05  5.533e-04  0.3212 y y y y y y n n Subspace collapsed.
   14   30    6  5.032e-05  5.018e-04  0.3212 y y y y y y n n 
   15   40    6  4.528e-05  4.521e-04  0.3212 y y y y y y n n 
   16   50    6  5.425e-05  5.421e-04  0.3212 y y y y y y n n 
   17   20    6  2.773e-05  2.771e-04  0.3212 y y y y y y n n Subspace collapsed.
   18   30    6  2.957e-05  2.955e-04  0.3212 y y y y y y n n 
   19   40    6  1.863e-05  1.862e-04  0.3212 y y y y y y n n 
   20   50    7  2.314e-05  2.313e-04  0.3212 y y y y y y y n 
   21   20    8  1.147e-05  1.146e-04  0.3212 y y y y y y y y Subspace collapsed.
   22   30    8  1.715e-05  1.714e-04  0.3212 y y y y y y y y 
   23   40    8  1.101e-05  1.101e-04  0.3212 y y y y y y y y 
   24   42    8  1.107e-05  1.107e-04  0.3212 y y y y y y y y 
   25   43    8  1.114e-05  1.113e-04  0.3212 y y y y y y y y 
   26   44    8  1.110e-05  1.110e-04  0.3212 y y y y y y y y 
   27   44    8  1.110e-05  1.110e-04  0.3212 y y y y y y y y 
   28   50    8  1.265e-05  1.265e-04  0.3212 y y y y y y y y 
   29   16    8  8.891e-06  8.890e-05  0.3212 y y y y y y y y Subspace collapsed.
   30   22    8  9.105e-06  9.103e-05  0.3212 y y y y y y y y 
   31   28    8  8.902e-06  8.901e-05  0.3212 y y y y y y y y 
   32   33    8  8.890e-06  8.889e-05  0.3212 y y y y y y y y 
   33   38    9  6.453e-06  6.452e-05  0.3212 y y y y y y y y 
   34   42    9  3.656e-06  3.656e-05  0.3212 y y y y y y y y 
   35   46    9  1.580e-06  1.580e-05  0.3212 y y y y y y y y 
   36   50    9  8.328e-07  8.328e-06  0.3212 y y y y y y y y 
   37   14    9  4.319e-07  4.319e-06  0.3212 y y y y y y y y Subspace collapsed.
   38   18    9  3.805e-07  3.804e-06  0.3212 y y y y y y y y 
   39   22    9  2.045e-07  2.045e-06  0.3212 y y y y y y y y 
   40   26    9  1.238e-07  1.238e-06  0.3212 y y y y y y y y 
   41   30   10  6.030e-08  6.029e-07  0.3212 y y y y y y y y Converged.
--------------------------------------------------------------------------------
  Davidson Summary: 
 ------------------------------------------------------------
  State  0: excitation energy =   0.3212 a.u.   (converged)
  State  1: excitation energy =   0.3304 a.u.   (converged)
  State  2: excitation energy =   0.3358 a.u.   (converged)
  State  3: excitation energy =   0.3587 a.u.   (converged)
  State  4: excitation energy =   0.3742 a.u.   (converged)
  State  5: excitation energy =   0.3865 a.u.   (converged)
  State  6: excitation energy =   0.4212 a.u.   (converged)
  State  7: excitation energy =   0.4452 a.u.   (converged)
  State  8: excitation energy =   0.4548 a.u.   (converged)
  State  9: excitation energy =   0.4599 a.u.   (converged)
 ------------------------------------------------------------

  Singlet states of irrep A ...  CPU 119.18 s  wall 30.38 s
  TDMs ...  CPU 0.58 s  wall 0.24 s
  SDMs ...  CPU 1.58 s  wall 0.47 s
  Starting TPA DIIS iterations ... 
------------------------------------ 
   It     Res. Norm  Remark
------------------------------------
                       Guess.
    1     4.385e+00  
    2     5.818e+00  
    3     1.089e+00  
    4     2.673e-01  
    5     6.633e-02  
    6     2.837e-02  
    7     8.456e-03  
    8     1.628e-03  
    9     6.120e-04  
   10     9.882e-05  
   11     3.319e-05  
   12     5.150e-06  
   13     1.700e-06  
   14     5.326e-07  Converged.
   ... Converged in 14 steps (norm: 5.32646e-07)
------------------------------------
  Starting TPA DIIS iterations ... 
------------------------------------ 
   It     Res. Norm  Remark
------------------------------------
                       Guess.
    1     4.183e+00  
    2     5.533e+00  
    3     1.026e+00  
    4     2.524e-01  
    5     6.453e-02  
    6     2.626e-02  
    7     8.141e-03  
    8     1.438e-03  
    9     5.342e-04  
   10     9.103e-05  
   11     2.834e-05  
   12     4.404e-06  
   13     1.583e-06  
   14     4.650e-07  Converged.
   ... Converged in 14 steps (norm: 4.6495e-07)
------------------------------------
  Starting TPA DIIS iterations ... 
------------------------------------ 
   It     Res. Norm  Remark
------------------------------------
                       Guess.
    1     6.885e-01  
    2     4.815e-01  
    3     1.690e-01  
    4     5.881e-02  
    5     1.878e-02  
    6     6.896e-03  
    7     1.172e-03  
    8     4.435e-04  
    9     1.783e-04  
   10     3.273e-05  
   11     2.194e-05  
   12     8.139e-06  
   13     4.272e-06  
   14     1.837e-06  
   15     5.512e-07  Converged.
   ... Converged in 15 steps (norm: 5.51202e-07)
------------------------------------
  Starting TPA DIIS iterations ... 
------------------------------------ 
   It     Res. Norm  Remark
------------------------------------
                       Guess.
    1     4.609e+00  
    2     6.220e+00  
    3     1.153e+00  
    4     2.906e-01  
    5     7.291e-02  
    6     3.143e-02  
    7     9.353e-03  
    8     1.802e-03  
    9     6.810e-04  
   10     1.104e-04  
   11     3.736e-05  
   12     5.846e-06  
   13     1.941e-06  
   14     6.097e-07  Converged.
   ... Converged in 14 steps (norm: 6.09712e-07)
------------------------------------
  Starting TPA DIIS iterations ... 
------------------------------------ 
   It     Res. Norm  Remark
------------------------------------
                       Guess.
    1     4.397e+00  
    2     5.916e+00  
    3     1.087e+00  
    4     2.742e-01  
    5     7.096e-02  
    6     2.908e-02  
    7     9.002e-03  
    8     1.587e-03  
    9     5.931e-04  
   10     1.016e-04  
   11     3.185e-05  
   12     4.985e-06  
   13     1.813e-06  
   14     5.326e-07  Converged.
   ... Converged in 14 steps (norm: 5.32555e-07)
------------------------------------
  Starting TPA DIIS iterations ... 
------------------------------------ 
   It     Res. Norm  Remark
------------------------------------
                       Guess.
    1     6.980e-01  
    2     4.951e-01  
    3     1.767e-01  
    4     6.475e-02  
    5     1.995e-02  
    6     7.386e-03  
    7     1.290e-03  
    8     4.924e-04  
    9     1.996e-04  
   10     3.870e-05  
   11     2.520e-05  
   12     9.424e-06  
   13     5.106e-06  
   14     2.256e-06  
   15     6.592e-07  Converged.
   ... Converged in 15 steps (norm: 6.59205e-07)
------------------------------------
  Starting TPA DIIS iterations ... 
------------------------------------ 
   It     Res. Norm  Remark
------------------------------------
                       Guess.
    1     4.748e+00  
    2     6.472e+00  
    3     1.192e+00  
    4     3.055e-01  
    5     7.709e-02  
    6     3.339e-02  
    7     9.923e-03  
    8     1.913e-03  
    9     7.251e-04  
   10     1.178e-04  
   11     4.005e-05  
   12     6.296e-06  
   13     2.097e-06  
   14     6.601e-07  Converged.
   ... Converged in 14 steps (norm: 6.60099e-07)
------------------------------------
  Starting TPA DIIS iterations ... 
------------------------------------ 
   It     Res. Norm  Remark
------------------------------------
                       Guess.
    1     4.529e+00  
    2     6.155e+00  
    3     1.124e+00  
    4     2.880e-01  
    5     7.503e-02  
    6     3.088e-02  
    7     9.550e-03  
    8     1.682e-03  
    9     6.307e-04  
   10     1.083e-04  
   11     3.411e-05  
   12     5.359e-06  
   13     1.964e-06  
   14     5.769e-07  Converged.
   ... Converged in 14 steps (norm: 5.76874e-07)
------------------------------------
  Starting TPA DIIS iterations ... 
------------------------------------ 
   It     Res. Norm  Remark
------------------------------------
                       Guess.
    1     7.037e-01  
    2     5.033e-01  
    3     1.814e-01  
    4     6.858e-02  
    5     2.067e-02  
    6     7.695e-03  
    7     1.366e-03  
    8     5.233e-04  
    9     2.133e-04  
   10     4.276e-05  
   11     2.734e-05  
   12     1.029e-05  
   13     5.675e-06  
   14     2.546e-06  
   15     7.284e-07  Converged.
   ... Converged in 15 steps (norm: 7.2841e-07)
------------------------------------
  Starting TPA DIIS iterations ... 
------------------------------------ 
   It     Res. Norm  Remark
------------------------------------
                       Guess.
    1     5.425e+00  
    2     7.732e+00  
    3     1.385e+00  
    4     3.822e-01  
    5     9.868e-02  
    6     4.361e-02  
    7     1.288e-02  
    8     2.486e-03  
    9     9.558e-04  
   10     1.565e-04  
   11     5.436e-05  
   12     8.711e-06  
   13     2.955e-06  
   14     9.382e-07  Converged.
   ... Converged in 14 steps (norm: 9.3819e-07)
------------------------------------
  Starting TPA DIIS iterations ... 
------------------------------------ 
   It     Res. Norm  Remark
------------------------------------
                       Guess.
    1     5.173e+00  
    2     7.354e+00  
    3     1.305e+00  
    4     3.592e-01  
    5     9.611e-02  
    6     4.028e-02  
    7     1.238e-02  
    8     2.172e-03  
    9     8.265e-04  
   10     1.436e-04  
   11     4.613e-05  
   12     7.359e-06  
   13     2.804e-06  
   14     8.233e-07  Converged.
   ... Converged in 14 steps (norm: 8.23339e-07)
------------------------------------
  Starting TPA DIIS iterations ... 
------------------------------------ 
   It     Res. Norm  Remark
------------------------------------
                       Guess.
    1     7.289e-01  
    2     5.413e-01  
    3     2.036e-01  
    4     8.898e-02  
    5     2.409e-02  
    6     9.289e-03  
    7     1.769e-03  
    8     6.782e-04  
    9     2.839e-04  
   10     6.654e-05  
   11     3.931e-05  
   12     1.535e-05  
   13     9.140e-06  
   14     4.300e-06  
   15     1.094e-06  
   16     4.497e-07  Converged.
   ... Converged in 16 steps (norm: 4.49745e-07)
------------------------------------
  Starting TPA DIIS iterations ... 
------------------------------------ 
   It     Res. Norm  Remark
------------------------------------
                       Guess.
    1     5.978e+00  
    2     8.796e+00  
    3     1.541e+00  
    4     4.497e-01  
    5     1.176e-01  
    6     5.271e-02  
    7     1.548e-02  
    8     2.990e-03  
    9     1.161e-03  
   10     1.910e-04  
   11     6.734e-05  
   12     1.092e-05  
   13     3.759e-06  
   14     1.207e-06  
   15     3.514e-07  Converged.
   ... Converged in 15 steps (norm: 3.51441e-07)
------------------------------------
  Starting TPA DIIS iterations ... 
------------------------------------ 
   It     Res. Norm  Remark
------------------------------------
                       Guess.
    1     5.699e+00  
    2     8.365e+00  
    3     1.452e+00  
    4     4.215e-01  
    5     1.146e-01  
    6     4.864e-02  
    7     1.487e-02  
    8     2.600e-03  
    9     1.000e-03  
   10     1.749e-04  
   11     5.705e-05  
   12     9.177e-06  
   13     3.616e-06  
   14     1.065e-06  
   15     5.680e-07  Converged.
   ... Converged in 15 steps (norm: 5.68006e-07)
------------------------------------
  Starting TPA DIIS iterations ... 
------------------------------------ 
   It     Res. Norm  Remark
------------------------------------
                       Guess.
    1     7.470e-01  
    2     5.702e-01  
    3     2.211e-01  
    4     1.076e-01  
    5     2.687e-02  
    6     1.069e-02  
    7     2.135e-03  
    8     8.027e-04  
    9     3.452e-04  
   10     9.040e-05  
   11     5.093e-05  
   12     2.060e-05  
   13     1.300e-05  
   14     6.122e-06  
   15     1.455e-06  
   16     6.017e-07  Converged.
   ... Converged in 16 steps (norm: 6.01726e-07)
------------------------------------
  Starting TPA DIIS iterations ... 
------------------------------------ 
   It     Res. Norm  Remark
------------------------------------
                       Guess.
    1     6.486e+00  
    2     9.801e+00  
    3     1.683e+00  
    4     5.154e-01  
    5     1.360e-01  
    6     6.165e-02  
    7     1.801e-02  
    8     3.481e-03  
    9     1.363e-03  
   10     2.249e-04  
   11     8.018e-05  
   12     1.314e-05  
   13     4.570e-06  
   14     1.492e-06  
   15     4.360e-07  Converged.
   ... Converged in 15 steps (norm: 4.36034e-07)
------------------------------------
  Starting TPA DIIS iterations ... 
------------------------------------ 
   It     Res. Norm  Remark
------------------------------------
                       Guess.
    1     6.183e+00  
    2     9.321e+00  
    3     1.587e+00  
    4     4.820e-01  
    5     1.326e-01  
    6     5.685e-02  
    7     1.730e-02  
    8     3.014e-03  
    9     1.170e-03  
   10     2.056e-04  
   11     6.787e-05  
   12     1.098e-05  
   13     4.464e-06  
   14     1.326e-06  
   15     7.501e-07  Converged.
   ... Converged in 15 steps (norm: 7.50102e-07)
------------------------------------
  Starting TPA DIIS iterations ... 
------------------------------------ 
   It     Res. Norm  Remark
------------------------------------
                       Guess.
    1     7.621e-01  
    2     5.953e-01  
    3     2.368e-01  
    4     1.261e-01  
    5     2.949e-02  
    6     1.204e-02  
    7     2.501e-03  
    8     9.110e-04  
    9     4.040e-04  
   10     1.155e-04  
   11     6.315e-05  
   12     2.639e-05  
   13     1.755e-05  
   14     8.081e-06  
   15     1.876e-06  
   16     7.739e-07  Converged.
   ... Converged in 16 steps (norm: 7.7395e-07)
------------------------------------
  Starting TPA DIIS iterations ... 
------------------------------------ 
   It     Res. Norm  Remark
------------------------------------
                       Guess.
    1     8.368e+00  
    2     1.372e+01  
    3     2.202e+00  
    4     7.833e-01  
    5     2.112e-01  
    6     9.889e-02  
    7     2.835e-02  
    8     5.493e-03  
    9     2.203e-03  
   10     3.654e-04  
   11     1.328e-04  
   12     2.265e-05  
   13     7.994e-06  
   14     2.887e-06  
   15     8.450e-07  Converged.
   ... Converged in 15 steps (norm: 8.4496e-07)
------------------------------------
  Starting TPA DIIS iterations ... 
------------------------------------ 
   It     Res. Norm  Remark
------------------------------------
                       Guess.
    1     7.972e+00  
    2     1.305e+01  
    3     2.076e+00  
    4     7.277e-01  
    5     2.060e-01  
    6     9.102e-02  
    7     2.718e-02  
    8     4.691e-03  
    9     1.873e-03  
   10     3.324e-04  
   11     1.129e-04  
   12     1.850e-05  
   13     8.461e-06  
   14     2.722e-06  
   15     1.750e-06  
   16     7.062e-07  Converged.
   ... Converged in 16 steps (norm: 7.06211e-07)
------------------------------------
  Starting TPA DIIS iterations ... 
------------------------------------ 
   It     Res. Norm  Remark
------------------------------------
                       Guess.
    1     8.082e-01  
    2     6.792e-01  
    3     2.915e-01  
    4     2.032e-01  
    5     3.978e-02  
    6     1.750e-02  
    7     4.059e-03  
    8     1.242e-03  
    9     6.358e-04  
   10     2.296e-04  
   11     1.207e-04  
   12     5.575e-05  
   13     4.314e-05  
   14     1.745e-05  
   15     4.510e-06  
   16     1.645e-06  
   17     5.689e-07  Converged.
   ... Converged in 17 steps (norm: 5.68927e-07)
------------------------------------
  Starting TPA DIIS iterations ... 
------------------------------------ 
   It     Res. Norm  Remark
------------------------------------
                       Guess.
    1     1.024e+01  
    2     1.790e+01  
    3     2.706e+00  
    4     1.080e+00  
    5     2.951e-01  
    6     1.416e-01  
    7     3.993e-02  
    8     7.753e-03  
    9     3.164e-03  
   10     5.247e-04  
   11     1.897e-04  
   12     3.433e-05  
   13     1.199e-05  
   14     4.795e-06  
   15     1.528e-06  
   16     6.689e-07  Converged.
   ... Converged in 16 steps (norm: 6.68859e-07)
------------------------------------
  Starting TPA DIIS iterations ... 
------------------------------------ 
   It     Res. Norm  Remark
------------------------------------
                       Guess.
    1     9.752e+00  
    2     1.702e+01  
    3     2.550e+00  
    4     9.986e-01  
    5     2.879e-01  
    6     1.301e-01  
    7     3.821e-02  
    8     6.547e-03  
    9     2.671e-03  
   10     4.754e-04  
   11     1.627e-04  
   12     2.703e-05  
   13     1.386e-05  
   14     5.108e-06  
   15     3.359e-06  
   16     1.553e-06  
   17     9.252e-07  Converged.
   ... Converged in 17 steps (norm: 9.25184e-07)
------------------------------------
  Starting TPA DIIS iterations ... 
------------------------------------ 
   It     Res. Norm  Remark
------------------------------------
                       Guess.
    1     8.439e-01  
    2     7.522e-01  
    3     3.418e-01  
    4     2.864e-01  
    5     5.092e-02  
    6     2.325e-02  
    7     5.836e-03  
    8     1.514e-03  
    9     8.846e-04  
   10     3.677e-04  
   11     1.959e-04  
   12     9.520e-05  
   13     7.735e-05  
   14     2.977e-05  
   15     8.992e-06  
   16     2.922e-06  
   17     9.220e-07  Converged.
   ... Converged in 17 steps (norm: 9.22033e-07)
------------------------------------
  Starting TPA DIIS iterations ... 
------------------------------------ 
   It     Res. Norm  Remark
------------------------------------
                       Guess.
    1     1.118e+01  
    2     2.008e+01  
    3     2.953e+00  
    4     1.237e+00  
    5     3.400e-01  
    6     1.648e-01  
    7     4.614e-02  
    8     8.966e-03  
    9     3.684e-03  
   10     6.105e-04  
   11     2.194e-04  
   12     4.115e-05  
   13     1.430e-05  
   14     5.912e-06  
   15     2.044e-06  
   16     8.827e-07  Converged.
   ... Converged in 16 steps (norm: 8.82743e-07)
------------------------------------
  Starting TPA DIIS iterations ... 
------------------------------------ 
   It     Res. Norm  Remark
------------------------------------
                       Guess.
    1     1.064e+01  
    2     1.910e+01  
    3     2.783e+00  
    4     1.142e+00  
    5     3.318e-01  
    6     1.514e-01  
    7     4.412e-02  
    8     7.535e-03  
    9     3.102e-03  
   10     5.521e-04  
   11     1.889e-04  
   12     3.166e-05  
   13     1.716e-05  
   14     6.788e-06  
   15     4.446e-06  
   16     2.168e-06  
   17     1.218e-06  
   18     4.516e-07  Converged.
   ... Converged in 18 steps (norm: 4.51586e-07)
------------------------------------
  Starting TPA DIIS iterations ... 
------------------------------------ 
   It     Res. Norm  Remark
------------------------------------
                       Guess.
    1     8.592e-01  
    2     7.860e-01  
    3     3.657e-01  
    4     3.276e-01  
    5     5.674e-02  
    6     2.610e-02  
    7     6.779e-03  
    8     1.658e-03  
    9     1.015e-03  
   10     4.432e-04  
   11     2.395e-04  
   12     1.177e-04  
   13     9.491e-05  
   14     3.698e-05  
   15     1.193e-05  
   16     3.760e-06  
   17     1.158e-06  
   18     6.365e-07  Converged.
   ... Converged in 18 steps (norm: 6.36533e-07)
------------------------------------
  Starting TPA DIIS iterations ... 
------------------------------------ 
   It     Res. Norm  Remark
------------------------------------
                       Guess.
    1     1.174e+01  
    2     2.142e+01  
    3     3.099e+00  
    4     1.333e+00  
    5     3.677e-01  
    6     1.791e-01  
    7     4.996e-02  
    8     9.716e-03  
    9     4.007e-03  
   10     6.635e-04  
   11     2.376e-04  
   12     4.555e-05  
   13     1.579e-05  
   14     6.629e-06  
   15     2.413e-06  
   16     1.033e-06  
   17     5.412e-07  Converged.
   ... Converged in 17 steps (norm: 5.41208e-07)
------------------------------------
  Starting TPA DIIS iterations ... 
------------------------------------ 
   It     Res. Norm  Remark
------------------------------------
                       Guess.
    1     1.118e+01  
    2     2.036e+01  
    3     2.921e+00  
    4     1.229e+00  
    5     3.588e-01  
    6     1.645e-01  
    7     4.776e-02  
    8     8.142e-03  
    9     3.370e-03  
   10     5.993e-04  
   11     2.049e-04  
   12     3.454e-05  
   13     1.933e-05  
   14     7.956e-06  
   15     5.200e-06  
   16     2.607e-06  
   17     1.411e-06  
   18     5.372e-07  Converged.
   ... Converged in 18 steps (norm: 5.37172e-07)
------------------------------------
  Starting TPA DIIS iterations ... 
------------------------------------ 
   It     Res. Norm  Remark
------------------------------------
                       Guess.
    1     8.677e-01  
    2     8.054e-01  
    3     3.797e-01  
    4     3.516e-01  
    5     6.028e-02  
    6     2.776e-02  
    7     7.354e-03  
    8     1.753e-03  
    9     1.095e-03  
   10     4.899e-04  
   11     2.673e-04  
   12     1.319e-04  
   13     1.049e-04  
   14     4.160e-05  
   15     1.390e-05  
   16     4.343e-06  
   17     1.327e-06  
   18     7.803e-07  Converged.
   ... Converged in 18 steps (norm: 7.80294e-07)
------------------------------------
  Two-photon absorbption ...  CPU 100.91 s  wall 19.31 s
  Transition density matrix of state singlet_A_1 printed to ASCII file 'State_singlet_A_1_Transition.txt'
  Transition density matrix of state singlet_A_2 printed to ASCII file 'State_singlet_A_2_Transition.txt'
  Transition density matrix of state singlet_A_3 printed to ASCII file 'State_singlet_A_3_Transition.txt'
  Transition density matrix of state singlet_A_4 printed to ASCII file 'State_singlet_A_4_Transition.txt'
  Transition density matrix of state singlet_A_5 printed to ASCII file 'State_singlet_A_5_Transition.txt'
  Transition density matrix of state singlet_A_6 printed to ASCII file 'State_singlet_A_6_Transition.txt'
  Transition density matrix of state singlet_A_7 printed to ASCII file 'State_singlet_A_7_Transition.txt'
  Transition density matrix of state singlet_A_8 printed to ASCII file 'State_singlet_A_8_Transition.txt'
  Transition density matrix of state singlet_A_9 printed to ASCII file 'State_singlet_A_9_Transition.txt'
  Transition density matrix of state singlet_A_10 printed to ASCII file 'State_singlet_A_10_Transition.txt'
  Transition properties ...  CPU 0.14 s  wall 1.51 s
  Difference density matrix of state singlet_A_1 printed to ASCII file 'State_singlet_A_1_Difference.txt'
  Total density matrix of state singlet_A_1 printed to ASCII file 'State_singlet_A_1_Total.txt'
  Difference density matrix of state singlet_A_2 printed to ASCII file 'State_singlet_A_2_Difference.txt'
  Total density matrix of state singlet_A_2 printed to ASCII file 'State_singlet_A_2_Total.txt'
  Difference density matrix of state singlet_A_3 printed to ASCII file 'State_singlet_A_3_Difference.txt'
  Total density matrix of state singlet_A_3 printed to ASCII file 'State_singlet_A_3_Total.txt'
  Difference density matrix of state singlet_A_4 printed to ASCII file 'State_singlet_A_4_Difference.txt'
  Total density matrix of state singlet_A_4 printed to ASCII file 'State_singlet_A_4_Total.txt'
  Difference density matrix of state singlet_A_5 printed to ASCII file 'State_singlet_A_5_Difference.txt'
  Total density matrix of state singlet_A_5 printed to ASCII file 'State_singlet_A_5_Total.txt'
  Difference density matrix of state singlet_A_6 printed to ASCII file 'State_singlet_A_6_Difference.txt'
  Total density matrix of state singlet_A_6 printed to ASCII file 'State_singlet_A_6_Total.txt'
  Difference density matrix of state singlet_A_7 printed to ASCII file 'State_singlet_A_7_Difference.txt'
  Total density matrix of state singlet_A_7 printed to ASCII file 'State_singlet_A_7_Total.txt'
  Difference density matrix of state singlet_A_8 printed to ASCII file 'State_singlet_A_8_Difference.txt'
  Total density matrix of state singlet_A_8 printed to ASCII file 'State_singlet_A_8_Total.txt'
  Difference density matrix of state singlet_A_9 printed to ASCII file 'State_singlet_A_9_Difference.txt'
  Total density matrix of state singlet_A_9 printed to ASCII file 'State_singlet_A_9_Total.txt'
  Difference density matrix of state singlet_A_10 printed to ASCII file 'State_singlet_A_10_Difference.txt'
  Total density matrix of state singlet_A_10 printed to ASCII file 'State_singlet_A_10_Total.txt'
  Properties ...  CPU 0.27 s  wall 2.18 s
  ISR TDMS ...  CPU 7.17 s  wall 2.53 s
  ISR transition properties ...  CPU 0.14 s  wall 0.06 s
  Sum-over-states TPA ...  CPU 0.00 s  wall 0.00 s

--------------------------------------------------------------------------------
                   State-averaged natural transition orbitals
--------------------------------------------------------------------------------
--------------------------------------------------------------------------------
  SA-NTO decomposition ...  CPU 0.01 s  wall 0.25 s

--------------------------------------------------------------------------------
                             Excited State Summary
--------------------------------------------------------------------------------
--------------------------------------------------------------------------------

  Excited state 1 (singlet, A)                                     [converged]
  ----------------------------------------------------------------------------
  Term symbol:  2 (1) A                                     R^2 =  9.10444e-14

  Total energy:                                            -77.9981675179 a.u.
  Excitation energy:                                               8.739233 eV

  Osc. strength:                                                      0.446527
  Trans. dip. moment [a.u.]:           [  -1.050501,    0.990909,    0.008848]
  <i|r^2|0> [a.u.]:                    [  -6.231034,    0.255248,   -0.001637]
  Two-photon absorption cross-section (SoS) [a.u.]:                   0.029049
  Two-photon absorption matrix (SoS) [a.u.]:
                                       |   -0.026582   -0.049254   -0.004705 |
                                       |   -0.049254   -0.015862   -0.005865 |
                                       |   -0.004705   -0.005865    0.036339 |
  Two-photon absorption cross-section [a.u.]:                         0.023054
  Two-photon absorption matrix [a.u.]:
                                       |   -0.004875   -0.028632    0.000592 |
                                       |   -0.028632    0.019268   -0.002288 |
                                       |    0.000592   -0.002288    0.044523 |

  Dip. moment [a.u.]:                  [   0.005745,    0.001017,    0.001443]
  Total dipole [Debye]:                                               0.015277
  <r^2> [a.u.]:                        [ 177.035518,   35.663885,   11.901718]
  Total <r^2> [a.u.]:                                               224.601120

  V1^2 = 0.9713, V2^2 = 0.0287

  Important amplitudes:
      occ i     occ j     vir a      vir b          v   
    -----------------------------------------------------
     8 (A) A              9 (A) A                -0.6809
     6 (A) A             14 (A) A                 0.0618
     4 (A) A             10 (A) A                -0.0614
     7 (A) A             16 (A) A                 0.0569
     5 (A) A             13 (A) A                 0.0521
     6 (A) A             23 (A) A                -0.0484
     8 (A) A             20 (A) A                 0.0349
     6 (A) A             19 (A) A                -0.0300
     3 (A) A             12 (A) A                 0.0274
     5 (A) A             22 (A) A                -0.0214
     7 (A) A             11 (A) A                 0.0191
     4 (A) A             24 (A) A                -0.0188
     3 (A) A             26 (A) A                 0.0185
     8 (A) A   8 (A) B   17 (A) A   20 (A) B     -0.0184
     8 (A) A   8 (A) B    9 (A) A   28 (A) B     -0.0168
     6 (A) A             26 (A) A                 0.0162
     7 (A) A             21 (A) A                 0.0153
     3 (A) A             14 (A) A                 0.0141
     6 (A) A             12 (A) A                -0.0134
     3 (A) A   4 (A) B    9 (A) A    9 (A) B      0.0129
     3 (A) A             19 (A) A                -0.0119
     8 (A) A   8 (A) B   18 (A) A   19 (A) B      0.0110
     7 (A) A             32 (A) A                 0.0096
     7 (A) A             36 (A) A                 0.0083
     3 (A) A             23 (A) A                -0.0082
     8 (A) A   8 (A) B   25 (A) A   29 (A) B     -0.0076
     3 (A) A             11 (A) A                 0.0073
     6 (A) A             40 (A) A                 0.0067
     3 (A) A   6 (A) B    9 (A) A   28 (A) B     -0.0064
     7 (A) A   8 (A) B   13 (A) A   20 (A) B     -0.0060
     5 (A) A   7 (A) B    9 (A) A    9 (A) B     -0.0060
     6 (A) A   8 (A) A   19 (A) A   28 (A) A      0.0059
     5 (A) A   8 (A) B   16 (A) A    9 (A) B      0.0059
     5 (A) A   8 (A) B   11 (A) A    9 (A) B     -0.0059
     5 (A) A   8 (A) B   11 (A) A   20 (A) B     -0.0058
     3 (A) A   5 (A) B    9 (A) A   25 (A) B      0.0058
     5 (A) A             27 (A) A                 0.0058
     7 (A) A             12 (A) A                -0.0057
     7 (A) A   8 (A) B   22 (A) A   20 (A) B      0.0057
     3 (A) A             40 (A) A                 0.0057
    -----------------------------------------------------

  Density matrix analysis:
  ------------------------
  NOs
    Occupation of frontier NOs:
       0.9491   1.0220
    Number of electrons: 16.000000
    Number of unpaired electrons: n_u =  2.31576, n_u,nl =  2.03311
    NO participation ratio (PR_NO):  2.871638
  
  
  Mulliken Population Analysis
  Atom      Charge (e)              h+              e-           Del q
  --------------------------------------------------------------------
   1 H        0.059644        0.020511       -0.012595        0.007916
   2 C       -0.109798        0.490784       -0.505798       -0.015014
   3 H        0.058795        0.020160       -0.012555        0.007604
   4 C       -0.135481        0.490708       -0.507047       -0.016339
   5 H        0.058759        0.020017       -0.012537        0.007480
   6 H        0.068082        0.020719       -0.012366        0.008353
  --------------------------------------------------------------------
  Sum:       -0.000000        1.062899       -1.062899        0.000000
  
  Multipole moment analysis of the density matrix
    Molecular charge:                      -0.000000
    Number of electrons:                   16.000000
      Center of electronic charge [Ang]: [ -1.563266,  -0.065636,   0.001930]
    Total nuclear charge:                  16.000000
      Center of nuclear charge [Ang]:    [ -1.563076,  -0.065602,   0.001978]
    Dipole moment [D]:                     0.015277
      Cartesian components [D]:          [  0.014603,   0.002585,   0.003668]
    RMS size of the density [Ang]:         1.217706
      Cartesian components [Ang]:        [  0.809096,   0.787320,   0.456396]
  
  Exciton analysis of the difference density matrix
    <r_h> [Ang]:                  [ -1.561181,  -0.065717,   0.001532]
    <r_e> [Ang]:                  [ -1.561022,  -0.065494,   0.001473]
    |<r_e - r_h>| [Ang]:            0.000280
    Hole size [Ang]:                1.286551
      Cartesian components [Ang]: [  0.730958,   0.712443,   0.783160]
    Electron size [Ang]:            1.463665
      Cartesian components [Ang]: [  0.855157,   0.830324,   0.849460]

  Transition density matrix analysis:
  -----------------------------------
  
  CT numbers (Mulliken)
    omega =     0.9533
    <Phe> =    -0.1601
  
  Exciton analysis of the transition density matrix
    Trans. dipole moment [D]:             1.835314
      Cartesian components [D]:         [ -1.335053,   1.259319,   0.011245]
    <r_h> [Ang]:                        [ -1.559962,  -0.066115,   0.001658]
    <r_e> [Ang]:                        [ -1.561287,  -0.065495,   0.001381]
    |<r_e - r_h>| [Ang]:                  0.001489
    Hole size [Ang]:                      1.214152
      Cartesian components [Ang]:       [  0.650161,   0.636221,   0.804163]
    Electron size [Ang]:                  1.486548
      Cartesian components [Ang]:       [  0.865568,   0.839251,   0.869642]
    RMS electron-hole separation [Ang]:   1.936586
      Cartesian components [Ang]:       [  1.106908,   1.074987,   1.170267]
    Covariance(r_h, r_e) [Ang^2]:        -0.033187
    Correlation coefficient:             -0.018387
    Center-of-mass size [Ang]:            0.951002
      Cartesian components [Ang]:       [  0.528817,   0.515423,   0.599247]

  Decomposition into state-averaged NTOs
    H- 0 -> L+ 0: -0.6697 ( 89.7%)
    H- 2 -> L+ 5: -0.0832 (  1.4%)
                   omega =  95.3%
  ----------------------------------------------------------------------------


  Excited state 2 (singlet, A)                                     [converged]
  ----------------------------------------------------------------------------
  Term symbol:  3 (1) A                                     R^2 =  2.58362e-13

  Total energy:                                            -77.9888997185 a.u.
  Excitation energy:                                               8.991422 eV

  Osc. strength:                                                      0.000467
  Trans. dip. moment [a.u.]:           [  -0.006865,    0.000763,    0.045535]
  <i|r^2|0> [a.u.]:                    [  -0.108507,   -0.080079,    0.147666]
  Two-photon absorption cross-section (SoS) [a.u.]:                   5.608075
  Two-photon absorption matrix (SoS) [a.u.]:
                                       |   -0.064899   -0.062753    0.640955 |
                                       |   -0.062753   -0.063197    0.524108 |
                                       |    0.640955    0.524108    0.122044 |
  Two-photon absorption cross-section [a.u.]:                         0.161909
  Two-photon absorption matrix [a.u.]:
                                       |    0.003781    0.009908   -0.135191 |
                                       |    0.009908    0.011177   -0.040438 |
                                       |   -0.135191   -0.040438   -0.017727 |

  Dip. moment [a.u.]:                  [   0.011467,    0.088687,    0.007917]
  Total dipole [Debye]:                                               0.228186
  <r^2> [a.u.]:                        [ 175.534743,   34.181910,   13.152974]
  Total <r^2> [a.u.]:                                               222.869628

  V1^2 = 0.9542, V2^2 = 0.0458

  Important amplitudes:
      occ i     occ j     vir a      vir b          v   
    -----------------------------------------------------
     7 (A) A              9 (A) A                -0.6620
     8 (A) A             11 (A) A                 0.1524
     8 (A) A             10 (A) A                -0.0874
     7 (A) A             20 (A) A                 0.0750
     5 (A) A   8 (A) B    9 (A) A    9 (A) B     -0.0311
     8 (A) A             16 (A) A                -0.0288
     8 (A) A             12 (A) A                -0.0274
     8 (A) A             21 (A) A                 0.0185
     5 (A) A             28 (A) A                 0.0148
     4 (A) A   7 (A) B    9 (A) A   19 (A) B      0.0133
     5 (A) A   7 (A) B    9 (A) A   16 (A) B     -0.0132
     7 (A) A   8 (A) B   20 (A) A   17 (A) B     -0.0104
     7 (A) A   8 (A) A    9 (A) A   28 (A) A      0.0097
     5 (A) A   8 (A) B    9 (A) A   20 (A) B      0.0094
     4 (A) A   6 (A) B    9 (A) A   16 (A) B     -0.0090
     5 (A) A   6 (A) A    9 (A) A   23 (A) A      0.0089
     5 (A) A   6 (A) A    9 (A) A   14 (A) A     -0.0087
     8 (A) A   7 (A) B    9 (A) A   28 (A) B     -0.0084
     4 (A) A   5 (A) A    9 (A) A   10 (A) A     -0.0084
     5 (A) A   6 (A) B    9 (A) A   19 (A) B      0.0084
     6 (A) A   7 (A) B    9 (A) A   18 (A) B      0.0083
     5 (A) A   6 (A) B    9 (A) A   23 (A) B      0.0079
     3 (A) A   7 (A) B    9 (A) A   18 (A) B     -0.0078
     5 (A) A   7 (A) A    9 (A) A   16 (A) A     -0.0077
     4 (A) A   8 (A) B    9 (A) A   25 (A) B     -0.0076
     7 (A) A   8 (A) B   17 (A) A   20 (A) B     -0.0073
     4 (A) A   7 (A) B   19 (A) A    9 (A) B      0.0073
     5 (A) A   5 (A) B    9 (A) A   13 (A) B     -0.0071
     7 (A) A   8 (A) B   19 (A) A   18 (A) B      0.0070
     6 (A) A              9 (A) A                -0.0069
     5 (A) A   8 (A) A    9 (A) A   20 (A) A      0.0068
     4 (A) A   5 (A) B    9 (A) A   18 (A) B      0.0067
     7 (A) A   7 (A) B   20 (A) A   22 (A) B      0.0064
     7 (A) A   8 (A) B   17 (A) A    9 (A) B      0.0064
     5 (A) A   6 (A) B    9 (A) A   14 (A) B     -0.0062
     4 (A) A   5 (A) B   10 (A) A    9 (A) B      0.0060
     4 (A) A   7 (A) A    9 (A) A   19 (A) A      0.0060
     5 (A) A   7 (A) B   11 (A) A   20 (A) B     -0.0059
     4 (A) A   7 (A) B    9 (A) A   14 (A) B      0.0059
     4 (A) A   8 (A) A    9 (A) A   25 (A) A     -0.0056
    -----------------------------------------------------

  Density matrix analysis:
  ------------------------
  NOs
    Occupation of frontier NOs:
       0.9378   1.0729
    Number of electrons: 16.000000
    Number of unpaired electrons: n_u =  2.35740, n_u,nl =  2.07790
    NO participation ratio (PR_NO):  3.148203
  
  
  Mulliken Population Analysis
  Atom      Charge (e)              h+              e-           Del q
  --------------------------------------------------------------------
   1 H        0.151425        0.114606       -0.014909        0.099697
   2 C       -0.286279        0.262932       -0.454428       -0.191495
   3 H        0.130537        0.119296       -0.039950        0.079346
   4 C       -0.304798        0.281993       -0.467649       -0.185656
   5 H        0.159886        0.121161       -0.012554        0.108607
   6 H        0.149230        0.136923       -0.047422        0.089501
  --------------------------------------------------------------------
  Sum:       -0.000000        1.036912       -1.036912       -0.000000
  
  Multipole moment analysis of the density matrix
    Molecular charge:                      -0.000000
    Number of electrons:                   16.000000
      Center of electronic charge [Ang]: [ -1.563455,  -0.068536,   0.001716]
    Total nuclear charge:                  16.000000
      Center of nuclear charge [Ang]:    [ -1.563076,  -0.065602,   0.001978]
    Dipole moment [D]:                     0.228186
      Cartesian components [D]:          [  0.029145,   0.225420,   0.020124]
    RMS size of the density [Ang]:         1.204792
      Cartesian components [Ang]:        [  0.792324,   0.770420,   0.479789]
  
  Exciton analysis of the difference density matrix
    <r_h> [Ang]:                  [ -1.611056,  -0.053547,   0.000575]
    <r_e> [Ang]:                  [ -1.613814,  -0.098059,  -0.002790]
    |<r_e - r_h>| [Ang]:            0.044725
    Hole size [Ang]:                1.491723
      Cartesian components [Ang]: [  1.019615,   0.983848,   0.466550]
    Electron size [Ang]:            1.496915
      Cartesian components [Ang]: [  0.909311,   0.864509,   0.816413]

  Transition density matrix analysis:
  -----------------------------------
  
  CT numbers (Mulliken)
    omega =     0.9215
    <Phe> =    -0.0112
  
  Exciton analysis of the transition density matrix
    Trans. dipole moment [D]:             0.058531
      Cartesian components [D]:         [ -0.008724,   0.000970,   0.057869]
    <r_h> [Ang]:                        [ -1.615181,  -0.049582,   0.000759]
    <r_e> [Ang]:                        [ -1.612571,  -0.103236,  -0.003181]
    |<r_e - r_h>| [Ang]:                  0.053861
    Hole size [Ang]:                      1.516599
      Cartesian components [Ang]:       [  1.040862,   1.003879,   0.457060]
    Electron size [Ang]:                  1.494165
      Cartesian components [Ang]:       [  0.901486,   0.854638,   0.830329]
    RMS electron-hole separation [Ang]:   2.111175
      Cartesian components [Ang]:       [  1.363289,   1.304465,   0.947034]
    Covariance(r_h, r_e) [Ang^2]:         0.039221
    Correlation coefficient:              0.017308
    Center-of-mass size [Ang]:            1.073667
      Cartesian components [Ang]:       [  0.695269,   0.666635,   0.474300]

  Decomposition into state-averaged NTOs
    H- 1 -> L+ 0: -0.6543 ( 85.6%)
    H- 0 -> L+ 2:  0.1631 (  5.3%)
                   omega =  92.2%
  ----------------------------------------------------------------------------


  Excited state 3 (singlet, A)                                     [converged]
  ----------------------------------------------------------------------------
  Term symbol:  4 (1) A                                     R^2 =  1.73551e-13

  Total energy:                                            -77.9835369511 a.u.
  Excitation energy:                                               9.137351 eV

  Osc. strength:                                                      0.022907
  Trans. dip. moment [a.u.]:           [   0.012362,    0.021172,   -0.318946]
  <i|r^2|0> [a.u.]:                    [   0.063487,   -0.004294,    0.020356]
  Two-photon absorption cross-section (SoS) [a.u.]:                   0.036297
  Two-photon absorption matrix (SoS) [a.u.]:
                                       |   -0.005034    0.002873   -0.065113 |
                                       |    0.002873    0.015428   -0.011161 |
                                       |   -0.065113   -0.011161    0.001002 |
  Two-photon absorption cross-section [a.u.]:                         0.100844
  Two-photon absorption matrix [a.u.]:
                                       |    0.005400    0.005686   -0.102958 |
                                       |    0.005686    0.019199   -0.040891 |
                                       |   -0.102958   -0.040891   -0.009412 |

  Dip. moment [a.u.]:                  [   0.255830,    0.028160,    0.012397]
  Total dipole [Debye]:                                               0.654940
  <r^2> [a.u.]:                        [ 183.260018,   40.383127,   11.077250]
  Total <r^2> [a.u.]:                                               234.720395

  V1^2 = 0.9582, V2^2 = 0.0418

  Important amplitudes:
      occ i     occ j     vir a      vir b          v   
    -----------------------------------------------------
     8 (A) A             10 (A) A                 0.6825
     7 (A) A              9 (A) A                -0.0915
     8 (A) A             24 (A) A                 0.0500
     8 (A) A             18 (A) A                -0.0324
     4 (A) A              9 (A) A                 0.0246
     8 (A) A   8 (A) B    9 (A) A   12 (A) B     -0.0211
     8 (A) A   8 (A) B   10 (A) A   17 (A) B      0.0170
     5 (A) A   8 (A) B   11 (A) A   10 (A) B      0.0161
     8 (A) A             15 (A) A                -0.0157
     7 (A) A   8 (A) B   13 (A) A   10 (A) B      0.0141
     6 (A) A   8 (A) A   10 (A) A   15 (A) A      0.0110
     4 (A) A   8 (A) B   12 (A) A   10 (A) B     -0.0108
     6 (A) A   8 (A) B   15 (A) A   10 (A) B     -0.0107
     7 (A) A   8 (A) B   22 (A) A   10 (A) B     -0.0107
     4 (A) A   8 (A) A   10 (A) A   12 (A) A      0.0103
     7 (A) A             20 (A) A                 0.0101
     7 (A) A   8 (A) A   10 (A) A   22 (A) A      0.0097
     7 (A) A   8 (A) A   10 (A) A   13 (A) A     -0.0097
     5 (A) A   8 (A) A   10 (A) A   11 (A) A     -0.0093
     5 (A) A   8 (A) B   21 (A) A   10 (A) B      0.0092
     8 (A) A             11 (A) A                -0.0091
     6 (A) A   8 (A) B   10 (A) A   10 (A) B     -0.0089
     6 (A) A   8 (A) A   10 (A) A   18 (A) A     -0.0087
     3 (A) A   4 (A) B   10 (A) A    9 (A) B     -0.0079
     7 (A) A   8 (A) A   12 (A) A   16 (A) A      0.0078
     5 (A) A   8 (A) A   10 (A) A   21 (A) A     -0.0078
     4 (A) A   8 (A) B   19 (A) A   10 (A) B      0.0074
     8 (A) A   8 (A) B    9 (A) A   23 (A) B     -0.0074
     8 (A) A   8 (A) B   10 (A) A   28 (A) B      0.0073
     3 (A) A   8 (A) B   10 (A) A   10 (A) B      0.0071
     3 (A) A   8 (A) A   10 (A) A   24 (A) A     -0.0070
     8 (A) A   8 (A) B    9 (A) A   19 (A) B      0.0069
     5 (A) A   8 (A) B   10 (A) A   11 (A) B      0.0068
     7 (A) A   8 (A) B   16 (A) A   12 (A) B     -0.0067
     3 (A) A   8 (A) B   10 (A) A   18 (A) B     -0.0067
     6 (A) A              9 (A) A                -0.0067
     6 (A) A   8 (A) B   18 (A) A   10 (A) B      0.0066
     3 (A) A   6 (A) B   10 (A) A   28 (A) B      0.0061
     8 (A) A   8 (A) B    9 (A) A   11 (A) B     -0.0059
     6 (A) A             28 (A) A                -0.0057
    -----------------------------------------------------

  Density matrix analysis:
  ------------------------
  NOs
    Occupation of frontier NOs:
       0.9674   0.9986
    Number of electrons: 16.000000
    Number of unpaired electrons: n_u =  2.32335, n_u,nl =  2.03374
    NO participation ratio (PR_NO):  2.779217
  
  
  Mulliken Population Analysis
  Atom      Charge (e)              h+              e-           Del q
  --------------------------------------------------------------------
   1 H       -0.115428        0.056886       -0.224042       -0.167156
   2 C        0.305053        0.512214       -0.112377        0.399837
   3 H       -0.156129        0.054098       -0.261418       -0.207320
   4 C        0.296469        0.531664       -0.116053        0.415611
   5 H       -0.146880        0.056175       -0.254335       -0.198159
   6 H       -0.183085        0.054498       -0.297312       -0.242814
  --------------------------------------------------------------------
  Sum:       -0.000000        1.265536       -1.265536        0.000000
  
  Multipole moment analysis of the density matrix
    Molecular charge:                      -0.000000
    Number of electrons:                   16.000000
      Center of electronic charge [Ang]: [ -1.571537,  -0.066534,   0.001568]
    Total nuclear charge:                  16.000000
      Center of nuclear charge [Ang]:    [ -1.563076,  -0.065602,   0.001978]
    Dipole moment [D]:                     0.654940
      Cartesian components [D]:          [  0.650254,   0.071574,   0.031510]
    RMS size of the density [Ang]:         1.278228
      Cartesian components [Ang]:        [  0.858864,   0.838063,   0.440306]
  
  Exciton analysis of the difference density matrix
    <r_h> [Ang]:                  [ -1.570583,  -0.058311,   0.001769]
    <r_e> [Ang]:                  [ -1.675021,  -0.069473,  -0.002860]
    |<r_e - r_h>| [Ang]:            0.105135
    Hole size [Ang]:                1.417474
      Cartesian components [Ang]: [  0.842825,   0.824423,   0.786896]
    Electron size [Ang]:            2.077648
      Cartesian components [Ang]: [  1.383379,   1.369381,   0.726415]

  Transition density matrix analysis:
  -----------------------------------
  
  CT numbers (Mulliken)
    omega =     0.9252
    <Phe> =    -0.0114
  
  Exciton analysis of the transition density matrix
    Trans. dipole moment [D]:             0.406535
      Cartesian components [D]:         [  0.015710,   0.026907,  -0.405339]
    <r_h> [Ang]:                        [ -1.556815,  -0.060234,   0.002043]
    <r_e> [Ang]:                        [ -1.708686,  -0.071216,  -0.004313]
    |<r_e - r_h>| [Ang]:                  0.152400
    Hole size [Ang]:                      1.219013
      Cartesian components [Ang]:       [  0.644944,   0.634079,   0.817303]
    Electron size [Ang]:                  2.278939
      Cartesian components [Ang]:       [  1.515781,   1.502644,   0.798769]
    RMS electron-hole separation [Ang]:   2.578583
      Cartesian components [Ang]:       [  1.646250,   1.623740,   1.141235]
    Covariance(r_h, r_e) [Ang^2]:         0.026847
    Correlation coefficient:              0.009664
    Center-of-mass size [Ang]:            1.297425
      Cartesian components [Ang]:       [  0.827649,   0.819082,   0.572201]

  Decomposition into state-averaged NTOs
    H- 0 -> L+ 1:  0.6648 ( 88.4%)
    H- 0 -> L+ 2: -0.1072 (  2.3%)
    H- 1 -> L+ 0: -0.0905 (  1.6%)
                   omega =  92.5%
  ----------------------------------------------------------------------------


  Excited state 4 (singlet, A)                                     [converged]
  ----------------------------------------------------------------------------
  Term symbol:  5 (1) A                                     R^2 =  2.78318e-13

  Total energy:                                            -77.9606244054 a.u.
  Excitation energy:                                               9.760833 eV

  Osc. strength:                                                      0.000451
  Trans. dip. moment [a.u.]:           [   0.004104,    0.000853,   -0.043248]
  <i|r^2|0> [a.u.]:                    [   0.003043,   -0.009063,    0.030703]
  Two-photon absorption cross-section (SoS) [a.u.]:                 134.383074
  Two-photon absorption matrix (SoS) [a.u.]:
                                       |   -0.312143   -0.306472    3.179828 |
                                       |   -0.306472   -0.290791    2.514238 |
                                       |    3.179828    2.514238    0.600435 |
  Two-photon absorption cross-section [a.u.]:                        82.953349
  Two-photon absorption matrix [a.u.]:
                                       |   -0.254517   -0.241942    2.535002 |
                                       |   -0.241942   -0.217967    1.928218 |
                                       |    2.535002    1.928218    0.469522 |

  Dip. moment [a.u.]:                  [  -0.214836,   -0.252428,   -0.026452]
  Total dipole [Debye]:                                               0.845199
  <r^2> [a.u.]:                        [ 182.382575,   38.871896,   10.792579]
  Total <r^2> [a.u.]:                                               232.047050

  V1^2 = 0.9631, V2^2 = 0.0369

  Important amplitudes:
      occ i     occ j     vir a      vir b          v   
    -----------------------------------------------------
     8 (A) A             11 (A) A                 0.6631
     7 (A) A              9 (A) A                 0.1536
     8 (A) A             12 (A) A                -0.0764
     8 (A) A             21 (A) A                 0.0763
     8 (A) A             16 (A) A                -0.0654
     8 (A) A             10 (A) A                 0.0303
     6 (A) A              9 (A) A                 0.0296
     8 (A) A   8 (A) B    9 (A) A   13 (A) B     -0.0164
     5 (A) A   8 (A) B   11 (A) A   11 (A) B      0.0156
     7 (A) A             20 (A) A                -0.0141
     8 (A) A   8 (A) B   11 (A) A   17 (A) B      0.0137
     7 (A) A   8 (A) B   13 (A) A   11 (A) B      0.0127
     5 (A) A   8 (A) A   11 (A) A   21 (A) A     -0.0107
     8 (A) A   8 (A) B    9 (A) A   22 (A) B      0.0107
     4 (A) A   8 (A) B   12 (A) A   11 (A) B     -0.0103
     8 (A) A             19 (A) A                -0.0099
     7 (A) A   8 (A) A   11 (A) A   22 (A) A      0.0094
     6 (A) A   8 (A) B   10 (A) A   11 (A) B     -0.0089
     6 (A) A   8 (A) B   15 (A) A   11 (A) B     -0.0089
     7 (A) A   8 (A) B   22 (A) A   11 (A) B     -0.0088
     3 (A) A   4 (A) B   11 (A) A    9 (A) B     -0.0082
     6 (A) A   8 (A) A   11 (A) A   15 (A) A      0.0080
     3 (A) A   8 (A) B   11 (A) A   18 (A) B     -0.0078
     7 (A) A   8 (A) A   13 (A) A   16 (A) A      0.0078
     7 (A) A   8 (A) A   11 (A) A   13 (A) A     -0.0075
     5 (A) A   8 (A) B   21 (A) A   11 (A) B      0.0069
     4 (A) A   8 (A) B   19 (A) A   11 (A) B      0.0069
     5 (A) A   8 (A) B    9 (A) A    9 (A) B      0.0068
     8 (A) A             13 (A) A                -0.0068
     4 (A) A   8 (A) A   11 (A) A   12 (A) A      0.0062
     6 (A) A   8 (A) A   11 (A) A   18 (A) A     -0.0061
     3 (A) A   6 (A) B   11 (A) A   28 (A) B      0.0060
     6 (A) A   8 (A) B   18 (A) A   11 (A) B      0.0059
     8 (A) A             24 (A) A                 0.0058
     7 (A) A   8 (A) B   16 (A) A   13 (A) B     -0.0056
     3 (A) A   8 (A) B   11 (A) A   30 (A) B     -0.0055
     3 (A) A   8 (A) A   11 (A) A   18 (A) A     -0.0054
     5 (A) A   8 (A) B   10 (A) A   10 (A) B      0.0054
     3 (A) A   5 (A) B   11 (A) A   25 (A) B     -0.0054
     8 (A) A   8 (A) B   20 (A) A   22 (A) B     -0.0053
    -----------------------------------------------------

  Density matrix analysis:
  ------------------------
  NOs
    Occupation of frontier NOs:
       0.9369   1.0314
    Number of electrons: 16.000000
    Number of unpaired electrons: n_u =  2.32167, n_u,nl =  2.05231
    NO participation ratio (PR_NO):  2.941467
  
  
  Mulliken Population Analysis
  Atom      Charge (e)              h+              e-           Del q
  --------------------------------------------------------------------
   1 H       -0.240638        0.044773       -0.337139       -0.292366
   2 C        0.275219        0.494356       -0.124353        0.370003
   3 H       -0.024903        0.048299       -0.124393       -0.076093
   4 C        0.240976        0.496540       -0.136422        0.360118
   5 H       -0.112135        0.049193       -0.212607       -0.163414
   6 H       -0.138519        0.044386       -0.242634       -0.198248
  --------------------------------------------------------------------
  Sum:       -0.000000        1.177547       -1.177547        0.000000
  
  Multipole moment analysis of the density matrix
    Molecular charge:                      -0.000000
    Number of electrons:                   16.000000
      Center of electronic charge [Ang]: [ -1.555971,  -0.057254,   0.002853]
    Total nuclear charge:                  16.000000
      Center of nuclear charge [Ang]:    [ -1.563076,  -0.065602,   0.001978]
    Dipole moment [D]:                     0.845199
      Cartesian components [D]:          [ -0.546058,  -0.641609,  -0.067235]
    RMS size of the density [Ang]:         1.279416
      Cartesian components [Ang]:        [  0.878052,   0.822830,   0.434605]
  
  Exciton analysis of the difference density matrix
    <r_h> [Ang]:                  [ -1.555919,  -0.058353,   0.002406]
    <r_e> [Ang]:                  [ -1.456650,   0.055744,   0.014889]
    |<r_e - r_h>| [Ang]:            0.151751
    Hole size [Ang]:                1.396573
      Cartesian components [Ang]: [  0.823376,   0.805665,   0.789540]
    Electron size [Ang]:            2.111741
      Cartesian components [Ang]: [  1.557543,   1.255551,   0.676092]

  Transition density matrix analysis:
  -----------------------------------
  
  CT numbers (Mulliken)
    omega =     0.9292
    <Phe> =    -0.0143
  
  Exciton analysis of the transition density matrix
    Trans. dipole moment [D]:             0.055220
      Cartesian components [D]:         [  0.005216,   0.001084,  -0.054963]
    <r_h> [Ang]:                        [ -1.561776,  -0.065433,   0.001525]
    <r_e> [Ang]:                        [ -1.439099,   0.080367,   0.017330]
    |<r_e - r_h>| [Ang]:                  0.191199
    Hole size [Ang]:                      1.229048
      Cartesian components [Ang]:       [  0.654713,   0.657256,   0.806178]
    Electron size [Ang]:                  2.245412
      Cartesian components [Ang]:       [  1.663571,   1.326614,   0.717287]
    RMS electron-hole separation [Ang]:   2.555795
      Cartesian components [Ang]:       [  1.782254,   1.480577,   1.078681]
    Covariance(r_h, r_e) [Ang^2]:         0.028450
    Correlation coefficient:              0.010309
    Center-of-mass size [Ang]:            1.285431
      Cartesian components [Ang]:       [  0.898729,   0.743796,   0.539802]

  Decomposition into state-averaged NTOs
    H- 0 -> L+ 2:  0.6467 ( 83.6%)
    H- 1 -> L+ 0:  0.1516 (  4.6%)
    H- 0 -> L+ 1:  0.1257 (  3.2%)
                   omega =  92.9%
  ----------------------------------------------------------------------------


  Excited state 5 (singlet, A)                                     [converged]
  ----------------------------------------------------------------------------
  Term symbol:  6 (1) A                                     R^2 =  1.99963e-13

  Total energy:                                            -77.9451394766 a.u.
  Excitation energy:                                              10.182199 eV

  Osc. strength:                                                      0.000042
  Trans. dip. moment [a.u.]:           [   0.000846,    0.000918,   -0.012869]
  <i|r^2|0> [a.u.]:                    [  -0.074537,    0.104794,   -0.025658]
  Two-photon absorption cross-section (SoS) [a.u.]:                 195.347731
  Two-photon absorption matrix (SoS) [a.u.]:
[...]
    16   -1.432469650019e-03
    17   -1.625641918474e-03
    18   -1.199627663211e-03
    19   -2.729806211211e-03
    20    1.384115793684e-02
    21    9.340790378240e-01
    22   -3.351979031811e-04
    23    1.379059987161e-02
    24    8.147540045168e-04
    25    7.363507750831e-02
    26   -5.677123961501e-02
    27   -1.409935863599e+00
    28    1.105106979322e-01
    29   -8.716712428601e-02
    30   -5.270058090884e-04
    31    4.150530594158e-01
    32   -3.538411601397e-01
    33   -3.517554676044e-03
    34    1.510887193565e-02
    35   -1.333761584833e-03
    36   -1.803240965763e-03
    37    8.096564262764e-04
    38   -3.318685985522e-03
    39    1.154034146317e-02
    40    9.240674808116e-01
    41    4.797816266577e-04
    42   -1.377335300517e-02
    43   -8.199090776005e-04
    44    1.561146859884e-02
    45    9.830798948382e-01
    46    1.389950470628e-02
    47    3.766122835353e-04
    48    6.403562942038e-04
Sym=X
Ene= 0.230955
Spin=Alpha
Occup=0
     1    3.314861539411e-02
     2    1.453288802508e+00
     3   -1.739847328763e-02
     4   -5.778801567557e-03
     5   -1.168315878807e-03
     6    2.544082726001e-02
     7   -2.506452676218e-02
     8   -4.464537712719e-01
     9   -1.629501979133e-01
    10   -1.357907453593e-01
    11   -1.593020841586e-02
    12   -5.967220670727e-01
    13   -4.593720673737e-01
    14   -5.615409499319e-02
    15    6.069925266803e-03
    16   -6.137483567888e-04
    17   -8.628028596785e-04
    18    1.854345542850e-03
    19   -3.340398176334e-03
    20   -2.363615362969e-02
    21   -8.269674687483e-01
    22   -6.689640871645e-04
    23   -8.353652264002e-03
    24   -5.443884884447e-04
    25   -1.920949100821e-02
    26    2.100536973324e-02
    27    2.686716559255e-01
    28   -1.654464917956e-01
    29   -1.482442648657e-01
    30   -1.622449680184e-02
    31   -5.663017947445e-01
    32   -4.994580989247e-01
    33   -5.502340190499e-02
    34   -2.820084183567e-03
    35    2.709553808336e-04
    36    3.731341873663e-04
    37   -3.177693062260e-04
    38    1.796631652698e-03
    39    1.858841638403e-02
    40    9.257253233435e-01
    41   -1.129370867370e-03
    42   -1.054448250234e-02
    43   -6.671388328691e-04
    44   -3.619629464517e-02
    45   -1.329076151884e+00
    46   -1.451150098256e-02
    47   -5.144694590259e-03
    48   -9.594671234204e-04
Sym=X
Ene= 0.238111
Spin=Alpha
Occup=0
     1    1.229541081450e-02
     2    7.583815751962e-01
     3   -1.279124488048e-02
     4   -8.132924496061e-03
     5   -1.099739507124e-03
     6    8.554256236798e-02
     7   -7.960149854022e-02
     8   -1.566746510577e+00
     9   -1.723550753829e-02
    10    9.719103872209e-02
    11    4.710288816951e-03
    12   -8.448974683742e-02
    13    3.748374164562e-01
    14    1.716214186441e-02
    15    2.206941740251e-02
    16   -2.528631330839e-03
    17   -2.937470762926e-03
    18    1.463244849043e-03
    19   -1.264402676963e-02
    20    2.037039157916e-02
    21    1.387418118857e+00
    22    8.768855116892e-03
    23    2.082484712029e-02
    24    1.634097253711e-03
    25   -8.246538844857e-02
    26    7.646287010667e-02
    27    1.482987767868e+00
    28   -1.993086439636e-02
    29    9.122073009232e-02
    30    4.970294120291e-03
    31   -8.351840519485e-02
    32    3.479861102851e-01
    33    1.859447596011e-02
    34   -2.045557587793e-02
    35    2.296022534724e-03
    36    2.812516712283e-03
    37   -1.457085538594e-03
    38    1.215184616280e-02
    39   -2.358676635656e-02
    40   -1.329863451892e+00
    41    8.624510055766e-03
    42    1.984067909755e-02
    43    1.615369771162e-03
    44   -1.339120717814e-02
    45   -7.089850654371e-01
    46   -1.117319006526e-02
    47   -8.163033187561e-03
    48   -9.746437664988e-04
Sym=X
Ene= 0.302917
Spin=Alpha
Occup=0
     1   -2.328619198172e-02
     2    1.710523947159e+00
     3   -2.371534849153e-02
     4    1.762908241666e-04
     5   -1.127879735927e-03
     6    2.830951644169e-04
     7    1.485109254089e-03
     8   -2.793325226423e-02
     9   -1.370378928774e-01
    10   -1.407654846890e-01
    11   -1.482764916529e-02
    12   -1.141145101070e+00
    13   -1.203744486587e+00
    14   -1.250190535927e-01
    15    1.008630227503e-04
    16   -1.763262016882e-03
    17    1.886622962880e-03
    18   -3.419129282927e-02
    19   -1.798083713523e-03
    20    2.281586565764e-02
    21   -1.688488847176e+00
    22    1.646442377517e-03
    23   -2.300679819373e-02
    24   -1.268532661096e-03
    25   -1.156797948187e-03
    26    2.920699355254e-04
    27    8.522475553528e-02
    28    1.360828779274e-01
    29    1.396283483291e-01
    30    1.455496454201e-02
    31    1.123121324641e+00
    32    1.172579259530e+00
    33    1.218433104891e-01
    34   -2.100139709743e-03
    35   -1.246193896746e-03
    36    2.194877668842e-03
    37   -3.202153571619e-02
    38   -1.106873742928e-04
    39    2.120800143555e-02
    40   -1.679425974557e+00
    41   -9.735727405424e-04
    42    2.335104802858e-02
    43    1.347655315456e-03
    44   -1.523487475834e-02
    45    1.598906410365e+00
    46    2.242485124750e-02
    47   -5.678509428597e-04
    48    9.934521027858e-04
Sym=X
Ene= 0.461843
Spin=Alpha
Occup=0
     1   -1.171240022277e-01
     2   -7.196318160928e-01
     3   -1.538290186424e-02
     4   -1.058352889606e-02
     5   -1.350702309540e-03
     6    6.093106116520e-02
     7    1.899127775402e-02
     8   -3.596598181547e+00
     9    1.002260887452e-01
    10   -9.675073595768e-02
    11   -1.054046307962e-03
    12    2.441640079391e+00
    13   -2.299116801887e+00
    14   -1.966196462575e-02
    15    5.387525583859e-02
    16   -3.339463203732e-03
    17   -4.759843375327e-03
    18   -1.824487574009e-04
    19    1.782712098965e-02
    20   -1.225462211065e-01
    21   -6.881004955234e-01
    22    8.977721647633e-03
    23    1.658976164022e-02
    24    1.416449096125e-03
    25   -6.210626860178e-02
    26   -1.586009096602e-02
    27    3.638811951051e+00
    28    1.062867828177e-01
    29   -1.033056420352e-01
    30   -1.631332077393e-03
    31    2.386860541950e+00
    32   -2.315775390455e+00
    33   -2.528686652022e-02
    34   -5.295274278544e-02
    35    3.167286246959e-03
    36    4.316344736876e-03
    37    2.086171127201e-03
    38   -2.091386185055e-02
    39    1.132597103189e-01
    40    7.297000597455e-01
    41    8.525681735994e-03
    42    1.561962231541e-02
    43    1.301842623636e-03
    44    1.136526321414e-01
    45    6.528294237953e-01
    46   -1.487204726657e-02
    47   -1.052628347257e-02
    48   -1.325576140635e-03
Sym=X
Ene= 0.578200
Spin=Alpha
Occup=0
     1   -2.614485860828e-01
     2   -2.264699789892e-02
     3    1.690323960483e-02
     4   -2.368539335344e-02
     5   -6.021184548184e-04
     6    3.859694303926e-03
     7    1.604828631829e-01
     8    5.053245891646e-01
     9   -3.031296920661e-01
    10    2.904552538718e-01
    11    2.916418919695e-03
    12    6.935691212581e-01
    13   -6.707236847480e-01
    14   -7.308737323780e-03
    15    4.208455623414e-03
    16   -3.958312340016e-03
    17   -3.250409176051e-03
    18   -3.881564641364e-04
    19   -6.019603623981e-02
    20   -2.340020211622e-01
    21   -3.361795376598e-02
    22    2.765981661167e-02
    23   -1.923984800989e-02
    24    1.710313662740e-04
    25    7.357972067629e-03
    26    1.638104742254e-01
    27    3.404213324368e-01
    28    2.939009161860e-01
    29   -2.898279273555e-01
    30   -3.203697266705e-03
    31   -7.505890684705e-01
    32    7.914780344760e-01
    33    1.217784115390e-02
    34    5.068596373530e-03
    35   -3.633588172843e-03
    36   -3.808674560715e-03
    37    7.556807717999e-03
    38   -5.997685518854e-02
    39   -2.664467856524e-01
    40   -6.249618616861e-02
    41   -2.602021601077e-02
    42    1.622051314216e-02
    43   -2.273043341920e-04
    44   -2.191505413299e-01
    45   -5.001682194156e-02
    46   -2.492926051960e-02
    47    3.077504776210e-02
    48    6.916590828994e-04
Sym=X
Ene= 0.612386
Spin=Alpha
Occup=0
     1   -5.018938807011e-01
     2    2.012450360157e-01
     3   -6.036103577210e-02
     4    3.869252175599e-02
     5   -5.612036545464e-04
     6   -7.407480453158e-04
     7    2.366354813873e-03
     8   -4.302244758469e-02
     9   -3.615827737689e-02
    10   -4.574277089904e-02
    11   -4.361697587092e-03
    12    2.806438391531e-01
    13    3.227426536330e-01
    14    3.264335779610e-02
    15    4.134686392008e-04
    16   -7.073764218746e-03
    17    8.410019298235e-03
    18   -1.458236471057e-01
    19   -1.897200036441e-03
    20    5.180705048787e-01
    21   -1.840718077595e-01
    22    3.923519817522e-02
    23   -5.690816917734e-02
    24   -1.483931669774e-03
    25    1.704326247005e-03
    26   -1.513817532636e-02
    27    4.660749353951e-02
    28   -3.674941932744e-02
    29   -2.584503899019e-02
    30   -3.361225428253e-03
    31    2.642842106001e-01
    32    2.296419659646e-01
    33    2.570107817562e-02
    34   -1.023786427992e-02
    35    8.347293010499e-03
    36   -7.742522682586e-03
    37    1.526839560375e-01
    38    1.070287759125e-02
    39   -4.806096357567e-01
    40    2.240784223734e-01
    41    4.336822502421e-02
    42   -5.718830724694e-02
    43   -1.450480977065e-03
    44    5.721902400387e-01
    45   -3.189595771911e-01
    46   -6.285045344300e-02
    47    3.508328879666e-02
    48   -7.978258561491e-04
Sym=X
Ene= 0.688690
Spin=Alpha
Occup=0
     1    1.058914624590e-03
     2   -3.803131084144e-05
     3    1.168824291867e-03
     4    1.362500962712e-03
     5   -2.084367549531e-02
     6    6.460425911073e-05
     7    6.807994972851e-04
     8    6.233028181775e-05
     9    3.125346757970e-02
    10    4.006242467236e-02
    11   -6.694478768485e-01
    12   -2.992575028163e-02
    13   -3.569538029889e-02
    14    6.135265350365e-01
    15   -1.601639933871e-03
    16    8.278507793172e-02
    17   -7.879854225473e-02
    18   -8.489574335176e-03
    19   -9.665942065527e-04
    20    8.729526587889e-04
    21    2.748150539747e-04
    22    8.970761988606e-04
    23    1.086958833352e-03
    24   -2.088610800162e-02
    25    3.559044296791e-05
    26    1.018805246490e-03
    27   -1.239911684804e-03
    28    3.152110093079e-02
    29    3.948814415415e-02
    30   -6.713894292886e-01
    31   -2.984010190613e-02
    32   -3.487900464670e-02
    33    6.122824664785e-01
    34    1.025305622818e-03
    35   -8.191271533998e-02
    36    7.853834985707e-02
    37    8.529929205847e-03
    38    1.162733627630e-03
    39    3.830260623941e-04
    40   -9.724347379070e-04
    41    9.854893048199e-04
    42    1.527699004259e-03
    43   -2.141886714131e-02
    44    4.218257455519e-04
    45   -1.298181989098e-03
    46    4.121997899111e-04
    47    8.173344629288e-04
    48   -1.449815671572e-02
Sym=X
Ene= 0.705004
Spin=Alpha
Occup=0
     1   -4.749770485588e-01
     2    1.435614089681e-01
     3   -7.844439649408e-02
     4   -4.040678863954e-02
     5   -6.184220244411e-03
     6   -4.310663034343e-02
     7   -3.223981326945e-01
     8    4.752696640537e-01
     9    2.054784207620e-01
    10   -1.922691382619e-01
    11   -2.856800130402e-03
    12   -6.706637682594e-02
    13    5.622109871011e-02
    14    6.335635570496e-04
    15    1.819512425814e-01
    16   -1.965299990582e-02
    17   -2.224233696464e-02
    18   -3.454471006317e-03
    19   -7.665573007233e-02
    20   -4.279633452997e-01
    21    1.049433653521e-01
    22    4.267370289169e-02
    23    7.223419063452e-02
    24    6.215251167984e-03
    25   -4.946039778621e-02
    26   -2.903888535249e-01
    27    4.443484167794e-01
    28   -2.152960577011e-01
    29    1.702848334769e-01
    30   -1.077321928335e-03
    31    1.515169893979e-01
    32   -9.041958048233e-03
    33    8.580565436960e-03
    34    2.002522605860e-01
    35   -2.064680161800e-02
    36   -2.441557103380e-02
    37    4.022325102333e-03
    38   -7.594528795847e-02
    39   -5.138862972804e-01
    40    1.283812393671e-01
    41   -3.953871284295e-02
    42   -8.419286665373e-02
    43   -6.823255438622e-03
    44   -5.055273823270e-01
    45    2.691314315249e-01
    46    8.366025464599e-02
    47    4.526379539221e-02
    48    6.600964670316e-03
Sym=X
Ene= 0.778811
Spin=Alpha
Occup=0
     1   -5.294091582120e-01
     2    4.777155320474e-01
     3   -1.115208459444e-01
     4   -3.244248111227e-02
     5   -7.205951217446e-03
     6   -9.281790983945e-02
     7    1.829296530018e-01
     8    6.869652448709e-01
     9   -9.212977631931e-02
    10    9.228659426413e-02
    11   -2.104583003365e-04
    12   -3.357300755596e-01
    13    2.990837839203e-01
    14    4.318969851527e-03
    15    2.163273625453e-01
    16   -1.868266745564e-02
    17   -2.316069530226e-02
    18    2.181487183307e-03
    19   -1.547018293249e-02
    20   -5.785645981652e-01
    21    4.746970854535e-01
    22    1.898246300899e-02
    23    1.172115479939e-01
    24    7.823489196746e-03
    25    8.632615695130e-02
    26   -2.611253884602e-01
    27   -5.697943081002e-01
    28   -7.670677196504e-02
    29    1.451680569299e-01
    30    5.908108355037e-03
    31   -4.194589519162e-01
    32    2.065575352792e-01
    33   -9.788147005166e-03
    34   -1.895097192375e-01
    35    1.572971652963e-02
    36    1.966332325893e-02
    37    5.715582346533e-03
    38    5.973810431371e-03
    39    5.161373552898e-01
    40   -3.968257471876e-01
    41    1.663120072682e-02
    42    9.883027882075e-02
    43    6.629260504270e-03
    44    5.174018108183e-01
    45   -5.852990957209e-01
    46   -1.087700549201e-01
    47   -2.750877874287e-02
    48   -6.683037214778e-03
Sym=X
Ene= 0.807626
Spin=Alpha
Occup=0
     1   -6.746465519756e-04
     2    5.312526476444e-04
     3   -1.766688015544e-03
     4   -1.954963405066e-03
     5    3.388220132343e-02
     6   -1.593784444101e-04
     7    5.322693059664e-04
     8   -4.577506186170e-06
     9   -3.662097530826e-02
    10   -4.493246753992e-02
    11    7.637853954922e-01
    12    5.311157515317e-02
    13    6.707670213354e-02
    14   -1.126749217088e+00
    15   -6.137847494147e-04
    16    6.511158292605e-02
    17   -6.249435402592e-02
    18   -6.640849771502e-03
    19   -7.506707753599e-04
    20   -8.447688045659e-04
    21    1.233433945942e-03
    22   -1.648179455140e-03
    23   -1.783966779070e-03
    24    3.462677156426e-02
    25    1.173333524623e-04
    26   -3.783858861118e-05
    27   -1.050844299788e-04
    28    3.511895565523e-02
    29    4.551845885281e-02
    30   -7.638982679117e-01
    31   -5.270469050075e-02
    32   -6.593331888989e-02
    33    1.124485364902e+00
    34   -1.486397797572e-03
    35    6.529428752507e-02
    36   -6.224966674947e-02
    37   -6.834984084870e-03
    38   -1.030787699746e-03
    39    6.648899111083e-04
    40   -1.347831786962e-03
    41    1.546980994133e-03
    42    2.455879063934e-03
    43   -3.490826231995e-02
    44    6.834297353395e-04
    45   -8.304153571211e-04
    46    9.041333238515e-04
    47    1.653345050396e-03
    48   -2.613393916814e-02
Sym=X
Ene= 0.859702
Spin=Alpha
Occup=0
     1   -1.535655267250e-02
     2   -1.030595905043e+00
     3    1.348101622210e-01
     4    5.788187608085e-02
     5    9.756194574855e-03
     6   -3.499305068496e-03
     7    2.686702029628e-02
     8   -3.547324308878e-02
     9   -3.986416404173e-01
    10   -3.980863465831e-01
    11   -4.268576192229e-02
    12    9.085266157742e-01
    13    9.517876748357e-01
    14    9.994261057917e-02
    15    7.724599876565e-03
    16    1.080978283432e-02
    17   -1.363672075598e-02
    18    2.271039835106e-01
    19    1.461402571187e-02
    20   -1.555736767245e-02
    21    1.077902010656e+00
    22    5.080224769038e-02
    23    1.479404531553e-01
    24    1.119793120352e-02
    25    5.670163759017e-03
    26    2.353539308441e-02
    27   -5.542277299568e-03
    28   -4.501067025439e-01
    29   -4.366352412863e-01
    30   -4.650300092653e-02
    31    9.940825149416e-01
    32    1.007142283329e+00
    33    1.052364282251e-01
    34   -1.957276268729e-02
    35   -9.834341938163e-03
    36    1.549514570179e-02
    37   -2.333199388864e-01
    38   -1.045816071940e-02
    39    4.670706551928e-02
    40   -1.124401387758e+00
    41    4.835424969047e-02
    42    1.617254727776e-01
    43    1.196527801202e-02
    44   -3.189560842435e-03
    45    1.085276500659e+00
    46    1.466137798186e-01
    47    5.579239797010e-02
    48    9.983259884517e-03
Sym=X
Ene= 0.930857
Spin=Alpha
Occup=0
     1   -1.391462765306e-01
     2    1.296942127702e+00
     3   -1.925713297984e-01
     4    7.932771703431e-03
     5   -8.748723015764e-03
     6   -3.878978636298e-03
     7    4.979624048101e-02
     8   -1.472305845707e-01
     9    4.536531789033e-01
    10    5.433000209682e-01
    11    5.355815481327e-02
    12   -1.384796661633e+00
    13   -1.598673014575e+00
    14   -1.598661700966e-01
    15    7.504548387313e-03
    16   -6.578649455706e-03
    17    7.913862331257e-03
    18   -1.385602459927e-01
    19    1.397894169193e-02
    20    1.260716628384e-01
    21   -1.316393733867e+00
    22    6.513978966220e-03
    23   -1.863571275151e-01
    24   -1.062154238418e-02
    25    7.036719090651e-03
    26    7.080715679685e-02
    27   -4.192739715933e-02
    28   -5.046027612359e-01
    29   -4.344906033415e-01
    30   -4.918057905369e-02
    31    1.483934346273e+00
    32    1.309846208550e+00
    33    1.465826798461e-01
    34   -2.503897620728e-02
    35   -3.847568992440e-03
    36    7.799883545191e-03
    37   -1.034135207402e-01
    38   -2.186624977637e-02
    39    1.439031077074e-01
    40   -1.110294639702e+00
    41   -2.119667763585e-02
    42    1.684682109884e-01
    43    8.988662081277e-03
    44   -1.135967788060e-01
    45    1.243720939778e+00
    46    1.762643280363e-01
    47   -5.308431302992e-04
    48    8.090231399656e-03
Sym=X
Ene= 0.971168
Spin=Alpha
Occup=0
     1    5.979237015460e-02
     2   -9.632845346529e-01
     3    9.432941478257e-02
     4    9.463122805305e-02
     5    1.007051667406e-02
     6   -2.595864718997e-02
     7   -2.017530324600e-01
     8   -5.945742340877e-01
     9   -5.028876327577e-01
    10    4.157638032611e-01
    11    5.352340102688e-04
    12    1.565376738937e+00
    13   -1.258755018863e+00
    14    4.088854169339e-04
    15    5.538076909525e-02
    16    1.248420837258e-02
    17    8.909044178157e-03
    18   -9.042281080533e-03
    19    2.949561124199e-01
    20    5.286159119322e-02
    21   -7.769004487575e-01
    22   -9.292593761328e-02
    23   -7.437387092387e-02
    24   -8.772832809130e-03
    25    2.713440009102e-02
    26    2.922125667595e-01
    27    4.479508924525e-01
    28   -4.479487035091e-01
    29    5.060839494080e-01
    30    9.626318986156e-03
    31    1.340244758800e+00
    32   -1.570850085793e+00
    33   -3.185723665479e-02
    34   -5.947947166840e-02
    35   -1.130092121707e-02
    36   -1.015765111292e-02
    37    3.199726997809e-02
    38   -3.003872930687e-01
    39   -6.439813205256e-02
    40    1.063183820053e+00
    41   -9.579670092424e-02
    42   -1.140333679086e-01
    43   -1.145689755878e-02
    44   -6.201088210894e-02
    45    7.830056902338e-01
    46    7.396822903960e-02
    47    9.520547691836e-02
    48    8.857262909271e-03
[5D]

======= END OF MOLDEN-FORMATTED INPUT FILE =======


        *************************************************************
        *                                                           *
        *  Thank you very much for using Q-Chem.  Have a nice day.  *
        *                                                           *
        *************************************************************


