                  Welcome to Q-Chem
     A Quantum Leap Into The Future Of Chemistry


 Q-Chem 5.4 (devel), Q-Chem, Inc., Pleasanton, CA (2021)

 E. Epifanovsky,  A. T. B. Gilbert,  Xintian Feng,  Joonho Lee,  Yuezhi Mao,  
 N. Mardirossian,  P. Pokhilko,  A. White,  M. Wormit,  M. P. Coons,  
 A. L. Dempwolff,  Zhengting Gan,  D. Hait,  P. R. Horn,  L. D. Jacobson,  
 I. Kaliman,  J. Kussmann,  A. W. Lange,  Ka Un Lao,  D. S. Levine,  Jie Liu,  
 S. C. McKenzie,  A. F. Morrison,  K. Nanda,  F. Plasser,  D. R. Rehn,  
 M. L. Vidal,  Zhi-Qiang You,  Ying Zhu,  B. Alam,  B. Albrecht,  
 A. Aldossary,  E. Alguire,  J. H. Andersen,  D. Barton,  K. Begam,  A. Behn,  
 Y. A. Bernard,  E. J. Berquist,  H. Burton,  A. Carreras,  K. Carter-Fenk,  
 R. Chakraborty,  A. D. Chien,  K. D. Closser,  V. Cofer-Shabica,  
 S. Dasgupta,  Jia Deng,  M. de Wergifosse,  M. Diedenhofen,  Hainam Do,  
 S. Ehlert,  Po-Tung Fang,  S. Fatehi,  Qingguo Feng,  T. Friedhoff,  
 J. Gayvert,  Qinghui Ge,  G. Gidofalvi,  M. Goldey,  J. Gomes,  
 C. Gonzalez-Espinoza,  S. Gulania,  A. Gunina,  M. W. D. Hanson-Heine,  
 P. H. P. Harbach,  A. W. Hauser,  M. F. Herbst,  M. Hernandez Vera,  
 M. Hodecker,  Z. C. Holden,  S. Houck,  Xunkun Huang,  Kerwin Hui,  
 B. C. Huynh,  M. Ivanov,  Hyunjun Ji,  Hanjie Jiang,  B. Kaduk,  S. Kaehler,  
 K. Khistyaev,  Jaehoon Kim,  P. Klunzinger,  Z. Koczor-Benda,  
 Joong Hoon Koh,  D. Kosenkov,  L. Koulias,  T. Kowalczyk,  C. M. Krauter,  
 K. Kue,  A. Kunitsa,  T. Kus,  A. Landau,  K. V. Lawler,  D. Lefrancois,  
 S. Lehtola,  Rain Li,  Yi-Pei Li,  Jiashu Liang,  M. Liebenthal,  
 Hung-Hsuan Lin,  You-Sheng Lin,  Fenglai Liu,  Kuan-Yu Liu,  
 M. Loipersberger,  A. Luenser,  A. Manjanath,  P. Manohar,  E. Mansoor,  
 S. F. Manzer,  Shan-Ping Mao,  A. V. Marenich,  T. Markovich,  S. Mason,  
 S. A. Maurer,  P. F. McLaughlin,  M. F. S. J. Menger,  J.-M. Mewes,  
 S. A. Mewes,  P. Morgante,  J. W. Mullinax,  K. J. Oosterbaan,  G. Paran,  
 Alexander C. Paul,  Suranjan K. Paul,  F. Pavosevic,  Zheng Pei,  S. Prager,  
 E. I. Proynov,  E. Ramos,  B. Rana,  A. E. Rask,  A. Rettig,  R. M. Richard,  
 F. Rob,  E. Rossomme,  T. Scheele,  M. Scheurer,  M. Schneider,  
 N. Sergueev,  S. M. Sharada,  W. Skomorowski,  D. W. Small,  C. J. Stein,  
 Yu-Chuan Su,  E. J. Sundstrom,  Zhen Tao,  J. Thirman,  T. Tsuchimochi,  
 N. M. Tubman,  S. P. Veccham,  O. Vydrov,  J. Wenzel,  J. Witte,  A. Yamada,  
 Kun Yao,  S. Yeganeh,  S. R. Yost,  A. Zech,  Igor Ying Zhang,  Xing Zhang,  
 Yu Zhang,  D. Zuev,  A. Aspuru-Guzik,  A. T. Bell,  N. A. Besley,  
 K. B. Bravaya,  B. R. Brooks,  D. Casanova,  Jeng-Da Chai,  S. Coriani,  
 C. J. Cramer,  A. E. DePrince, III,  R. A. DiStasio Jr.,  A. Dreuw,  
 B. D. Dunietz,  T. R. Furlani,  W. A. Goddard III,  S. Grimme,  
 S. Hammes-Schiffer,  T. Head-Gordon,  W. J. Hehre,  Chao-Ping Hsu,  
 T.-C. Jagau,  Yousung Jung,  A. Klamt,  Jing Kong,  D. S. Lambrecht,  
 WanZhen Liang,  N. J. Mayhall,  C. W. McCurdy,  J. B. Neaton,  
 C. Ochsenfeld,  J. A. Parkhill,  R. Peverati,  V. A. Rassolov,  Yihan Shao,  
 L. V. Slipchenko,  T. Stauch,  R. P. Steele,  J. E. Subotnik,  
 A. J. W. Thom,  A. Tkatchenko,  D. G. Truhlar,  T. Van Voorhis,  
 T. A. Wesolowski,  K. B. Whaley,  H. L. Woodcock III,  P. M. Zimmerman,  
 S. Faraji,  P. M. W. Gill,  M. Head-Gordon,  J. M. Herbert,  A. I. Krylov

 Additional authors for Version 5.4.1: 
 S. Kotaru,  Shaozhi Li,  Xiangyuan Li,  F. Matz,  A. Molle,  Haisheng Ren,  
 Yingli Su,  Hung-Yi Tsai,  C. Utku,  Fang Wang

 Contributors to earlier versions of Q-Chem not listed above: 
 R. D. Adamson,  B. Austin,  R. Baer,  J. Baker,  G. J. O. Beran,  
 K. Brandhorst,  S. T. Brown,  E. F. C. Byrd,  A. K. Chakraborty,  
 G. K. L. Chan,  Chun-Min Chang,  Yunqing Chen,  C.-L. Cheng,  
 Siu Hung Chien,  D. M. Chipman,  D. L. Crittenden,  H. Dachsel,  
 R. J. Doerksen,  A. D. Dutoi,  R. G. Edgar,  J. Fosso-Tande,  
 L. Fusti-Molnar,  D. Ghosh,  A. Ghysels,  A. Golubeva-Zadorozhnaya,  
 J. Gonthier,  M. S. Gordon,  S. R. Gwaltney,  G. Hawkins,  J. E. Herr,  
 A. Heyden,  S. Hirata,  E. G. Hohenstein,  G. Kedziora,  F. J. Keil,  
 C. Kelley,  Jihan Kim,  R. A. King,  R. Z. Khaliullin,  P. P. Korambath,  
 W. Kurlancheek,  A. Laurent,  A. M. Lee,  M. S. Lee,  S. V. Levchenko,  
 Ching Yeh Lin,  D. Liotard,  E. Livshits,  R. C. Lochan,  I. Lotan,  
 L. A. Martinez-Martinez,  P. E. Maslen,  N. Nair,  D. P. O'Neill,  
 D. Neuhauser,  E. Neuscamman,  C. M. Oana,  R. Olivares-Amaya,  R. Olson,  
 T. M. Perrine,  B. Peters,  P. A. Pieniazek,  A. Prociuk,  Y. M. Rhee,  
 J. Ritchie,  M. A. Rohrdanz,  E. Rosta,  N. J. Russ,  H. F. Schaefer III,  
 M. W. Schmidt,  N. E. Schultz,  S. Sharma,  N. Shenvi,  C. D. Sherrill,  
 A. C. Simmonett,  A. Sodt,  T. Stein,  D. Stuck,  K. S. Thanthiriwatte,  
 V. Vanovschi,  L. Vogt,  Tao Wang,  A. Warshel,  M. A. Watson,  
 C. F. Williams,  Q. Wu,  X. Xu,  Jun Yang,  W. Zhang,  Yan Zhao

 Please cite Q-Chem as follows:
 Y. Shao et al., Mol. Phys. 113, 184-215 (2015)
 DOI: 10.1080/00268976.2014.952696

 Q-Chem 5.4.1 for Intel X86 EM64T Linux

 Parts of Q-Chem use Armadillo 9.800.1 (Horizon Scraper).
 http://arma.sourceforge.net/

 Q-Chem begins on Tue Mar 21 11:43:01 2023  

 Host: cpu186.baobab
0

     Scratch files written to /scratch/fum/qchem62884//
 Processing $rem in /home/share/wesolowski/qc5.aug2021.FDE/config/preferences:
 Processing $rem in /home/fum/.qchemrc:

 Checking the input file for inconsistencies... 	...done.

--------------------------------------------------------------
User input:
--------------------------------------------------------------
$comment
generated from CCJob.Templates
$end

$rem
sym_ignore = true
method = adc(2)
ee_states = 10
basis = cc-pVDZ
mem_static = 1024
mem_total = 40000
adc_davidson_maxiter = 900
adc_davidson_conv = 6
adc_print = 3
adc_prop_es = true
adc_prop_es2es = true
adc_prop_tpa = true
molden_format = True
state_analysis = true
print_orbitals = 15
gen_scfman = false
fde_export_density = true
fde_details = 3
$end

$molecule
0 1
H -0.0207678193554381 -0.24835677833321254 0.06507576528394732
C -1.0767252664277058 -0.5231707829082469 -0.0022249843566709625
H -1.3026170211440757 -1.5923347239780286 -0.07772652650960148
C -2.045945777172299 0.3925948460082469 0.0064719518566797515
H -1.820093191455919 1.461770749078046 0.0819532680096002
H -3.1019135953445507 0.1177919758331962 -0.0607503799839762                     
$end
--------------------------------------------------------------
 ----------------------------------------------------------------
             Standard Nuclear Orientation (Angstroms)
    I     Atom           X                Y                Z
 ----------------------------------------------------------------
    1      H      -0.0207678194    -0.2483567783     0.0650757653
    2      C      -1.0767252664    -0.5231707829    -0.0022249844
    3      H      -1.3026170211    -1.5923347240    -0.0777265265
    4      C      -2.0459457772     0.3925948460     0.0064719519
    5      H      -1.8200931915     1.4617707491     0.0819532680
    6      H      -3.1019135953     0.1177919758    -0.0607503800
 ----------------------------------------------------------------
 Nuclear Repulsion Energy =          33.20990004 hartrees
 There are        8 alpha and        8 beta electrons
 Requested basis set is cc-pVDZ
 There are 24 shells and 48 basis functions
 Total memory of 40000 MB is distributed as follows: 
   MEM_STATIC is set to 1024 MB
   QALLOC/CCMAN JOB total memory use is  38976 MB
 Warning: actual memory use might exceed 40000 MB

 Total QAlloc Memory Limit  40000 MB
 Mega-Array Size      1001 MB
 MEM_STATIC part      1024 MB

                       Distance Matrix (Angstroms)
             H (  1)   C (  2)   H (  3)   C (  4)   H (  5)
   C (  2)  1.093205
   H (  3)  1.862742  1.095372
   C (  4)  2.124994  1.333451  2.121220
   H (  5)  2.482417  2.121244  3.101748  1.095374
   H (  6)  3.105375  2.125005  2.482396  1.093208  1.862715

 A cutoff of  1.0D-11 yielded    300 shell pairs
 There are      1220 function pairs (      1329 Cartesian)
 Smallest overlap matrix eigenvalue = 4.81E-03

 Scale SEOQF with 1.000000e-01/1.000000e-01/1.000000e+00

 Standard Electronic Orientation quadrupole field applied
 Nucleus-field energy     =     0.0000000022 hartrees
 Guess from superposition of atomic densities
 Warning:  Energy on first SCF cycle will be non-variational
 SAD guess density has 16.000000 electrons
 A restricted Hartree-Fock SCF calculation will be
 performed using Pulay DIIS extrapolation
 SCF converges when DIIS error is below 1.0E-08
 using 10 threads for integral computing
 -------------------------------------------------------
 OpenMP Integral computing Module                
 Release: version 1.0, May 2013, Q-Chem Inc. Pittsburgh 
 -------------------------------------------------------
 ---------------------------------------
  Cycle       Energy         DIIS Error
 ---------------------------------------
    1     -78.3977712636      9.93E-02
    2     -78.0175805017      7.13E-03
    3     -78.0380465783      1.83E-03
    4     -78.0395226986      5.64E-04
    5     -78.0396403070      5.81E-05
    6     -78.0396421705      9.29E-06
    7     -78.0396422319      1.95E-06
    8     -78.0396422346      1.67E-07
    9     -78.0396422346      1.73E-08
   10     -78.0396422346      3.80E-09 Convergence criterion met
 ---------------------------------------
 SCF time:  CPU 1.94 s  wall 2.32 s
 SCF   energy in the final basis set = -78.03964223
 Total energy in the final basis set = -78.03964223
Exporting Density Matrix to file 'Densmat_SCF.txt'.
Export successful
================================================================================
|                                                                              |
|                                 A D C  M A N                                 |
|                                                                              |
 ------------------------------------------------------------------------------ 
|                                                                              |
| Components:                                                                  |
|                                                                              |
| - libvmm - 1.3-trunk                                                         |
|   Authors:                                                                   |
|   Evgeny Epifanovsky, Ilya Kaliman                                           |
|                                                                              |
| - libtensor - 2.5-trunk                                                      |
|   Authors:                                                                   |
|   Evgeny Epifanovsky, Michael Wormit, Dmitry Zuev, Sam Manzer,               |
|   Ilya Kaliman                                                               |
|                                                                              |
| - libwfa - 1.1-trunk                                                         |
|   Authors:                                                                   |
|   Felix Plasser, Stefanie Mewes (Baeppler), Benjamin Thomitzni,              |
|   Michael Wormit, Feng Chen, Anna I. Krylov, Pavel Pokhilko                  |
|                                                                              |
| - libadc - 1.1-trunk                                                         |
|   Authors:                                                                   |
|   Michael Wormit, Adrian L. Dempwolff, Philipp H. P. Harbach,                |
|   Caroline Krauter, Dirk Rehn, Matthias Schneider, Jan Wenzel                |
|                                                                              |
| - adcman - 2.6-trunk                                                         |
|   Authors:                                                                   |
|   Michael Wormit, Adrian L. Dempwolff, Philipp H. P. Harbach,                |
|   Caroline Krauter, Daniel Lefrancois, Jan-Michael Mewes, Dirk Rehn,         |
|   Matthias Schneider, Jan Wenzel, Andreas Dreuw                              |
|                                                                              |
| Authors of earlier versions of ADCMAN:                                       |
| Andreas Dreuw, Jan Hendrik Starcke, Dirk Rehn, Michael Wormit                |
|                                                                              |
================================================================================

 Created directory /scratch/fum/qchem62884/plots
  Import QC data ...  CPU 0.00 s  wall 0.00 s

 Alpha MOs, Restricted
 -- Occupied --                  
-11.239 -11.237  -1.030  -0.786  -0.635  -0.582  -0.500  -0.374
  1 A     2 A     3 A     4 A     5 A     6 A     7 A     8 A                  
 -- Virtual --                   
  0.168   0.203   0.231   0.236   0.303   0.463   0.580   0.609
  9 A    10 A    11 A    12 A    13 A    14 A    15 A    16 A                  
  0.689   0.705   0.776   0.807   0.858   0.928   0.971   1.006
 17 A    18 A    19 A    20 A    21 A    22 A    23 A    24 A                  
  1.130   1.237   1.241   1.263   1.291   1.593   1.728   1.744
 25 A    26 A    27 A    28 A    29 A    30 A    31 A    32 A                  
  1.811   1.852   1.854   1.901   1.963   1.972   2.224   2.248
 33 A    34 A    35 A    36 A    37 A    38 A    39 A    40 A                  
  2.355   2.423   2.493   2.623   2.679   2.795   3.099   3.369
 41 A    42 A    43 A    44 A    45 A    46 A    47 A    48 A                  

 Beta MOs, Restricted
 -- Occupied --                  
-11.239 -11.237  -1.030  -0.786  -0.635  -0.582  -0.500  -0.374
  1 A     2 A     3 A     4 A     5 A     6 A     7 A     8 A                  
 -- Virtual --                   
  0.168   0.203   0.231   0.236   0.303   0.463   0.580   0.609
  9 A    10 A    11 A    12 A    13 A    14 A    15 A    16 A                  
  0.689   0.705   0.776   0.807   0.858   0.928   0.971   1.006
 17 A    18 A    19 A    20 A    21 A    22 A    23 A    24 A                  
  1.130   1.237   1.241   1.263   1.291   1.593   1.728   1.744
 25 A    26 A    27 A    28 A    29 A    30 A    31 A    32 A                  
  1.811   1.852   1.854   1.901   1.963   1.972   2.224   2.248
 33 A    34 A    35 A    36 A    37 A    38 A    39 A    40 A                  
  2.355   2.423   2.493   2.623   2.679   2.795   3.099   3.369
 41 A    42 A    43 A    44 A    45 A    46 A    47 A    48 A                  
  Import AO data ...  CPU 0.00 s  wall 0.00 s
  Using point group: C1
  Irreducible representations in point group: A
  Molecular orbitals: 
  Occupied MOs:
  Block   0:   1 (  A) A   2 (  A) A   3 (  A) A   4 (  A) A   5 (  A) A
                  -11.24      -11.24       -1.03     -0.7859      -0.635
               6 (  A) A   7 (  A) A   8 (  A) A
                 -0.5824     -0.4995     -0.3744
  Block   1:   1 (  A) B   2 (  A) B   3 (  A) B   4 (  A) B   5 (  A) B
                  -11.24      -11.24       -1.03     -0.7859      -0.635
               6 (  A) B   7 (  A) B   8 (  A) B
                 -0.5824     -0.4995     -0.3744
  Virtual MOs:
  Block   0:   9 (  A) A  10 (  A) A  11 (  A) A  12 (  A) A  13 (  A) A
                  0.1679      0.2026       0.231      0.2364       0.303
              14 (  A) A  15 (  A) A  16 (  A) A  17 (  A) A  18 (  A) A
                  0.4628      0.5798      0.6089      0.6887      0.7048
              19 (  A) A  20 (  A) A  21 (  A) A  22 (  A) A
                  0.7757      0.8074      0.8584       0.928
  Block   1:  23 (  A) A  24 (  A) A  25 (  A) A  26 (  A) A  27 (  A) A
                  0.9706       1.006        1.13       1.237       1.241
              28 (  A) A  29 (  A) A  30 (  A) A  31 (  A) A  32 (  A) A
                   1.263       1.291       1.593       1.728       1.744
              33 (  A) A  34 (  A) A  35 (  A) A  36 (  A) A
                   1.811       1.852       1.854       1.901
  Block   2:  37 (  A) A  38 (  A) A  39 (  A) A  40 (  A) A  41 (  A) A
                   1.963       1.972       2.224       2.248       2.355
              42 (  A) A  43 (  A) A  44 (  A) A  45 (  A) A  46 (  A) A
                   2.423       2.493       2.623       2.679       2.795
              47 (  A) A  48 (  A) A
                   3.099       3.369
  Block   3:   9 (  A) B  10 (  A) B  11 (  A) B  12 (  A) B  13 (  A) B
                  0.1679      0.2026       0.231      0.2364       0.303
              14 (  A) B  15 (  A) B  16 (  A) B  17 (  A) B  18 (  A) B
                  0.4628      0.5798      0.6089      0.6887      0.7048
              19 (  A) B  20 (  A) B  21 (  A) B  22 (  A) B
                  0.7757      0.8074      0.8584       0.928
  Block   4:  23 (  A) B  24 (  A) B  25 (  A) B  26 (  A) B  27 (  A) B
                  0.9706       1.006        1.13       1.237       1.241
              28 (  A) B  29 (  A) B  30 (  A) B  31 (  A) B  32 (  A) B
                   1.263       1.291       1.593       1.728       1.744
              33 (  A) B  34 (  A) B  35 (  A) B  36 (  A) B
                   1.811       1.852       1.854       1.901
  Block   5:  37 (  A) B  38 (  A) B  39 (  A) B  40 (  A) B  41 (  A) B
                   1.963       1.972       2.224       2.248       2.355
              42 (  A) B  43 (  A) B  44 (  A) B  45 (  A) B  46 (  A) B
                   2.423       2.493       2.623       2.679       2.795
              47 (  A) B  48 (  A) B
                   3.099       3.369
  Import MO data ...  CPU 0.01 s  wall 0.01 s
  Import HF data ...  CPU 0.22 s  wall 0.09 s
  Import 2e integrals ...  CPU 1.15 s  wall 0.21 s

--------------------------------------------------------------------------------
                                   HF Summary                                   
--------------------------------------------------------------------------------
  Energy:                                                  -78.0396422346 a.u.
  Dip. moment [a.u.]:                  [  -0.000005,    0.000002,    0.000016]
  Total dipole [Debye]:                                               0.000043
  <r^2> [a.u.]:                        [ 175.868088,   35.252970,   11.680370]
  Total <r^2> [a.u.]:                                               222.801427
--------------------------------------------------------------------------------
  HF properties ...  CPU 0.03 s  wall 0.02 s
  MP(1) calculation ...  CPU 0.01 s  wall 0.01 s
  N^6 prerequesite intermediates ...  CPU 0.59 s  wall 0.11 s
  Difference density matrix of state mp2_gs printed to ASCII file 'State_mp2_gs_Difference.txt'
Exporting MP density matrix to file 'Densmat_MP.txt'.
Export successful
  Total density matrix of state mp2_gs printed to ASCII file 'State_mp2_gs_Total.txt'
Exporting MP density matrix to file 'Densmat_MP.txt'.
Export successful

--------------------------------------------------------------------------------
                                 MP(2) Summary                                  
--------------------------------------------------------------------------------
  MP energy contribution:                                   -0.2804895297 a.u.
  Total energy:                                            -78.3201317643 a.u.
  Dip. moment [a.u.]:                  [  -0.000004,    0.000002,    0.000016]
  Total dipole [Debye]:                                               0.000042
  <r^2> [a.u.]:                        [ 175.909637,   35.287457,   11.507944]
  Total <r^2> [a.u.]:                                               222.705038

  Density matrix analysis:
  ------------------------
  NOs
    Occupation of frontier NOs:
       0.0455   1.9380
    Number of electrons: 16.000000
    Number of unpaired electrons: n_u =  0.40725, n_u,nl =  0.04580
    NO participation ratio (PR_NO): 13.896556
  
  
  Mulliken Population Analysis
  Atom      Charge (e)              h+              e-           Del q
  --------------------------------------------------------------------
   1 H        0.055023        0.013893       -0.011314        0.002580
   2 C       -0.109938        0.094595       -0.099791       -0.005196
   3 H        0.054921        0.013921       -0.011304        0.002616
   4 C       -0.109948        0.094594       -0.099791       -0.005197
   5 H        0.054920        0.013921       -0.011304        0.002617
   6 H        0.055021        0.013894       -0.011314        0.002580
  --------------------------------------------------------------------
  Sum:       -0.000000        0.244818       -0.244818        0.000000
  
  Multipole moment analysis of the density matrix
    Molecular charge:                      -0.000000
    Number of electrons:                   16.000000
      Center of electronic charge [Ang]: [ -1.561338,  -0.065287,   0.002127]
    Total nuclear charge:                  16.000000
      Center of nuclear charge [Ang]:    [ -1.561339,  -0.065287,   0.002127]
    Dipole moment [D]:                     0.000042
      Cartesian components [D]:          [ -0.000011,   0.000004,   0.000040]
    RMS size of the density [Ang]:         1.206520
      Cartesian components [Ang]:        [  0.800596,   0.783155,   0.448782]
  
  Exciton analysis of the difference density matrix
    <r_h> [Ang]:                  [ -1.561338,  -0.065287,   0.002124]
    <r_e> [Ang]:                  [ -1.561339,  -0.065286,   0.002125]
    |<r_e - r_h>| [Ang]:            0.000001
    Hole size [Ang]:                1.401658
      Cartesian components [Ang]: [  0.852882,   0.840372,   0.728707]
    Electron size [Ang]:            1.361760
      Cartesian components [Ang]: [  0.880302,   0.863523,   0.577744]
--------------------------------------------------------------------------------
  MP(2) calculation ...  CPU 0.29 s  wall 0.21 s
  Start ADC(2)-s ...  CPU 0.02 s  wall 0.01 s
  ADC(2) intermediates ...  CPU 0.05 s  wall 0.01 s
  Starting Davidson for singlet states of irrep A ... 
--------------------------------------------------------------------------------
   It NVec Conv  Avg. Norm  Max. Norm  Conv. states           Remark
--------------------------------------------------------------------------------
        10    0  1.329e-01  4.687e-01  0.4117 n n n n n n n n Guess.
    1   20    0  2.316e-02  1.125e-01  0.3261 n n n n n n n n 
    2   30    0  5.891e-03  2.567e-02  0.3213 n n n n n n n n 
    3   40    0  2.029e-03  1.380e-02  0.3209 n n n n n n n n 
    4   50    0  6.384e-04  4.804e-03  0.3209 n n n n n n n n 
    5   20    0  2.795e-04  2.041e-03  0.3209 n n n n n n n n Subspace collapsed.
    6   30    0  1.800e-04  1.601e-03  0.3209 n n n n n n n n 
    7   40    0  1.037e-04  8.267e-04  0.3209 n n n n n n n n 
    8   50    0  9.768e-05  9.170e-04  0.3209 n n n n n n n n 
    9   20    1  5.290e-05  4.810e-04  0.3209 n y n n n n n n Subspace collapsed.
   10   30    5  8.805e-05  8.588e-04  0.3209 n y y y y y n n 
   11   40    5  8.293e-05  8.253e-04  0.3209 n y y y y y n n 
   12   50    6  7.862e-05  7.855e-04  0.3209 y y y y y y n n 
   13   20    6  3.150e-05  3.145e-04  0.3209 y y y y y y n n Subspace collapsed.
   14   30    6  2.757e-05  2.755e-04  0.3209 y y y y y y n n 
   15   40    7  1.282e-05  1.279e-04  0.3209 y y y y y y n y 
   16   50    7  1.641e-05  1.641e-04  0.3209 y y y y y y n y 
   17   20    8  7.151e-06  7.149e-05  0.3209 y y y y y y n y Subspace collapsed.
   18   30    8  1.618e-05  1.618e-04  0.3209 y y y y y y y y 
   19   40    9  1.371e-05  1.371e-04  0.3209 y y y y y y y y 
   20   50    9  1.482e-05  1.482e-04  0.3209 y y y y y y y y 
   21   20    9  5.535e-06  5.535e-05  0.3209 y y y y y y y y Subspace collapsed.
   22   30    9  5.678e-06  5.678e-05  0.3209 y y y y y y y y 
   23   32    9  5.558e-06  5.558e-05  0.3209 y y y y y y y y 
   24   40    9  2.540e-06  2.540e-05  0.3209 y y y y y y y y 
   25   47    9  2.844e-06  2.844e-05  0.3209 y y y y y y y y 
   26   50    9  2.914e-06  2.914e-05  0.3209 y y y y y y y y 
   27   15    9  1.711e-06  1.711e-05  0.3209 y y y y y y y y Subspace collapsed.
   28   20    9  2.678e-06  2.678e-05  0.3209 y y y y y y y y 
   29   24    9  2.872e-06  2.872e-05  0.3209 y y y y y y y y 
   30   28    9  2.995e-06  2.995e-05  0.3209 y y y y y y y y 
   31   32    9  1.576e-06  1.576e-05  0.3209 y y y y y y y y 
   32   36    9  1.026e-06  1.026e-05  0.3209 y y y y y y y y 
   33   40    9  5.882e-07  5.882e-06  0.3209 y y y y y y y y 
   34   44    9  2.318e-07  2.318e-06  0.3209 y y y y y y y y 
   35   48    9  1.128e-07  1.128e-06  0.3209 y y y y y y y y 
   36   50   10  6.864e-08  6.864e-07  0.3209 y y y y y y y y Converged.
--------------------------------------------------------------------------------
  Davidson Summary: 
 ------------------------------------------------------------
  State  0: excitation energy =   0.3209 a.u.   (converged)
  State  1: excitation energy =   0.3290 a.u.   (converged)
  State  2: excitation energy =   0.3359 a.u.   (converged)
  State  3: excitation energy =   0.3579 a.u.   (converged)
  State  4: excitation energy =   0.3733 a.u.   (converged)
  State  5: excitation energy =   0.3866 a.u.   (converged)
  State  6: excitation energy =   0.4202 a.u.   (converged)
  State  7: excitation energy =   0.4435 a.u.   (converged)
  State  8: excitation energy =   0.4537 a.u.   (converged)
  State  9: excitation energy =   0.4585 a.u.   (converged)
 ------------------------------------------------------------

  Singlet states of irrep A ...  CPU 213.58 s  wall 69.13 s
  TDMs ...  CPU 2.41 s  wall 0.89 s
  SDMs ...  CPU 4.90 s  wall 1.51 s
  Starting TPA DIIS iterations ... 
------------------------------------ 
   It     Res. Norm  Remark
------------------------------------
                       Guess.
    1     4.411e+00  
    2     5.850e+00  
    3     1.086e+00  
    4     2.625e-01  
    5     6.576e-02  
    6     2.770e-02  
    7     8.466e-03  
    8     1.544e-03  
    9     5.822e-04  
   10     9.733e-05  
   11     3.141e-05  
   12     4.868e-06  
   13     1.640e-06  
   14     4.799e-07  Converged.
   ... Converged in 14 steps (norm: 4.79872e-07)
------------------------------------
  Starting TPA DIIS iterations ... 
------------------------------------ 
   It     Res. Norm  Remark
------------------------------------
                       Guess.
    1     4.173e+00  
    2     5.528e+00  
    3     1.037e+00  
    4     2.622e-01  
    5     6.540e-02  
    6     2.784e-02  
    7     8.345e-03  
    8     1.578e-03  
    9     5.928e-04  
   10     9.778e-05  
   11     3.201e-05  
   12     4.863e-06  
   13     1.679e-06  
   14     4.747e-07  Converged.
   ... Converged in 14 steps (norm: 4.74707e-07)
------------------------------------
  Starting TPA DIIS iterations ... 
------------------------------------ 
   It     Res. Norm  Remark
------------------------------------
                       Guess.
    1     6.854e-01  
    2     4.792e-01  
    3     1.686e-01  
    4     6.188e-02  
    5     1.876e-02  
    6     6.724e-03  
    7     1.073e-03  
    8     4.587e-04  
    9     1.263e-04  
   10     3.105e-05  
   11     5.057e-06  
   12     1.792e-06  
   13     8.424e-07  Converged.
   ... Converged in 13 steps (norm: 8.42411e-07)
------------------------------------
  Starting TPA DIIS iterations ... 
------------------------------------ 
   It     Res. Norm  Remark
------------------------------------
                       Guess.
    1     4.607e+00  
    2     6.202e+00  
    3     1.142e+00  
    4     2.824e-01  
    5     7.142e-02  
    6     3.029e-02  
    7     9.244e-03  
    8     1.685e-03  
    9     6.385e-04  
   10     1.072e-04  
   11     3.482e-05  
   12     5.430e-06  
   13     1.838e-06  
   14     5.366e-07  Converged.
   ... Converged in 14 steps (norm: 5.36559e-07)
------------------------------------
  Starting TPA DIIS iterations ... 
------------------------------------ 
   It     Res. Norm  Remark
------------------------------------
                       Guess.
    1     4.358e+00  
    2     5.860e+00  
    3     1.090e+00  
    4     2.819e-01  
    5     7.105e-02  
    6     3.046e-02  
    7     9.114e-03  
    8     1.723e-03  
    9     6.503e-04  
   10     1.077e-04  
   11     3.547e-05  
   12     5.420e-06  
   13     1.882e-06  
   14     5.304e-07  Converged.
   ... Converged in 14 steps (norm: 5.30395e-07)
------------------------------------
  Starting TPA DIIS iterations ... 
------------------------------------ 
   It     Res. Norm  Remark
------------------------------------
                       Guess.
    1     6.937e-01  
    2     4.910e-01  
    3     1.752e-01  
    4     6.738e-02  
    5     1.974e-02  
    6     7.142e-03  
    7     1.165e-03  
    8     5.140e-04  
    9     1.439e-04  
   10     3.442e-05  
   11     5.505e-06  
   12     2.006e-06  
   13     9.791e-07  Converged.
   ... Converged in 13 steps (norm: 9.79118e-07)
------------------------------------
  Starting TPA DIIS iterations ... 
------------------------------------ 
   It     Res. Norm  Remark
------------------------------------
                       Guess.
    1     4.788e+00  
    2     6.530e+00  
    3     1.193e+00  
    4     3.013e-01  
    5     7.680e-02  
    6     3.276e-02  
    7     9.983e-03  
    8     1.819e-03  
    9     6.923e-04  
   10     1.166e-04  
   11     3.811e-05  
   12     5.972e-06  
   13     2.032e-06  
   14     5.914e-07  Converged.
   ... Converged in 14 steps (norm: 5.91355e-07)
------------------------------------
  Starting TPA DIIS iterations ... 
------------------------------------ 
   It     Res. Norm  Remark
------------------------------------
                       Guess.
    1     4.528e+00  
    2     6.170e+00  
    3     1.138e+00  
    4     3.006e-01  
    5     7.640e-02  
    6     3.296e-02  
    7     9.846e-03  
    8     1.861e-03  
    9     7.052e-04  
   10     1.171e-04  
   11     3.880e-05  
   12     5.958e-06  
   13     2.080e-06  
   14     5.842e-07  Converged.
   ... Converged in 14 steps (norm: 5.84228e-07)
------------------------------------
  Starting TPA DIIS iterations ... 
------------------------------------ 
   It     Res. Norm  Remark
------------------------------------
                       Guess.
    1     7.010e-01  
    2     5.015e-01  
    3     1.812e-01  
    4     7.268e-02  
    5     2.064e-02  
    6     7.537e-03  
    7     1.254e-03  
    8     5.684e-04  
    9     1.613e-04  
   10     3.720e-05  
   11     5.925e-06  
   12     2.216e-06  
   13     1.119e-06  
   14     4.160e-07  Converged.
   ... Converged in 14 steps (norm: 4.16003e-07)
------------------------------------
  Starting TPA DIIS iterations ... 
------------------------------------ 
   It     Res. Norm  Remark
------------------------------------
                       Guess.
    1     5.440e+00  
    2     7.743e+00  
    3     1.377e+00  
    4     3.732e-01  
    5     9.732e-02  
    6     4.227e-02  
    7     1.281e-02  
    8     2.328e-03  
    9     8.997e-04  
   10     1.529e-04  
   11     5.104e-05  
   12     8.110e-06  
   13     2.810e-06  
   14     8.087e-07  Converged.
   ... Converged in 14 steps (norm: 8.08674e-07)
------------------------------------
  Starting TPA DIIS iterations ... 
------------------------------------ 
   It     Res. Norm  Remark
------------------------------------
                       Guess.
    1     5.143e+00  
    2     7.315e+00  
    3     1.313e+00  
    4     3.717e-01  
    5     9.685e-02  
    6     4.261e-02  
    7     1.264e-02  
    8     2.387e-03  
    9     9.169e-04  
   10     1.537e-04  
   11     5.188e-05  
   12     8.073e-06  
   13     2.875e-06  
   14     7.979e-07  Converged.
   ... Converged in 14 steps (norm: 7.9791e-07)
------------------------------------
  Starting TPA DIIS iterations ... 
------------------------------------ 
   It     Res. Norm  Remark
------------------------------------
                       Guess.
    1     7.251e-01  
    2     5.377e-01  
    3     2.024e-01  
    4     9.349e-02  
    5     2.382e-02  
    6     9.047e-03  
    7     1.605e-03  
    8     7.863e-04  
    9     2.296e-04  
   10     4.415e-05  
   11     7.495e-06  
   12     3.065e-06  
   13     1.735e-06  
   14     5.945e-07  Converged.
   ... Converged in 14 steps (norm: 5.94504e-07)
------------------------------------
  Starting TPA DIIS iterations ... 
------------------------------------ 
   It     Res. Norm  Remark
------------------------------------
                       Guess.
    1     5.992e+00  
    2     8.805e+00  
    3     1.532e+00  
    4     4.387e-01  
    5     1.160e-01  
    6     5.105e-02  
    7     1.539e-02  
    8     2.791e-03  
    9     1.091e-03  
   10     1.865e-04  
   11     6.320e-05  
   12     1.012e-05  
   13     3.559e-06  
   14     1.017e-06  
   15     3.323e-07  Converged.
   ... Converged in 15 steps (norm: 3.32347e-07)
------------------------------------
  Starting TPA DIIS iterations ... 
------------------------------------ 
   It     Res. Norm  Remark
------------------------------------
                       Guess.
    1     5.663e+00  
    2     8.317e+00  
    3     1.460e+00  
    4     4.363e-01  
    5     1.155e-01  
    6     5.152e-02  
    7     1.520e-02  
    8     2.866e-03  
    9     1.112e-03  
   10     1.875e-04  
   11     6.413e-05  
   12     1.006e-05  
   13     3.638e-06  
   14     1.003e-06  
   15     3.276e-07  Converged.
   ... Converged in 15 steps (norm: 3.27627e-07)
------------------------------------
  Starting TPA DIIS iterations ... 
------------------------------------ 
   It     Res. Norm  Remark
------------------------------------
                       Guess.
    1     7.430e-01  
    2     5.663e-01  
    3     2.198e-01  
    4     1.130e-01  
    5     2.654e-02  
    6     1.043e-02  
    7     1.942e-03  
    8     9.859e-04  
    9     2.904e-04  
   10     4.692e-05  
   11     8.916e-06  
   12     3.880e-06  
   13     2.386e-06  
   14     7.632e-07  Converged.
   ... Converged in 14 steps (norm: 7.63175e-07)
------------------------------------
  Starting TPA DIIS iterations ... 
------------------------------------ 
   It     Res. Norm  Remark
------------------------------------
                       Guess.
    1     6.545e+00  
    2     9.898e+00  
    3     1.686e+00  
    4     5.082e-01  
    5     1.358e-01  
    6     6.045e-02  
    7     1.812e-02  
    8     3.281e-03  
    9     1.295e-03  
   10     2.224e-04  
   11     7.634e-05  
   12     1.230e-05  
   13     4.381e-06  
   14     1.250e-06  
   15     4.114e-07  Converged.
   ... Converged in 15 steps (norm: 4.11448e-07)
------------------------------------
  Starting TPA DIIS iterations ... 
------------------------------------ 
   It     Res. Norm  Remark
------------------------------------
                       Guess.
    1     6.185e+00  
    2     9.350e+00  
    3     1.606e+00  
    4     5.047e-01  
    5     1.352e-01  
    6     6.107e-02  
    7     1.790e-02  
    8     3.373e-03  
    9     1.320e-03  
   10     2.236e-04  
   11     7.733e-05  
   12     1.220e-05  
   13     4.471e-06  
   14     1.233e-06  
   15     4.049e-07  Converged.
   ... Converged in 15 steps (norm: 4.04909e-07)
------------------------------------
  Starting TPA DIIS iterations ... 
------------------------------------ 
   It     Res. Norm  Remark
------------------------------------
                       Guess.
    1     7.592e-01  
    2     5.933e-01  
    3     2.366e-01  
    4     1.341e-01  
    5     2.933e-02  
    6     1.189e-02  
    7     2.316e-03  
    8     1.186e-03  
    9     3.509e-04  
   10     4.831e-05  
   11     1.045e-05  
   12     4.766e-06  
   13     3.147e-06  
   14     9.446e-07  Converged.
   ... Converged in 14 steps (norm: 9.44646e-07)
------------------------------------
  Starting TPA DIIS iterations ... 
------------------------------------ 
   It     Res. Norm  Remark
------------------------------------
                       Guess.
    1     8.370e+00  
    2     1.370e+01  
    3     2.186e+00  
    4     7.605e-01  
    5     2.077e-01  
    6     9.532e-02  
    7     2.807e-02  
    8     5.057e-03  
    9     2.051e-03  
   10     3.551e-04  
   11     1.246e-04  
   12     2.038e-05  
   13     7.417e-06  
   14     2.196e-06  
   15     7.095e-07  Converged.
   ... Converged in 15 steps (norm: 7.09518e-07)
------------------------------------
  Starting TPA DIIS iterations ... 
------------------------------------ 
   It     Res. Norm  Remark
------------------------------------
                       Guess.
    1     7.906e+00  
    2     1.294e+01  
    3     2.081e+00  
    4     7.527e-01  
    5     2.069e-01  
    6     9.658e-02  
    7     2.777e-02  
    8     5.212e-03  
    9     2.090e-03  
   10     3.568e-04  
   11     1.255e-04  
   12     2.015e-05  
   13     7.518e-06  
   14     2.166e-06  
   15     6.962e-07  Converged.
   ... Converged in 15 steps (norm: 6.96242e-07)
------------------------------------
  Starting TPA DIIS iterations ... 
------------------------------------ 
   It     Res. Norm  Remark
------------------------------------
                       Guess.
    1     8.036e-01  
    2     6.741e-01  
    3     2.893e-01  
    4     2.112e-01  
    5     3.916e-02  
    6     1.723e-02  
    7     3.776e-03  
    8     1.730e-03  
    9     5.361e-04  
   10     5.543e-05  
   11     1.633e-05  
   12     7.984e-06  
   13     6.245e-06  
   14     1.602e-06  
   15     5.990e-07  Converged.
   ... Converged in 15 steps (norm: 5.9901e-07)
------------------------------------
  Starting TPA DIIS iterations ... 
------------------------------------ 
   It     Res. Norm  Remark
------------------------------------
                       Guess.
    1     1.017e+01  
    2     1.771e+01  
    3     2.668e+00  
    4     1.038e+00  
    5     2.873e-01  
    6     1.349e-01  
    7     3.910e-02  
    8     7.016e-03  
    9     2.904e-03  
   10     5.037e-04  
   11     1.763e-04  
   12     2.960e-05  
   13     1.067e-05  
   14     3.405e-06  
   15     1.094e-06  
   16     2.405e-07  Converged.
   ... Converged in 16 steps (norm: 2.40488e-07)
------------------------------------
  Starting TPA DIIS iterations ... 
------------------------------------ 
   It     Res. Norm  Remark
------------------------------------
                       Guess.
    1     9.608e+00  
    2     1.673e+01  
    3     2.539e+00  
    4     1.024e+00  
    5     2.865e-01  
    6     1.369e-01  
    7     3.871e-02  
    8     7.243e-03  
    9     2.957e-03  
   10     5.059e-04  
   11     1.769e-04  
   12     2.924e-05  
   13     1.076e-05  
   14     3.342e-06  
   15     1.083e-06  
   16     2.500e-07  Converged.
   ... Converged in 16 steps (norm: 2.50024e-07)
------------------------------------
  Starting TPA DIIS iterations ... 
------------------------------------ 
   It     Res. Norm  Remark
------------------------------------
                       Guess.
    1     8.381e-01  
    2     7.445e-01  
    3     3.376e-01  
    4     2.915e-01  
    5     4.968e-02  
    6     2.292e-02  
    7     5.482e-03  
    8     2.030e-03  
    9     6.994e-04  
   10     7.192e-05  
   11     2.322e-05  
   12     1.131e-05  
   13     9.840e-06  
   14     2.293e-06  
   15     7.916e-07  Converged.
   ... Converged in 15 steps (norm: 7.91634e-07)
------------------------------------
  Starting TPA DIIS iterations ... 
------------------------------------ 
   It     Res. Norm  Remark
------------------------------------
                       Guess.
    1     1.117e+01  
    2     2.003e+01  
    3     2.929e+00  
    4     1.199e+00  
    5     3.343e-01  
    6     1.585e-01  
    7     4.560e-02  
    8     8.169e-03  
    9     3.412e-03  
   10     5.918e-04  
   11     2.057e-04  
   12     3.524e-05  
   13     1.259e-05  
   14     4.174e-06  
   15     1.390e-06  
   16     3.037e-07  Converged.
   ... Converged in 16 steps (norm: 3.03704e-07)
------------------------------------
  Starting TPA DIIS iterations ... 
------------------------------------ 
   It     Res. Norm  Remark
------------------------------------
                       Guess.
    1     1.055e+01  
    2     1.892e+01  
    3     2.786e+00  
    4     1.182e+00  
    5     3.333e-01  
    6     1.611e-01  
    7     4.517e-02  
    8     8.438e-03  
    9     3.473e-03  
   10     5.940e-04  
   11     2.062e-04  
   12     3.484e-05  
   13     1.268e-05  
   14     4.081e-06  
   15     1.387e-06  
   16     3.140e-07  Converged.
   ... Converged in 16 steps (norm: 3.13969e-07)
------------------------------------
  Starting TPA DIIS iterations ... 
------------------------------------ 
   It     Res. Norm  Remark
------------------------------------
                       Guess.
    1     8.543e-01  
    2     7.805e-01  
    3     3.629e-01  
    4     3.343e-01  
    5     5.572e-02  
    6     2.608e-02  
    7     6.496e-03  
    8     2.118e-03  
    9     7.838e-04  
   10     8.340e-05  
   11     2.738e-05  
   12     1.315e-05  
   13     1.196e-05  
   14     2.671e-06  
   15     8.700e-07  Converged.
   ... Converged in 15 steps (norm: 8.70031e-07)
------------------------------------
  Starting TPA DIIS iterations ... 
------------------------------------ 
   It     Res. Norm  Remark
------------------------------------
                       Guess.
    1     1.169e+01  
    2     2.126e+01  
    3     3.063e+00  
    4     1.285e+00  
    5     3.594e-01  
    6     1.713e-01  
    7     4.909e-02  
    8     8.786e-03  
    9     3.686e-03  
   10     6.389e-04  
   11     2.212e-04  
   12     3.834e-05  
   13     1.364e-05  
   14     4.599e-06  
   15     1.575e-06  
   16     3.400e-07  Converged.
   ... Converged in 16 steps (norm: 3.40014e-07)
------------------------------------
  Starting TPA DIIS iterations ... 
------------------------------------ 
   It     Res. Norm  Remark
------------------------------------
                       Guess.
    1     1.103e+01  
    2     2.007e+01  
    3     2.914e+00  
    4     1.266e+00  
    5     3.584e-01  
    6     1.741e-01  
    7     4.862e-02  
    8     9.077e-03  
    9     3.751e-03  
   10     6.413e-04  
   11     2.217e-04  
   12     3.791e-05  
   13     1.374e-05  
   14     4.489e-06  
   15     1.576e-06  
   16     3.486e-07  Converged.
   ... Converged in 16 steps (norm: 3.48602e-07)
------------------------------------
  Starting TPA DIIS iterations ... 
------------------------------------ 
   It     Res. Norm  Remark
------------------------------------
                       Guess.
    1     8.622e-01  
    2     7.986e-01  
    3     3.757e-01  
    4     3.557e-01  
    5     5.890e-02  
    6     2.770e-02  
    7     7.037e-03  
    8     2.151e-03  
    9     8.265e-04  
   10     8.968e-05  
   11     2.962e-05  
   12     1.412e-05  
   13     1.311e-05  
   14     2.862e-06  
   15     9.046e-07  Converged.
   ... Converged in 15 steps (norm: 9.04555e-07)
------------------------------------
  Two-photon absorbption ...  CPU 165.97 s  wall 44.29 s
  Transition density matrix of state singlet_A_1 printed to ASCII file 'State_singlet_A_1_Transition.txt'
  Transition density matrix of state singlet_A_2 printed to ASCII file 'State_singlet_A_2_Transition.txt'
  Transition density matrix of state singlet_A_3 printed to ASCII file 'State_singlet_A_3_Transition.txt'
  Transition density matrix of state singlet_A_4 printed to ASCII file 'State_singlet_A_4_Transition.txt'
  Transition density matrix of state singlet_A_5 printed to ASCII file 'State_singlet_A_5_Transition.txt'
  Transition density matrix of state singlet_A_6 printed to ASCII file 'State_singlet_A_6_Transition.txt'
  Transition density matrix of state singlet_A_7 printed to ASCII file 'State_singlet_A_7_Transition.txt'
  Transition density matrix of state singlet_A_8 printed to ASCII file 'State_singlet_A_8_Transition.txt'
  Transition density matrix of state singlet_A_9 printed to ASCII file 'State_singlet_A_9_Transition.txt'
  Transition density matrix of state singlet_A_10 printed to ASCII file 'State_singlet_A_10_Transition.txt'
  Transition properties ...  CPU 0.43 s  wall 0.58 s
  Difference density matrix of state singlet_A_1 printed to ASCII file 'State_singlet_A_1_Difference.txt'
  Total density matrix of state singlet_A_1 printed to ASCII file 'State_singlet_A_1_Total.txt'
  Difference density matrix of state singlet_A_2 printed to ASCII file 'State_singlet_A_2_Difference.txt'
  Total density matrix of state singlet_A_2 printed to ASCII file 'State_singlet_A_2_Total.txt'
  Difference density matrix of state singlet_A_3 printed to ASCII file 'State_singlet_A_3_Difference.txt'
  Total density matrix of state singlet_A_3 printed to ASCII file 'State_singlet_A_3_Total.txt'
  Difference density matrix of state singlet_A_4 printed to ASCII file 'State_singlet_A_4_Difference.txt'
  Total density matrix of state singlet_A_4 printed to ASCII file 'State_singlet_A_4_Total.txt'
  Difference density matrix of state singlet_A_5 printed to ASCII file 'State_singlet_A_5_Difference.txt'
  Total density matrix of state singlet_A_5 printed to ASCII file 'State_singlet_A_5_Total.txt'
  Difference density matrix of state singlet_A_6 printed to ASCII file 'State_singlet_A_6_Difference.txt'
  Total density matrix of state singlet_A_6 printed to ASCII file 'State_singlet_A_6_Total.txt'
  Difference density matrix of state singlet_A_7 printed to ASCII file 'State_singlet_A_7_Difference.txt'
  Total density matrix of state singlet_A_7 printed to ASCII file 'State_singlet_A_7_Total.txt'
  Difference density matrix of state singlet_A_8 printed to ASCII file 'State_singlet_A_8_Difference.txt'
  Total density matrix of state singlet_A_8 printed to ASCII file 'State_singlet_A_8_Total.txt'
  Difference density matrix of state singlet_A_9 printed to ASCII file 'State_singlet_A_9_Difference.txt'
  Total density matrix of state singlet_A_9 printed to ASCII file 'State_singlet_A_9_Total.txt'
  Difference density matrix of state singlet_A_10 printed to ASCII file 'State_singlet_A_10_Difference.txt'
  Total density matrix of state singlet_A_10 printed to ASCII file 'State_singlet_A_10_Total.txt'
  Properties ...  CPU 0.64 s  wall 1.01 s
  ISR TDMS ...  CPU 31.44 s  wall 9.63 s
  ISR transition properties ...  CPU 0.52 s  wall 0.25 s
  Sum-over-states TPA ...  CPU 0.00 s  wall 0.00 s

--------------------------------------------------------------------------------
                   State-averaged natural transition orbitals
--------------------------------------------------------------------------------
--------------------------------------------------------------------------------
  SA-NTO decomposition ...  CPU 0.01 s  wall 0.04 s

--------------------------------------------------------------------------------
                             Excited State Summary
--------------------------------------------------------------------------------
--------------------------------------------------------------------------------

  Excited state 1 (singlet, A)                                     [converged]
  ----------------------------------------------------------------------------
  Term symbol:  2 (1) A                                     R^2 =  4.02346e-13

  Total energy:                                            -77.9992445513 a.u.
  Excitation energy:                                               8.731785 eV

  Osc. strength:                                                      0.446207
  Trans. dip. moment [a.u.]:           [  -1.047743,    0.993958,    0.009632]
  <i|r^2|0> [a.u.]:                    [  -6.182698,    0.245305,   -0.000155]
  Two-photon absorption cross-section (SoS) [a.u.]:                   0.000000
  Two-photon absorption matrix (SoS) [a.u.]:
                                       |   -0.000033    0.000005   -0.000031 |
                                       |    0.000005   -0.000009   -0.000063 |
                                       |   -0.000031   -0.000063   -0.000027 |
  Two-photon absorption cross-section [a.u.]:                         0.000001
  Two-photon absorption matrix [a.u.]:
                                       |   -0.000021   -0.000016    0.000246 |
                                       |   -0.000016    0.000011    0.000213 |
                                       |    0.000246    0.000213    0.000041 |

  Dip. moment [a.u.]:                  [  -0.000004,    0.000000,    0.000020]
  Total dipole [Debye]:                                               0.000051
  <r^2> [a.u.]:                        [ 176.660344,   35.969702,   11.918907]
  Total <r^2> [a.u.]:                                               224.548953

  V1^2 = 0.9713, V2^2 = 0.0287

  Important amplitudes:
      occ i     occ j     vir a      vir b          v   
    -----------------------------------------------------
     8 (A) A              9 (A) A                -0.6809
     6 (A) A             14 (A) A                 0.0617
     4 (A) A             10 (A) A                -0.0614
     7 (A) A             16 (A) A                -0.0575
     5 (A) A             13 (A) A                 0.0527
     6 (A) A             23 (A) A                 0.0485
     8 (A) A             20 (A) A                -0.0348
     6 (A) A             19 (A) A                 0.0302
     3 (A) A             12 (A) A                -0.0285
     5 (A) A             22 (A) A                -0.0218
     4 (A) A             24 (A) A                -0.0188
     3 (A) A             26 (A) A                 0.0187
     7 (A) A             11 (A) A                -0.0186
     8 (A) A   8 (A) B   17 (A) A   20 (A) B      0.0184
     8 (A) A   8 (A) B    9 (A) A   28 (A) B      0.0168
     6 (A) A             26 (A) A                 0.0163
     7 (A) A             21 (A) A                -0.0152
     3 (A) A             14 (A) A                 0.0143
     6 (A) A             12 (A) A                 0.0136
     3 (A) A   4 (A) B    9 (A) A    9 (A) B      0.0129
     3 (A) A             19 (A) A                 0.0121
     8 (A) A   8 (A) B   18 (A) A   19 (A) B     -0.0111
     7 (A) A             32 (A) A                -0.0097
     7 (A) A             36 (A) A                -0.0086
     3 (A) A             23 (A) A                 0.0082
     8 (A) A   8 (A) B   25 (A) A   29 (A) B     -0.0076
     6 (A) A             35 (A) A                 0.0072
     6 (A) A             40 (A) A                 0.0067
     3 (A) A   6 (A) B    9 (A) A   28 (A) B      0.0065
     5 (A) A   8 (A) B   11 (A) A    9 (A) B     -0.0062
     7 (A) A   8 (A) B   13 (A) A   20 (A) B     -0.0060
     5 (A) A   8 (A) B   11 (A) A   20 (A) B      0.0060
     5 (A) A   7 (A) B    9 (A) A    9 (A) B      0.0060
     5 (A) A             27 (A) A                 0.0060
     6 (A) A   8 (A) A   19 (A) A   28 (A) A      0.0060
     5 (A) A   8 (A) B   16 (A) A    9 (A) B      0.0059
     3 (A) A   5 (A) B    9 (A) A   25 (A) B      0.0058
     7 (A) A   8 (A) B   22 (A) A   20 (A) B      0.0057
     3 (A) A             40 (A) A                 0.0056
     8 (A) A   8 (A) B   19 (A) A   30 (A) B     -0.0056
    -----------------------------------------------------

  Density matrix analysis:
  ------------------------
  NOs
    Occupation of frontier NOs:
       0.9491   1.0219
    Number of electrons: 16.000000
    Number of unpaired electrons: n_u =  2.31679, n_u,nl =  2.03329
    NO participation ratio (PR_NO):  2.874077
  
  
  Mulliken Population Analysis
  Atom      Charge (e)              h+              e-           Del q
  --------------------------------------------------------------------
   1 H        0.063110        0.020480       -0.012393        0.008087
   2 C       -0.125976        0.490665       -0.506703       -0.016038
   3 H        0.062872        0.020395       -0.012445        0.007951
   4 C       -0.125987        0.490664       -0.506704       -0.016040
   5 H        0.062872        0.020396       -0.012444        0.007951
   6 H        0.063109        0.020480       -0.012393        0.008088
  --------------------------------------------------------------------
  Sum:       -0.000000        1.063081       -1.063081        0.000000
  
  Multipole moment analysis of the density matrix
    Molecular charge:                      -0.000000
    Number of electrons:                   16.000000
      Center of electronic charge [Ang]: [ -1.561338,  -0.065287,   0.002126]
    Total nuclear charge:                  16.000000
      Center of nuclear charge [Ang]:    [ -1.561339,  -0.065287,   0.002127]
    Dipole moment [D]:                     0.000051
      Cartesian components [D]:          [ -0.000010,   0.000001,   0.000050]
    RMS size of the density [Ang]:         1.219821
      Cartesian components [Ang]:        [  0.808760,   0.790741,   0.456725]
  
  Exciton analysis of the difference density matrix
    <r_h> [Ang]:                  [ -1.561336,  -0.065288,   0.002119]
    <r_e> [Ang]:                  [ -1.561336,  -0.065287,   0.002117]
    |<r_e - r_h>| [Ang]:            0.000002
    Hole size [Ang]:                1.287297
      Cartesian components [Ang]: [  0.730811,   0.714151,   0.782967]
    Electron size [Ang]:            1.463845
      Cartesian components [Ang]: [  0.855470,   0.830496,   0.849288]

  Transition density matrix analysis:
  -----------------------------------
  
  CT numbers (Mulliken)
    omega =     0.9532
    <Phe> =    -0.1603
  
  Exciton analysis of the transition density matrix
    Trans. dipole moment [D]:             1.835438
      Cartesian components [D]:         [ -1.331549,   1.263194,   0.012241]
    <r_h> [Ang]:                        [ -1.561335,  -0.065289,   0.002120]
    <r_e> [Ang]:                        [ -1.561336,  -0.065287,   0.002116]
    |<r_e - r_h>| [Ang]:                  0.000005
    Hole size [Ang]:                      1.214403
      Cartesian components [Ang]:       [  0.650481,   0.636490,   0.804071]
    Electron size [Ang]:                  1.486739
      Cartesian components [Ang]:       [  0.865968,   0.839332,   0.869491]
    RMS electron-hole separation [Ang]:   1.937163
      Cartesian components [Ang]:       [  1.108372,   1.074631,   1.170163]
    Covariance(r_h, r_e) [Ang^2]:        -0.033717
    Correlation coefficient:             -0.018674
    Center-of-mass size [Ang]:            0.951017
      Cartesian components [Ang]:       [  0.528575,   0.515840,   0.599126]

  Decomposition into state-averaged NTOs
    H- 0 -> L+ 0:  0.6697 ( 89.7%)
    H- 2 -> L+ 5: -0.0830 (  1.4%)
                   omega =  95.3%
  ----------------------------------------------------------------------------


  Excited state 2 (singlet, A)                                     [converged]
  ----------------------------------------------------------------------------
  Term symbol:  3 (1) A                                     R^2 =  4.15875e-13

  Total energy:                                            -77.9911557242 a.u.
  Excitation energy:                                               8.951893 eV

  Osc. strength:                                                      0.000000
  Trans. dip. moment [a.u.]:           [  -0.000544,    0.000499,    0.000010]
  <i|r^2|0> [a.u.]:                    [  -0.067640,   -0.088487,    0.153042]
  Two-photon absorption cross-section (SoS) [a.u.]:                   4.554936
  Two-photon absorption matrix (SoS) [a.u.]:
                                       |   -0.050019   -0.057358    0.514942 |
                                       |   -0.057358   -0.065273    0.539335 |
                                       |    0.514942    0.539335    0.115312 |
  Two-photon absorption cross-section [a.u.]:                         0.176206
  Two-photon absorption matrix [a.u.]:
                                       |    0.007466    0.010937   -0.086582 |
                                       |    0.010937    0.015298   -0.118347 |
                                       |   -0.086582   -0.118347   -0.022752 |

  Dip. moment [a.u.]:                  [  -0.000048,    0.000053,    0.000037]
  Total dipole [Debye]:                                               0.000205
  <r^2> [a.u.]:                        [ 175.058731,   34.252789,   13.214959]
  Total <r^2> [a.u.]:                                               222.526479

  V1^2 = 0.9541, V2^2 = 0.0459

  Important amplitudes:
      occ i     occ j     vir a      vir b          v   
    -----------------------------------------------------
     7 (A) A              9 (A) A                 0.6685
     8 (A) A             11 (A) A                 0.1512
     7 (A) A             20 (A) A                 0.0756
     5 (A) A   8 (A) B    9 (A) A    9 (A) B     -0.0315
     8 (A) A             16 (A) A                -0.0280
     8 (A) A             21 (A) A                 0.0177
     5 (A) A             28 (A) A                -0.0150
     4 (A) A   7 (A) B    9 (A) A   19 (A) B      0.0136
     5 (A) A   7 (A) B    9 (A) A   16 (A) B      0.0134
     7 (A) A   8 (A) B   20 (A) A   17 (A) B     -0.0106
     7 (A) A   8 (A) A    9 (A) A   28 (A) A      0.0098
     5 (A) A   8 (A) B    9 (A) A   20 (A) B     -0.0094
     4 (A) A   6 (A) B    9 (A) A   16 (A) B     -0.0091
     5 (A) A   6 (A) A    9 (A) A   23 (A) A     -0.0090
     5 (A) A   6 (A) A    9 (A) A   14 (A) A     -0.0089
     5 (A) A   6 (A) B    9 (A) A   19 (A) B     -0.0086
     8 (A) A   7 (A) B    9 (A) A   28 (A) B     -0.0085
     6 (A) A   7 (A) B    9 (A) A   18 (A) B     -0.0085
     4 (A) A   5 (A) A    9 (A) A   10 (A) A     -0.0085
     5 (A) A   6 (A) B    9 (A) A   23 (A) B     -0.0080
     3 (A) A   7 (A) B    9 (A) A   18 (A) B      0.0080
     5 (A) A   7 (A) A    9 (A) A   16 (A) A      0.0078
     4 (A) A   8 (A) B    9 (A) A   25 (A) B     -0.0076
     4 (A) A   7 (A) B   19 (A) A    9 (A) B      0.0075
     7 (A) A   8 (A) B   17 (A) A   20 (A) B     -0.0074
     5 (A) A   5 (A) B    9 (A) A   13 (A) B     -0.0073
     7 (A) A   8 (A) B   19 (A) A   18 (A) B      0.0071
     4 (A) A   5 (A) B    9 (A) A   18 (A) B      0.0069
     5 (A) A   8 (A) A    9 (A) A   20 (A) A     -0.0068
     7 (A) A   7 (A) B   20 (A) A   22 (A) B     -0.0066
     7 (A) A   8 (A) B   17 (A) A    9 (A) B     -0.0065
     5 (A) A   6 (A) B    9 (A) A   14 (A) B     -0.0063
     5 (A) A   7 (A) B   11 (A) A   20 (A) B     -0.0062
     4 (A) A   5 (A) B   10 (A) A    9 (A) B      0.0061
     4 (A) A   7 (A) A    9 (A) A   19 (A) A      0.0061
     5 (A) A             38 (A) A                -0.0060
     4 (A) A   6 (A) B   16 (A) A    9 (A) B     -0.0058
     4 (A) A   8 (A) A    9 (A) A   25 (A) A     -0.0057
     6 (A) A   7 (A) A   19 (A) A   28 (A) A     -0.0056
     5 (A) A   7 (A) A   11 (A) A   20 (A) A     -0.0054
    -----------------------------------------------------

  Density matrix analysis:
  ------------------------
  NOs
    Occupation of frontier NOs:
       0.9561   1.0552
    Number of electrons: 16.000000
    Number of unpaired electrons: n_u =  2.35841, n_u,nl =  2.06484
    NO participation ratio (PR_NO):  3.044842
  
  
  Mulliken Population Analysis
  Atom      Charge (e)              h+              e-           Del q
  --------------------------------------------------------------------
   1 H        0.152389        0.121875       -0.024509        0.097366
   2 C       -0.310161        0.272619       -0.472842       -0.200223
   3 H        0.157766        0.127888       -0.025044        0.102844
   4 C       -0.310169        0.272637       -0.472859       -0.200221
   5 H        0.157779        0.127898       -0.025039        0.102859
   6 H        0.152396        0.121888       -0.024513        0.097375
  --------------------------------------------------------------------
  Sum:       -0.000000        1.044805       -1.044805       -0.000000
  
  Multipole moment analysis of the density matrix
    Molecular charge:                      -0.000000
    Number of electrons:                   16.000000
      Center of electronic charge [Ang]: [ -1.561337,  -0.065288,   0.002126]
    Total nuclear charge:                  16.000000
      Center of nuclear charge [Ang]:    [ -1.561339,  -0.065287,   0.002127]
    Dipole moment [D]:                     0.000205
      Cartesian components [D]:          [ -0.000122,   0.000135,   0.000094]
    RMS size of the density [Ang]:         1.205226
      Cartesian components [Ang]:        [  0.791244,   0.771507,   0.480917]
  
  Exciton analysis of the difference density matrix
    <r_h> [Ang]:                  [ -1.561370,  -0.065262,   0.002128]
    <r_e> [Ang]:                  [ -1.561348,  -0.065288,   0.002118]
    |<r_e - r_h>| [Ang]:            0.000036
    Hole size [Ang]:                1.496114
      Cartesian components [Ang]: [  1.004897,   1.010246,   0.456004]
    Electron size [Ang]:            1.480056
      Cartesian components [Ang]: [  0.884211,   0.862138,   0.815753]

  Transition density matrix analysis:
  -----------------------------------
  
  CT numbers (Mulliken)
    omega =     0.9214
    <Phe> =    -0.0114
  
  Exciton analysis of the transition density matrix
    Trans. dipole moment [D]:             0.000938
      Cartesian components [D]:         [ -0.000691,   0.000634,   0.000013]
    <r_h> [Ang]:                        [ -1.561376,  -0.065257,   0.002131]
    <r_e> [Ang]:                        [ -1.561344,  -0.065292,   0.002115]
    |<r_e - r_h>| [Ang]:                  0.000049
    Hole size [Ang]:                      1.527044
      Cartesian components [Ang]:       [  1.028586,   1.036117,   0.447589]
    Electron size [Ang]:                  1.475468
      Cartesian components [Ang]:       [  0.873428,   0.850022,   0.831621]
    RMS electron-hole separation [Ang]:   2.103438
      Cartesian components [Ang]:       [  1.333396,   1.325155,   0.943648]
    Covariance(r_h, r_e) [Ang^2]:         0.042210
    Correlation coefficient:              0.018734
    Center-of-mass size [Ang]:            1.071598
      Cartesian components [Ang]:       [  0.682603,   0.677517,   0.472596]

  Decomposition into state-averaged NTOs
    H- 1 -> L+ 0:  0.6608 ( 87.3%)
    H- 0 -> L+ 2: -0.1512 (  4.6%)
                   omega =  92.1%
  ----------------------------------------------------------------------------


  Excited state 3 (singlet, A)                                     [converged]
  ----------------------------------------------------------------------------
  Term symbol:  4 (1) A                                     R^2 =  5.61835e-13

  Total energy:                                            -77.9841826579 a.u.
  Excitation energy:                                               9.141640 eV

  Osc. strength:                                                      0.023581
  Trans. dip. moment [a.u.]:           [  -0.015373,   -0.019700,    0.323517]
  <i|r^2|0> [a.u.]:                    [  -0.090494,   -0.005058,   -0.002610]
  Two-photon absorption cross-section (SoS) [a.u.]:                   0.000016
  Two-photon absorption matrix (SoS) [a.u.]:
                                       |    0.001350    0.000066    0.000151 |
                                       |    0.000066   -0.001431   -0.000034 |
                                       |    0.000151   -0.000034   -0.000133 |
  Two-photon absorption cross-section [a.u.]:                         0.000008
  Two-photon absorption matrix [a.u.]:
                                       |    0.000913    0.000073    0.000133 |
                                       |    0.000073   -0.001094   -0.000038 |
                                       |    0.000133   -0.000038   -0.000079 |

  Dip. moment [a.u.]:                  [   0.000037,    0.000053,   -0.000016]
  Total dipole [Debye]:                                               0.000170
  <r^2> [a.u.]:                        [ 181.425282,   40.972139,   11.057271]
  Total <r^2> [a.u.]:                                               233.454692

  V1^2 = 0.9580, V2^2 = 0.0420

  Important amplitudes:
      occ i     occ j     vir a      vir b          v   
    -----------------------------------------------------
     8 (A) A             10 (A) A                -0.6887
     8 (A) A             24 (A) A                -0.0508
     8 (A) A             18 (A) A                 0.0332
     4 (A) A              9 (A) A                -0.0247
     8 (A) A   8 (A) B    9 (A) A   12 (A) B     -0.0223
     8 (A) A   8 (A) B   10 (A) A   17 (A) B     -0.0172
     5 (A) A   8 (A) B   11 (A) A   10 (A) B     -0.0169
     8 (A) A             15 (A) A                -0.0149
     7 (A) A   8 (A) B   13 (A) A   10 (A) B      0.0143
     4 (A) A   8 (A) B   12 (A) A   10 (A) B     -0.0113
     6 (A) A   8 (A) A   10 (A) A   15 (A) A      0.0112
     7 (A) A   8 (A) B   22 (A) A   10 (A) B     -0.0109
     6 (A) A   8 (A) B   15 (A) A   10 (A) B     -0.0109
     4 (A) A   8 (A) A   10 (A) A   12 (A) A      0.0108
     7 (A) A   8 (A) A   10 (A) A   22 (A) A      0.0099
     7 (A) A   8 (A) A   10 (A) A   13 (A) A     -0.0098
     5 (A) A   8 (A) A   10 (A) A   11 (A) A      0.0097
     5 (A) A   8 (A) B   21 (A) A   10 (A) B     -0.0094
     6 (A) A   8 (A) B   10 (A) A   10 (A) B      0.0089
     6 (A) A   8 (A) A   10 (A) A   18 (A) A      0.0086
     7 (A) A   8 (A) A   12 (A) A   16 (A) A     -0.0084
     3 (A) A   4 (A) B   10 (A) A    9 (A) B      0.0080
     5 (A) A   8 (A) A   10 (A) A   21 (A) A      0.0079
     4 (A) A   8 (A) B   19 (A) A   10 (A) B      0.0076
     8 (A) A   8 (A) B    9 (A) A   23 (A) B     -0.0075
     8 (A) A   8 (A) B   10 (A) A   28 (A) B      0.0074
     5 (A) A   8 (A) B   10 (A) A   11 (A) B     -0.0072
     7 (A) A   8 (A) B   16 (A) A   12 (A) B      0.0072
     3 (A) A   8 (A) A   10 (A) A   24 (A) A      0.0072
     3 (A) A   8 (A) B   10 (A) A   10 (A) B     -0.0071
     8 (A) A   8 (A) B    9 (A) A   19 (A) B      0.0070
     3 (A) A   8 (A) B   10 (A) A   18 (A) B      0.0068
     6 (A) A   8 (A) B   18 (A) A   10 (A) B     -0.0065
     3 (A) A   6 (A) B   10 (A) A   28 (A) B      0.0062
     7 (A) A   8 (A) B   12 (A) A   11 (A) B     -0.0059
     6 (A) A             28 (A) A                -0.0058
     5 (A) A   8 (A) A   10 (A) A   16 (A) A     -0.0057
     3 (A) A   5 (A) B   10 (A) A   25 (A) B      0.0056
     6 (A) A   8 (A) A   11 (A) A   16 (A) A      0.0055
     4 (A) A   8 (A) A   10 (A) A   23 (A) A      0.0055
    -----------------------------------------------------

  Density matrix analysis:
  ------------------------
  NOs
    Occupation of frontier NOs:
       0.9812   0.9847
    Number of electrons: 16.000000
    Number of unpaired electrons: n_u =  2.28863, n_u,nl =  2.02504
    NO participation ratio (PR_NO):  2.701207
  
  
  Mulliken Population Analysis
  Atom      Charge (e)              h+              e-           Del q
  --------------------------------------------------------------------
   1 H       -0.154537        0.054314       -0.263874       -0.209560
   2 C        0.310173        0.538090       -0.117979        0.420111
   3 H       -0.155635        0.054390       -0.264946       -0.210556
   4 C        0.310165        0.538086       -0.117974        0.420112
   5 H       -0.155617        0.054391       -0.264928       -0.210537
   6 H       -0.154549        0.054314       -0.263884       -0.209570
  --------------------------------------------------------------------
  Sum:       -0.000000        1.293585       -1.293585        0.000000
  
  Multipole moment analysis of the density matrix
    Molecular charge:                      -0.000000
    Number of electrons:                   16.000000
      Center of electronic charge [Ang]: [ -1.561340,  -0.065288,   0.002128]
    Total nuclear charge:                  16.000000
      Center of nuclear charge [Ang]:    [ -1.561339,  -0.065287,   0.002127]
    Dipole moment [D]:                     0.000170
      Cartesian components [D]:          [  0.000093,   0.000136,  -0.000041]
    RMS size of the density [Ang]:         1.282117
      Cartesian components [Ang]:        [  0.858769,   0.844288,   0.439906]
  
  Exciton analysis of the difference density matrix
    <r_h> [Ang]:                  [ -1.561337,  -0.065288,   0.002122]
    <r_e> [Ang]:                  [ -1.561354,  -0.065309,   0.002135]
    |<r_e - r_h>| [Ang]:            0.000030
    Hole size [Ang]:                1.412899
      Cartesian components [Ang]: [  0.836976,   0.822250,   0.787184]
    Electron size [Ang]:            2.079245
      Cartesian components [Ang]: [  1.376399,   1.380827,   0.722565]

  Transition density matrix analysis:
  -----------------------------------
  
  CT numbers (Mulliken)
    omega =     0.9250
    <Phe> =    -0.0109
  
  Exciton analysis of the transition density matrix
    Trans. dipole moment [D]:             0.412374
      Cartesian components [D]:         [ -0.019537,  -0.025036,   0.411150]
    <r_h> [Ang]:                        [ -1.561334,  -0.065288,   0.002118]
    <r_e> [Ang]:                        [ -1.561359,  -0.065318,   0.002139]
    |<r_e - r_h>| [Ang]:                  0.000044
    Hole size [Ang]:                      1.212751
      Cartesian components [Ang]:       [  0.636941,   0.623078,   0.822706]
    Electron size [Ang]:                  2.301776
      Cartesian components [Ang]:       [  1.522551,   1.530261,   0.798942]
    RMS electron-hole separation [Ang]:   2.591619
      Cartesian components [Ang]:       [  1.642741,   1.645129,   1.145182]
    Covariance(r_h, r_e) [Ang^2]:         0.026224
    Correlation coefficient:              0.009394
    Center-of-mass size [Ang]:            1.305889
      Cartesian components [Ang]:       [  0.829023,   0.829669,   0.574209]

  Decomposition into state-averaged NTOs
    H- 0 -> L+ 1: -0.6794 ( 92.3%)
                   omega =  92.5%
  ----------------------------------------------------------------------------


  Excited state 4 (singlet, A)                                     [converged]
  ----------------------------------------------------------------------------
  Term symbol:  5 (1) A                                     R^2 =  5.62824e-13

  Total energy:                                            -77.9622609042 a.u.
  Excitation energy:                                               9.738161 eV

  Osc. strength:                                                      0.000000
  Trans. dip. moment [a.u.]:           [  -0.000165,    0.000154,    0.000007]
  <i|r^2|0> [a.u.]:                    [   0.013837,    0.017057,   -0.031827]
  Two-photon absorption cross-section (SoS) [a.u.]:                 134.687625
  Two-photon absorption matrix (SoS) [a.u.]:
                                       |    0.273458    0.312182   -2.821314 |
                                       |    0.312182    0.353164   -2.912491 |
                                       |   -2.821314   -2.912491   -0.626618 |
  Two-photon absorption cross-section [a.u.]:                        80.028317
  Two-photon absorption matrix [a.u.]:
                                       |    0.210698    0.240553   -2.165924 |
                                       |    0.240553    0.272509   -2.253527 |
                                       |   -2.165924   -2.253527   -0.483195 |

  Dip. moment [a.u.]:                  [  -0.000055,   -0.000047,   -0.000028]
  Total dipole [Debye]:                                               0.000196
  <r^2> [a.u.]:                        [ 181.595423,   40.912620,   10.786534]
  Total <r^2> [a.u.]:                                               233.294577

  V1^2 = 0.9633, V2^2 = 0.0367

  Important amplitudes:
      occ i     occ j     vir a      vir b          v   
    -----------------------------------------------------
     8 (A) A             11 (A) A                -0.6687
     7 (A) A              9 (A) A                 0.1533
     8 (A) A             21 (A) A                -0.0779
     8 (A) A             16 (A) A                 0.0674
     8 (A) A   8 (A) B    9 (A) A   13 (A) B      0.0167
     5 (A) A   8 (A) B   11 (A) A   11 (A) B     -0.0157
     7 (A) A             20 (A) A                 0.0140
     8 (A) A   8 (A) B   11 (A) A   17 (A) B     -0.0137
     7 (A) A   8 (A) B   13 (A) A   11 (A) B      0.0127
     4 (A) A   8 (A) B   12 (A) A   11 (A) B     -0.0110
     8 (A) A   8 (A) B    9 (A) A   22 (A) B     -0.0110
     5 (A) A   8 (A) A   11 (A) A   21 (A) A      0.0109
     7 (A) A   8 (A) A   11 (A) A   22 (A) A      0.0095
     6 (A) A   8 (A) B   10 (A) A   11 (A) B      0.0091
     6 (A) A   8 (A) B   15 (A) A   11 (A) B     -0.0089
     7 (A) A   8 (A) B   22 (A) A   11 (A) B     -0.0089
     3 (A) A   4 (A) B   11 (A) A    9 (A) B      0.0083
     8 (A) A             12 (A) A                -0.0082
     3 (A) A   8 (A) B   11 (A) A   18 (A) B      0.0080
     6 (A) A   8 (A) A   11 (A) A   15 (A) A      0.0079
     7 (A) A   8 (A) A   13 (A) A   16 (A) A      0.0079
     7 (A) A   8 (A) A   11 (A) A   13 (A) A     -0.0075
     4 (A) A   8 (A) B   19 (A) A   11 (A) B      0.0070
     5 (A) A   8 (A) B   21 (A) A   11 (A) B     -0.0069
     5 (A) A   8 (A) B    9 (A) A    9 (A) B     -0.0069
     4 (A) A   8 (A) A   11 (A) A   12 (A) A      0.0062
     3 (A) A   6 (A) B   11 (A) A   28 (A) B      0.0060
     6 (A) A   8 (A) A   11 (A) A   18 (A) A      0.0059
     6 (A) A   8 (A) B   18 (A) A   11 (A) B     -0.0058
     7 (A) A   8 (A) B   16 (A) A   13 (A) B     -0.0057
     3 (A) A   8 (A) B   11 (A) A   30 (A) B      0.0056
     5 (A) A   8 (A) B   10 (A) A   10 (A) B     -0.0055
     7 (A) A   8 (A) B   12 (A) A   10 (A) B     -0.0055
     8 (A) A   8 (A) B   20 (A) A   22 (A) B     -0.0055
     6 (A) A   8 (A) B   11 (A) A   10 (A) B      0.0055
     3 (A) A   5 (A) B   11 (A) A   25 (A) B      0.0054
     3 (A) A   8 (A) A   11 (A) A   18 (A) A      0.0054
     3 (A) A   8 (A) A   11 (A) A   24 (A) A      0.0053
     5 (A) A   8 (A) A   11 (A) A   16 (A) A     -0.0049
     6 (A) A   8 (A) A   10 (A) A   16 (A) A      0.0047
    -----------------------------------------------------

  Density matrix analysis:
  ------------------------
  NOs
    Occupation of frontier NOs:
       0.9387   1.0294
    Number of electrons: 16.000000
    Number of unpaired electrons: n_u =  2.32234, n_u,nl =  2.05103
    NO participation ratio (PR_NO):  2.932425
  
  
  Mulliken Population Analysis
  Atom      Charge (e)              h+              e-           Del q
  --------------------------------------------------------------------
   1 H       -0.127437        0.045569       -0.228029       -0.182460
   2 C        0.251131        0.495301       -0.134232        0.361069
   3 H       -0.123691        0.046426       -0.225038       -0.178612
   4 C        0.251116        0.495301       -0.134237        0.361063
   5 H       -0.123705        0.046426       -0.225052       -0.178625
   6 H       -0.127414        0.045570       -0.228005       -0.182435
  --------------------------------------------------------------------
  Sum:       -0.000000        1.174593       -1.174593        0.000000
  
  Multipole moment analysis of the density matrix
    Molecular charge:                      -0.000000
    Number of electrons:                   16.000000
      Center of electronic charge [Ang]: [ -1.561337,  -0.065285,   0.002128]
    Total nuclear charge:                  16.000000
      Center of nuclear charge [Ang]:    [ -1.561339,  -0.065287,   0.002127]
    Dipole moment [D]:                     0.000196
      Cartesian components [D]:          [ -0.000139,  -0.000120,  -0.000070]
    RMS size of the density [Ang]:         1.281028
      Cartesian components [Ang]:        [  0.860506,   0.843672,   0.434487]
  
  Exciton analysis of the difference density matrix
    <r_h> [Ang]:                  [ -1.561337,  -0.065285,   0.002122]
    <r_e> [Ang]:                  [ -1.561314,  -0.065263,   0.002141]
    |<r_e - r_h>| [Ang]:            0.000037
    Hole size [Ang]:                1.394907
      Cartesian components [Ang]: [  0.818872,   0.806989,   0.789925]
    Electron size [Ang]:            2.114340
      Cartesian components [Ang]: [  1.423426,   1.411489,   0.672305]

  Transition density matrix analysis:
  -----------------------------------
  
  CT numbers (Mulliken)
    omega =     0.9293
    <Phe> =    -0.0146
  
  Exciton analysis of the transition density matrix
    Trans. dipole moment [D]:             0.000286
      Cartesian components [D]:         [ -0.000209,   0.000195,   0.000009]
    <r_h> [Ang]:                        [ -1.561338,  -0.065286,   0.002119]
    <r_e> [Ang]:                        [ -1.561311,  -0.065257,   0.002144]
    |<r_e - r_h>| [Ang]:                  0.000047
    Hole size [Ang]:                      1.229138
      Cartesian components [Ang]:       [  0.660632,   0.650835,   0.806697]
    Electron size [Ang]:                  2.247937
      Cartesian components [Ang]:       [  1.513331,   1.501678,   0.712749]
    RMS electron-hole separation [Ang]:   2.550895
      Cartesian components [Ang]:       [  1.642381,   1.628473,   1.075976]
    Covariance(r_h, r_e) [Ang^2]:         0.028468
    Correlation coefficient:              0.010303
    Center-of-mass size [Ang]:            1.286559
      Cartesian components [Ang]:       [  0.830029,   0.822393,   0.538474]

  Decomposition into state-averaged NTOs
    H- 0 -> L+ 2:  0.6641 ( 88.2%)
    H- 1 -> L+ 0:  0.1512 (  4.6%)
                   omega =  92.9%
  ----------------------------------------------------------------------------


  Excited state 5 (singlet, A)                                     [converged]
  ----------------------------------------------------------------------------
  Term symbol:  6 (1) A                                     R^2 =  1.56359e-13

  Total energy:                                            -77.9468085896 a.u.
  Excitation energy:                                              10.158640 eV

  Osc. strength:                                                      0.000000
  Trans. dip. moment [a.u.]:           [  -0.000032,   -0.000023,    0.000001]
  <i|r^2|0> [a.u.]:                    [   0.081715,   -0.096098,    0.014271]
  Two-photon absorption cross-section (SoS) [a.u.]:                 223.741475
  Two-photon absorption matrix (SoS) [a.u.]:
                                       |    0.367309    0.054764   -3.815300 |
                                       |    0.054764   -0.438981    3.638909 |
                                       |   -3.815300    3.638909    0.073498 |
  Two-photon absorption cross-section [a.u.]:                       115.691802
  Two-photon absorption matrix [a.u.]:
                                       |    0.264205    0.039129   -2.737155 |
                                       |    0.039129   -0.315747    2.623301 |
                                       |   -2.737155    2.623301    0.054116 |

  Dip. moment [a.u.]:                  [   0.000036,   -0.000055,   -0.000000]
  Total dipole [Debye]:                                               0.000166
  <r^2> [a.u.]:                        [ 180.340119,   39.792588,   11.598969]
  Total <r^2> [a.u.]:                                               231.731676

  V1^2 = 0.9554, V2^2 = 0.0446

  Important amplitudes:
      occ i     occ j     vir a      vir b          v   
    -----------------------------------------------------
[...]
    16   -1.440486656995e-03
    17   -1.725100908393e-03
    18   -9.526047622518e-05
    19   -2.917659626352e-03
    20    1.149737991315e-02
    21    9.253862977088e-01
    22   -4.465007635716e-04
    23    1.363184653256e-02
    24    8.039879495437e-04
    25    7.035101445545e-02
    26   -5.224073372812e-02
    27   -1.383701229626e+00
    28    9.947230658571e-02
    29   -9.521833710854e-02
    30   -1.012576332983e-03
    31    3.852797334474e-01
    32   -3.653447439202e-01
    33   -3.712997816343e-03
    34    1.506833961127e-02
    35   -1.438164270328e-03
    36   -1.723906316150e-03
    37   -9.509684037899e-05
    38   -2.916985419707e-03
    39    1.149302815862e-02
    40    9.253832741700e-01
    41    4.462063746521e-04
    42   -1.363162855966e-02
    43   -8.035328261266e-04
    44    1.151783672336e-02
    45    9.302352591154e-01
    46    1.384404981981e-02
    47    1.374784722868e-04
    48    6.708878988673e-04
Sym=X
Ene= 0.231046
Spin=Alpha
Occup=0
     1    3.002839610878e-02
     2    1.185633151006e+00
     3   -1.311877030830e-02
     4   -3.723502141763e-03
     5   -8.551337237513e-04
     6    1.457433121095e-03
     7   -1.964752976244e-03
     8   -1.963704577780e-02
     9   -1.550291590991e-01
    10   -1.621232542366e-01
    11   -1.725336309149e-02
    12   -5.377190592214e-01
    13   -5.504946197837e-01
    14   -5.913608949121e-02
    15    1.695305742916e-04
    16    4.905220117341e-05
    17   -1.030113336340e-04
    18    1.392264149911e-03
    19   -9.206880903288e-05
    20   -2.973007836479e-02
    21   -1.150950526708e+00
    22   -2.646467322541e-03
    23   -1.293558771329e-02
    24   -9.099276694161e-04
    25   -1.456012363343e-03
    26    1.963554249354e-03
    27    1.960157432267e-02
    28   -1.550269999281e-01
    29   -1.621290169950e-01
    30   -1.722538408615e-02
    31   -5.376798511672e-01
    32   -5.504860235182e-01
    33   -5.902184105051e-02
    34   -1.695110802979e-04
    35   -5.072341925385e-05
    36    1.038349378918e-04
    37   -1.390864815596e-03
    38    9.218420497952e-05
    39    2.973025519702e-02
    40    1.150932938114e+00
    41   -2.646295662126e-03
    42   -1.293578069122e-02
    43   -9.084354056185e-04
    44   -3.002824790649e-02
    45   -1.185570172462e+00
    46   -1.311841817501e-02
    47   -3.723284639589e-03
    48   -8.534725344229e-04
Sym=X
Ene= 0.236441
Spin=Alpha
Occup=0
     1   -1.890902125517e-02
     2   -1.054882591168e+00
     3    1.571795652914e-02
     4    9.135501401136e-03
     5    1.306316816583e-03
     6   -8.711078261109e-02
     7    8.230918121600e-02
     8    1.544890017019e+00
     9    5.619904269356e-02
    10   -5.874576144560e-02
    11   -8.573209967760e-04
    12    2.328615803971e-01
    13   -2.393616872912e-01
    14   -3.292221412525e-03
    15   -2.128214134721e-02
    16    2.511630755745e-03
    17    2.871186993213e-03
    18   -5.022572888739e-04
    19    1.241651270488e-02
    20   -1.968824318836e-02
    21   -1.089190221694e+00
    22   -8.464407221641e-03
    23   -1.649486902305e-02
    24   -1.403901473315e-03
    25    8.710949998723e-02
    26   -8.230573381449e-02
    27   -1.544881717394e+00
    28    5.620006081691e-02
    29   -5.874810329218e-02
    30   -8.713418456610e-04
    31    2.328604836219e-01
    32   -2.393836677882e-01
    33   -3.349822518239e-03
    34    2.128220662739e-02
    35   -2.509317459337e-03
    36   -2.871475882017e-03
    37    5.032947402758e-04
    38   -1.241608440783e-02
    39    1.968776864830e-02
    40    1.089205222407e+00
    41   -8.464878403419e-03
    42   -1.649517587995e-02
    43   -1.404381359279e-03
    44    1.890787439906e-02
    45    1.054854464780e+00
    46    1.571723539013e-02
    47    9.136473140630e-03
    48    1.304970328036e-03
Sym=X
Ene= 0.302959
Spin=Alpha
Occup=0
     1   -2.159313584241e-02
     2    1.661635408034e+00
     3   -2.354010549401e-02
     4    3.294333640805e-04
     5   -1.112007853944e-03
     6   -2.727083959627e-05
     7    1.959862183678e-04
     8   -6.871705529071e-03
     9   -1.360457507228e-01
    10   -1.422495007103e-01
    11   -1.513456362517e-02
    12   -1.126129833843e+00
    13   -1.182089954115e+00
    14   -1.255189426840e-01
    15    6.347365515734e-05
    16   -1.753597600690e-03
    17    1.964121039039e-03
    18   -3.407057398700e-02
    19   -1.890967591506e-03
    20    2.053895837220e-02
    21   -1.653940482434e+00
    22    1.674940599562e-03
    23   -2.340823956634e-02
    24   -1.333380770239e-03
    25   -2.564341892212e-05
    26    1.966040540674e-04
    27   -6.936456852850e-03
    28    1.360507101990e-01
    29    1.422540664959e-01
    30    1.512028607822e-02
    31    1.126102538337e+00
    32    1.182107397462e+00
    33    1.254699336074e-01
    34    6.498262479074e-05
    35   -1.750733829138e-03
    36    1.965447559604e-03
    37   -3.406909885591e-02
    38   -1.891849601849e-03
    39    2.053501269454e-02
    40   -1.653935199511e+00
    41   -1.675945870299e-03
    42    2.340769092580e-02
    43    1.332908006159e-03
    44   -2.158820919069e-02
    45    1.661663268469e+00
    46    2.354074157428e-02
    47   -3.297625648122e-04
    48    1.110278335290e-03
Sym=X
Ene= 0.462770
Spin=Alpha
Occup=0
     1   -1.112221360069e-01
     2   -7.069193615753e-01
     3   -1.476432077386e-02
     4   -1.070433956993e-02
     5   -1.356873623963e-03
     6    6.251790110017e-02
     7    1.658663228555e-02
     8   -3.641042779221e+00
     9    1.041070209044e-01
    10   -9.934675416021e-02
    11   -1.025190242382e-03
    12    2.439147825527e+00
    13   -2.304751761914e+00
    14   -2.190417179306e-02
    15    5.296612762782e-02
    16   -3.246903860767e-03
    17   -4.560183739212e-03
    18   -7.189857239687e-04
    19    2.013530961566e-02
    20   -1.175821383991e-01
    21   -6.906388911878e-01
    22    9.129741954593e-03
    23    1.564552558643e-02
    24    1.384078067449e-03
    25   -6.251898360209e-02
    26   -1.657938937801e-02
    27    3.641048251174e+00
    28    1.041207911917e-01
    29   -9.935570561885e-02
    30   -1.032979287538e-03
    31    2.439128124398e+00
    32   -2.304716810023e+00
    33   -2.193808569780e-02
    34   -5.296130861740e-02
    35    3.242413681999e-03
    36    4.554037806625e-03
    37    7.182707929417e-04
    38   -2.014148216546e-02
    39    1.175463589257e-01
    40    6.906725347975e-01
    41    9.128900193932e-03
    42    1.564473399977e-02
    43    1.382046864445e-03
    44    1.111927208789e-01
    45    7.069424996120e-01
    46   -1.476304844249e-02
    47   -1.070211889576e-02
    48   -1.355394203438e-03
Sym=X
Ene= 0.579809
Spin=Alpha
Occup=0
     1    2.351152183735e-01
     2    5.415051019819e-02
     3   -2.224248343613e-02
     4    2.682092496549e-02
     5    5.524927194072e-04
     6   -6.250986147573e-03
     7   -1.690032648961e-01
     8   -4.173543101813e-01
     9    3.042991897646e-01
    10   -2.915268825904e-01
    11   -2.977158092947e-03
    12   -7.453299155526e-01
    13    7.135744393571e-01
    14    7.325831516874e-03
    15   -1.983793622374e-03
    16    3.576541881666e-03
    17    3.367796213419e-03
    18   -4.456330266748e-03
    19    5.971774098940e-02
    20    2.404425071786e-01
    21    4.149069989213e-02
    22   -2.823255655078e-02
    23    2.047905357822e-02
    24   -1.185270041407e-04
    25   -6.258842888583e-03
    26   -1.690074935017e-01
    27   -4.169912174446e-01
    28   -3.042901085638e-01
    29    2.915094081449e-01
    30    2.975005361806e-03
    31    7.456000629779e-01
    32   -7.137979228003e-01
    33   -7.333900463349e-03
    34   -1.983464173979e-03
    35    3.576545260095e-03
    36    3.367296595971e-03
    37   -4.450686227887e-03
    38    5.971788610723e-02
    39    2.404048165377e-01
    40    4.161873107782e-02
    41    2.823875224487e-02
    42   -2.048389471091e-02
    43    1.175864130795e-04
    44    2.351327452581e-01
    45    5.423992787849e-02
    46    2.224208231223e-02
    47   -2.682197341962e-02
    48   -5.531939020409e-04
Sym=X
Ene= 0.608868
Spin=Alpha
Occup=0
     1   -5.239032871395e-01
     2    2.396219812820e-01
     3   -5.992848115830e-02
     4    3.658665957980e-02
     5   -6.666199238333e-04
     6   -4.019268701522e-04
     7   -1.148915556528e-04
     8   -2.395115918975e-02
     9   -3.705288321977e-02
    10   -3.618269626057e-02
    11   -3.962083467435e-03
    12    2.835502098729e-01
    13    2.536359915159e-01
    14    2.897238922682e-02
    15    1.488017863462e-03
    16   -7.657964001271e-03
    17    8.513857916523e-03
    18   -1.486332437551e-01
    19   -6.716877078061e-03
    20    5.147511730624e-01
    21   -2.505793481593e-01
    22    4.050549225567e-02
    23   -5.709001593919e-02
    24   -1.503062031627e-03
    25    4.011329361767e-04
    26    1.144191224945e-04
    27    2.399672581982e-02
    28   -3.704298828002e-02
    29   -3.619484902027e-02
    30   -3.970705876576e-03
    31    2.835212426295e-01
    32    2.536963956062e-01
    33    2.891387211134e-02
    34   -1.486307944347e-03
    35    7.650865836532e-03
    36   -8.519507229909e-03
    37    1.486417145998e-01
    38    6.715582216707e-03
    39   -5.147984347372e-01
    40    2.506153800600e-01
    41    4.050038591671e-02
    42   -5.709041398304e-02
    43   -1.507089676635e-03
    44    5.238999918918e-01
    45   -2.396625887467e-01
    46   -5.993003730761e-02
    47    3.658719256747e-02
    48   -6.665149754627e-04
Sym=X
Ene= 0.688652
Spin=Alpha
Occup=0
     1    5.184948865974e-05
     2    4.450898321957e-05
     3    9.123378495623e-04
     4    1.155636819279e-03
     5   -1.899322932804e-02
     6    2.758282942973e-06
     7   -6.810107591134e-06
     8    7.101008814985e-05
     9    3.221879536520e-02
    10    4.052958869990e-02
    11   -6.706336918273e-01
    12   -2.957278763285e-02
    13   -3.690437953664e-02
    14    6.126559683941e-01
    15   -1.290240774959e-03
    16    8.281135909713e-02
    17   -7.814204032883e-02
    18   -8.694939167931e-03
    19   -1.227919478331e-03
    20    4.546814714782e-05
    21    6.961263931763e-05
    22    8.891862106410e-04
    23    1.125977315698e-03
    24   -1.860073735882e-02
    25   -9.241486412988e-07
    26    3.632752146634e-05
    27   -9.251219086280e-05
    28    3.220071765516e-02
    29    4.049520127882e-02
    30   -6.706356717559e-01
    31   -2.954433219029e-02
    32   -3.686425590857e-02
    33    6.126573428277e-01
    34    1.279231636239e-03
    35   -8.281015286960e-02
    36    7.814328045622e-02
    37    8.703975094910e-03
    38    1.232510231096e-03
    39   -2.546856957119e-05
    40   -6.188692229147e-05
    41    8.870250610175e-04
    42    1.130810778997e-03
    43   -1.860038934242e-02
    44   -2.082094036754e-05
    45   -8.863034185317e-05
    46    9.021511576294e-04
    47    1.148970435682e-03
    48   -1.899391767639e-02
Sym=X
Ene= 0.704763
Spin=Alpha
Occup=0
     1   -4.867498061480e-01
     2    1.649082991996e-01
     3   -7.866050808537e-02
     4   -4.415107958068e-02
     5   -6.453235012398e-03
     6   -4.595730132989e-02
     7   -3.013108097915e-01
     8    4.636825220004e-01
     9    1.963484687149e-01
    10   -1.856131400639e-01
    11   -1.800472684950e-03
    12   -6.096644030935e-02
    13    5.153770552269e-02
    14    1.166638898063e-04
    15    1.911462985195e-01
    16   -2.050426898501e-02
    17   -2.402234789886e-02
    18    3.188219900581e-03
    19   -7.664776870400e-02
    20   -4.891210245956e-01
    21    1.628012573949e-01
    22    4.057461157779e-02
    23    7.970857193773e-02
    24    6.759593987071e-03
    25   -4.595168560371e-02
    26   -3.013114331519e-01
    27    4.633909401856e-01
    28   -1.963487382571e-01
    29    1.856133159063e-01
    30    1.760656646754e-03
    31    6.076692380327e-02
    32   -5.136738577010e-02
    33   -7.135942471702e-05
    34    1.911491348944e-01
    35   -2.049457631616e-02
    36   -2.401088146582e-02
    37    3.184258710813e-03
    38   -7.663795656693e-02
    39   -4.890964051344e-01
    40    1.627304373654e-01
    41   -4.057361192995e-02
    42   -7.970601123417e-02
    43   -6.756995671936e-03
    44   -4.867531117273e-01
    45    1.648473933305e-01
    46    7.866105469250e-02
    47    4.415009678419e-02
    48    6.447893702059e-03
Sym=X
Ene= 0.775743
Spin=Alpha
Occup=0
     1    5.339682869588e-01
     2   -4.748061980944e-01
     3    1.067439751061e-01
     4    2.645425850839e-02
     5    6.728967791120e-03
     6    8.893161072537e-02
     7   -2.266951443046e-01
     8   -5.668435750455e-01
     9    1.055681312710e-01
    10   -9.609318974444e-02
    11   -6.937511756669e-04
    12    2.933259482938e-01
    13   -2.806580414490e-01
    14   -2.892648810173e-03
    15   -2.032198772051e-01
    16    1.738142603345e-02
    17    2.188566057084e-02
    18   -1.906771913735e-03
    19    7.587900563063e-03
    20    5.434563475042e-01
    21   -4.867208944990e-01
    22   -2.086888750080e-02
    23   -1.098779756206e-01
    24   -7.641529032078e-03
    25   -8.893278201220e-02
    26    2.266968803836e-01
    27    5.668992238060e-01
    28    1.055822590235e-01
    29   -9.609009127429e-02
    30   -7.263097205199e-04
    31    2.932694082300e-01
    32   -2.806380480743e-01
    33   -2.819418768503e-03
    34    2.032266603663e-01
    35   -1.735797015669e-02
    36   -2.187365178531e-02
    37    1.911218687160e-03
    38   -7.586772064347e-03
    39   -5.434867705739e-01
    40    4.867251244849e-01
    41   -2.087019180056e-02
    42   -1.098805011066e-01
    43   -7.636520376905e-03
    44   -5.339905302221e-01
    45    4.747808371927e-01
    46    1.067403505912e-01
    47    2.645884170566e-02
    48    6.723105173104e-03
Sym=X
Ene= 0.807405
Spin=Alpha
Occup=0
     1    1.069939616108e-05
     2    3.113120045916e-05
     3    1.496556429369e-03
     4    1.890483158970e-03
     5   -3.131383965632e-02
     6    3.830218277345e-06
     7   -3.953127121872e-05
     8    2.016674902446e-05
     9    3.675054964095e-02
    10    4.617145791548e-02
    11   -7.642410703997e-01
    12   -5.406603540080e-02
    13   -6.793707795778e-02
    14    1.124362113373e+00
    15    1.014789863950e-03
    16   -6.553157517659e-02
    17    6.186811378109e-02
    18    6.876282857498e-03
    19    9.741280680633e-04
    20    1.320219319334e-05
    21   -4.090251035614e-05
    22    1.510922247570e-03
    23    1.905434333963e-03
    24   -3.154267199199e-02
    25   -1.196271753170e-07
    26   -3.144248196245e-05
    27    1.569442980760e-05
    28   -3.668546781983e-02
    29   -4.613753312909e-02
    30    7.642478885122e-01
    31    5.398902071188e-02
    32    6.785090132178e-02
    33   -1.124371211192e+00
    34    1.028275517492e-03
    35   -6.553121039080e-02
    36    6.186570528740e-02
    37    6.895469749990e-03
    38    9.795461016042e-04
    39   -9.258366530407e-06
    40    6.228925237752e-05
    41   -1.512926572636e-03
    42   -1.921723358694e-03
    43    3.153910995448e-02
    44   -7.632245969198e-06
    45   -1.307970386701e-05
    46   -1.495131399471e-03
    47   -1.897807394650e-03
    48    3.131247145954e-02
Sym=X
Ene= 0.858423
Spin=Alpha
Occup=0
     1    1.601168004835e-02
     2   -1.073650850563e+00
     3    1.466638776194e-01
     4    5.560750380044e-02
     5    1.039857139887e-02
     6    6.343399479482e-04
     7   -1.544852786374e-03
     8    3.887959612578e-03
     9   -4.087750310660e-01
    10   -4.358089059044e-01
    11   -4.600026383477e-02
    12    9.323197755901e-01
    13    9.905203159242e-01
    14    1.047026722903e-01
    15   -1.982509960153e-03
    16    1.181372783151e-02
    17   -1.326106224325e-02
    18    2.304687168966e-01
    19    9.891875921692e-03
    20   -1.253574598150e-02
    21    1.077713071658e+00
    22    4.904979445627e-02
    23    1.485817021383e-01
    24    1.134176978133e-02
    25   -6.339540214534e-04
    26    1.549254879277e-03
    27   -3.887477192993e-03
    28   -4.087867473717e-01
    29   -4.358286903787e-01
    30   -4.592085556447e-02
    31    9.323375441741e-01
    32    9.905699012319e-01
    33    1.045297355476e-01
    34    1.981250161951e-03
    35   -1.181309842802e-02
    36    1.326275577261e-02
    37   -2.304760503700e-01
    38   -9.896197330054e-03
    39    1.253117227351e-02
    40   -1.077719973660e+00
    41    4.904120812856e-02
    42    1.485861319772e-01
    43    1.133830818767e-02
    44   -1.600555744022e-02
    45    1.073655190829e+00
    46    1.466687509757e-01
    47    5.560293989623e-02
    48    1.039061462668e-02
Sym=X
Ene= 0.927998
Spin=Alpha
Occup=0
     1   -1.406418889097e-01
     2    1.227238126591e+00
     3   -1.815750887480e-01
     4    6.820761460168e-03
     5   -8.319384223315e-03
     6   -1.608846099507e-04
     7   -8.461757974327e-03
     8    1.082554663379e-02
     9    4.722886661331e-01
    10    5.001386427465e-01
    11    5.290750906126e-02
    12   -1.381773445888e+00
    13   -1.455390444854e+00
    14   -1.543158341650e-01
    15    3.639123193550e-05
    16   -6.288160111437e-03
    17    7.408428913707e-03
    18   -1.257373446508e-01
    19   -4.003764404894e-03
    20    1.428380906352e-01
    21   -1.235076708731e+00
    22    1.406161726870e-02
    23   -1.832273718399e-01
    24   -1.039070934630e-02
    25   -1.612292717197e-04
    26   -8.452329102122e-03
    27    1.083298846989e-02
    28   -4.722908785123e-01
    29   -5.001258243272e-01
    30   -5.288292549542e-02
    31    1.381776857552e+00
    32    1.455333209798e+00
    33    1.542452428244e-01
    34    4.085199880213e-05
    35   -6.269894305159e-03
    36    7.403599736220e-03
    37   -1.257332667792e-01
    38   -4.016761070367e-03
    39    1.428320055297e-01
    40   -1.235023040909e+00
    41   -1.407182623507e-02
    42    1.832186019866e-01
    43    1.038576404211e-02
    44   -1.406521896863e-01
    45    1.227249588541e+00
    46    1.815761402166e-01
    47   -6.821857907486e-03
    48    8.307488140930e-03
Sym=X
Ene= 0.970592
Spin=Alpha
Occup=0
     1   -6.139090862211e-02
     2    9.045897597130e-01
     3   -8.881522580730e-02
     4   -9.626039152058e-02
     5   -1.007205901536e-02
     6    2.706794448997e-02
     7    2.529041520651e-01
     8    5.138992118198e-01
     9    4.847467738325e-01
    10   -4.570629780834e-01
    11   -4.318795886521e-03
    12   -1.480579043447e+00
    13    1.394485076285e+00
    14    1.308139921709e-02
    15   -5.792150185843e-02
    16   -1.245854514160e-02
    17   -9.099599337195e-03
    18    1.376986005857e-02
    19   -2.964325614068e-01
    20   -5.810334356776e-02
    21    8.888260560584e-01
    22    9.248540717893e-02
    23    9.111540926406e-02
    24    9.956632255464e-03
    25   -2.706723800900e-02
    26   -2.528363361916e-01
    27   -5.140084600985e-01
    28    4.847322163908e-01
    29   -4.570699292641e-01
    30   -4.339817199330e-03
    31   -1.480528920230e+00
    32    1.394541947335e+00
    33    1.314202687429e-02
    34    5.791654882816e-02
    35    1.245772533649e-02
    36    9.102008192738e-03
    37   -1.377358379849e-02
    38    2.964197024957e-01
    39    5.810260823019e-02
    40   -8.888366461272e-01
    41    9.247973187453e-02
    42    9.111728958707e-02
    43    9.958569351071e-03
    44    6.139929845479e-02
    45   -9.045166157451e-01
    46   -8.880623998842e-02
    47   -9.625774501549e-02
    48   -1.006538232811e-02
[5D]

======= END OF MOLDEN-FORMATTED INPUT FILE =======


        *************************************************************
        *                                                           *
        *  Thank you very much for using Q-Chem.  Have a nice day.  *
        *                                                           *
        *************************************************************


