                  Welcome to Q-Chem
     A Quantum Leap Into The Future Of Chemistry


 Q-Chem 5.4 (devel), Q-Chem, Inc., Pleasanton, CA (2021)

 E. Epifanovsky,  A. T. B. Gilbert,  Xintian Feng,  Joonho Lee,  Yuezhi Mao,  
 N. Mardirossian,  P. Pokhilko,  A. White,  M. Wormit,  M. P. Coons,  
 A. L. Dempwolff,  Zhengting Gan,  D. Hait,  P. R. Horn,  L. D. Jacobson,  
 I. Kaliman,  J. Kussmann,  A. W. Lange,  Ka Un Lao,  D. S. Levine,  Jie Liu,  
 S. C. McKenzie,  A. F. Morrison,  K. Nanda,  F. Plasser,  D. R. Rehn,  
 M. L. Vidal,  Zhi-Qiang You,  Ying Zhu,  B. Alam,  B. Albrecht,  
 A. Aldossary,  E. Alguire,  J. H. Andersen,  D. Barton,  K. Begam,  A. Behn,  
 Y. A. Bernard,  E. J. Berquist,  H. Burton,  A. Carreras,  K. Carter-Fenk,  
 R. Chakraborty,  A. D. Chien,  K. D. Closser,  V. Cofer-Shabica,  
 S. Dasgupta,  Jia Deng,  M. de Wergifosse,  M. Diedenhofen,  Hainam Do,  
 S. Ehlert,  Po-Tung Fang,  S. Fatehi,  Qingguo Feng,  T. Friedhoff,  
 J. Gayvert,  Qinghui Ge,  G. Gidofalvi,  M. Goldey,  J. Gomes,  
 C. Gonzalez-Espinoza,  S. Gulania,  A. Gunina,  M. W. D. Hanson-Heine,  
 P. H. P. Harbach,  A. W. Hauser,  M. F. Herbst,  M. Hernandez Vera,  
 M. Hodecker,  Z. C. Holden,  S. Houck,  Xunkun Huang,  Kerwin Hui,  
 B. C. Huynh,  M. Ivanov,  Hyunjun Ji,  Hanjie Jiang,  B. Kaduk,  S. Kaehler,  
 K. Khistyaev,  Jaehoon Kim,  P. Klunzinger,  Z. Koczor-Benda,  
 Joong Hoon Koh,  D. Kosenkov,  L. Koulias,  T. Kowalczyk,  C. M. Krauter,  
 K. Kue,  A. Kunitsa,  T. Kus,  A. Landau,  K. V. Lawler,  D. Lefrancois,  
 S. Lehtola,  Rain Li,  Yi-Pei Li,  Jiashu Liang,  M. Liebenthal,  
 Hung-Hsuan Lin,  You-Sheng Lin,  Fenglai Liu,  Kuan-Yu Liu,  
 M. Loipersberger,  A. Luenser,  A. Manjanath,  P. Manohar,  E. Mansoor,  
 S. F. Manzer,  Shan-Ping Mao,  A. V. Marenich,  T. Markovich,  S. Mason,  
 S. A. Maurer,  P. F. McLaughlin,  M. F. S. J. Menger,  J.-M. Mewes,  
 S. A. Mewes,  P. Morgante,  J. W. Mullinax,  K. J. Oosterbaan,  G. Paran,  
 Alexander C. Paul,  Suranjan K. Paul,  F. Pavosevic,  Zheng Pei,  S. Prager,  
 E. I. Proynov,  E. Ramos,  B. Rana,  A. E. Rask,  A. Rettig,  R. M. Richard,  
 F. Rob,  E. Rossomme,  T. Scheele,  M. Scheurer,  M. Schneider,  
 N. Sergueev,  S. M. Sharada,  W. Skomorowski,  D. W. Small,  C. J. Stein,  
 Yu-Chuan Su,  E. J. Sundstrom,  Zhen Tao,  J. Thirman,  T. Tsuchimochi,  
 N. M. Tubman,  S. P. Veccham,  O. Vydrov,  J. Wenzel,  J. Witte,  A. Yamada,  
 Kun Yao,  S. Yeganeh,  S. R. Yost,  A. Zech,  Igor Ying Zhang,  Xing Zhang,  
 Yu Zhang,  D. Zuev,  A. Aspuru-Guzik,  A. T. Bell,  N. A. Besley,  
 K. B. Bravaya,  B. R. Brooks,  D. Casanova,  Jeng-Da Chai,  S. Coriani,  
 C. J. Cramer,  A. E. DePrince, III,  R. A. DiStasio Jr.,  A. Dreuw,  
 B. D. Dunietz,  T. R. Furlani,  W. A. Goddard III,  S. Grimme,  
 S. Hammes-Schiffer,  T. Head-Gordon,  W. J. Hehre,  Chao-Ping Hsu,  
 T.-C. Jagau,  Yousung Jung,  A. Klamt,  Jing Kong,  D. S. Lambrecht,  
 WanZhen Liang,  N. J. Mayhall,  C. W. McCurdy,  J. B. Neaton,  
 C. Ochsenfeld,  J. A. Parkhill,  R. Peverati,  V. A. Rassolov,  Yihan Shao,  
 L. V. Slipchenko,  T. Stauch,  R. P. Steele,  J. E. Subotnik,  
 A. J. W. Thom,  A. Tkatchenko,  D. G. Truhlar,  T. Van Voorhis,  
 T. A. Wesolowski,  K. B. Whaley,  H. L. Woodcock III,  P. M. Zimmerman,  
 S. Faraji,  P. M. W. Gill,  M. Head-Gordon,  J. M. Herbert,  A. I. Krylov

 Additional authors for Version 5.4.1: 
 S. Kotaru,  Shaozhi Li,  Xiangyuan Li,  F. Matz,  A. Molle,  Haisheng Ren,  
 Yingli Su,  Hung-Yi Tsai,  C. Utku,  Fang Wang

 Contributors to earlier versions of Q-Chem not listed above: 
 R. D. Adamson,  B. Austin,  R. Baer,  J. Baker,  G. J. O. Beran,  
 K. Brandhorst,  S. T. Brown,  E. F. C. Byrd,  A. K. Chakraborty,  
 G. K. L. Chan,  Chun-Min Chang,  Yunqing Chen,  C.-L. Cheng,  
 Siu Hung Chien,  D. M. Chipman,  D. L. Crittenden,  H. Dachsel,  
 R. J. Doerksen,  A. D. Dutoi,  R. G. Edgar,  J. Fosso-Tande,  
 L. Fusti-Molnar,  D. Ghosh,  A. Ghysels,  A. Golubeva-Zadorozhnaya,  
 J. Gonthier,  M. S. Gordon,  S. R. Gwaltney,  G. Hawkins,  J. E. Herr,  
 A. Heyden,  S. Hirata,  E. G. Hohenstein,  G. Kedziora,  F. J. Keil,  
 C. Kelley,  Jihan Kim,  R. A. King,  R. Z. Khaliullin,  P. P. Korambath,  
 W. Kurlancheek,  A. Laurent,  A. M. Lee,  M. S. Lee,  S. V. Levchenko,  
 Ching Yeh Lin,  D. Liotard,  E. Livshits,  R. C. Lochan,  I. Lotan,  
 L. A. Martinez-Martinez,  P. E. Maslen,  N. Nair,  D. P. O'Neill,  
 D. Neuhauser,  E. Neuscamman,  C. M. Oana,  R. Olivares-Amaya,  R. Olson,  
 T. M. Perrine,  B. Peters,  P. A. Pieniazek,  A. Prociuk,  Y. M. Rhee,  
 J. Ritchie,  M. A. Rohrdanz,  E. Rosta,  N. J. Russ,  H. F. Schaefer III,  
 M. W. Schmidt,  N. E. Schultz,  S. Sharma,  N. Shenvi,  C. D. Sherrill,  
 A. C. Simmonett,  A. Sodt,  T. Stein,  D. Stuck,  K. S. Thanthiriwatte,  
 V. Vanovschi,  L. Vogt,  Tao Wang,  A. Warshel,  M. A. Watson,  
 C. F. Williams,  Q. Wu,  X. Xu,  Jun Yang,  W. Zhang,  Yan Zhao

 Please cite Q-Chem as follows:
 Y. Shao et al., Mol. Phys. 113, 184-215 (2015)
 DOI: 10.1080/00268976.2014.952696

 Q-Chem 5.4.1 for Intel X86 EM64T Linux

 Parts of Q-Chem use Armadillo 9.800.1 (Horizon Scraper).
 http://arma.sourceforge.net/

 Q-Chem begins on Thu Nov 17 00:22:07 2022  

 Host: cpu318.baobab
0

     Scratch files written to /scratch/fum/qchem75790//
 Processing $rem in /home/share/wesolowski/qc5.aug2021.FDE/config/preferences:
 Processing $rem in /home/fum/.qchemrc:

 Checking the input file for inconsistencies... 	...done.

--------------------------------------------------------------
User input:
--------------------------------------------------------------
$comment
generated from CCJob.Templates
$end

$rem
sym_ignore = true
method = adc(2)
ee_states = 10
basis = cc-pVDZ
mem_static = 1024
mem_total = 30000
adc_davidson_maxiter = 900
adc_davidson_conv = 6
adc_print = 3
adc_prop_es = true
adc_prop_es2es = true
adc_prop_tpa = true
molden_format = True
state_analysis = true
print_orbitals = 15
gen_scfman = false
fde_export_density = true
fde_details = 3
$end

$molecule
0 1
H -0.0348278765 -0.2442097827 0.0636489606
C -1.0765972949 -0.5242748755 -0.0023551776
H -1.313264467 -1.5767591607 -0.0757276926
C -2.043634118 0.3926884087 0.0061254933
H -1.8137616575 1.4459188338 0.0804456828
H -3.080977293 0.114931858 -0.0593381042                     
$end
--------------------------------------------------------------
 ----------------------------------------------------------------
             Standard Nuclear Orientation (Angstroms)
    I     Atom           X                Y                Z
 ----------------------------------------------------------------
    1      H      -0.0348278765    -0.2442097827     0.0636489606
    2      C      -1.0765972949    -0.5242748755    -0.0023551776
    3      H      -1.3132644670    -1.5767591607    -0.0757276926
    4      C      -2.0436341180     0.3926884087     0.0061254933
    5      H      -1.8137616575     1.4459188338     0.0804456828
    6      H      -3.0809772930     0.1149318580    -0.0593381042
 ----------------------------------------------------------------
 Nuclear Repulsion Energy =          33.44135652 hartrees
 There are        8 alpha and        8 beta electrons
 Requested basis set is cc-pVDZ
 There are 24 shells and 48 basis functions
 Total memory of 30000 MB is distributed as follows: 
   MEM_STATIC is set to 1024 MB
   QALLOC/CCMAN JOB total memory use is  28976 MB
 Warning: actual memory use might exceed 30000 MB

 Total QAlloc Memory Limit  30000 MB
 Mega-Array Size      1001 MB
 MEM_STATIC part      1024 MB

                       Distance Matrix (Angstroms)
             H (  1)   C (  2)   H (  3)   C (  4)   H (  5)
   C (  2)  1.080776
   H (  3)  1.851895  1.081258
   C (  4)  2.108139  1.332687  2.102109
   H (  5)  2.453859  2.105215  3.067812  1.080583
   H (  6)  3.069712  2.104607  2.446813  1.075879  1.843068

 A cutoff of  1.0D-11 yielded    300 shell pairs
 There are      1220 function pairs (      1329 Cartesian)
 Smallest overlap matrix eigenvalue = 4.80E-03

 Scale SEOQF with 1.000000e-01/1.000000e-01/1.000000e+00

 Standard Electronic Orientation quadrupole field applied
 Nucleus-field energy     =     0.0000000022 hartrees
 Guess from superposition of atomic densities
 Warning:  Energy on first SCF cycle will be non-variational
 SAD guess density has 16.000000 electrons
 A restricted Hartree-Fock SCF calculation will be
 performed using Pulay DIIS extrapolation
 SCF converges when DIIS error is below 1.0E-08
 using 8 threads for integral computing
 -------------------------------------------------------
 OpenMP Integral computing Module                
 Release: version 1.0, May 2013, Q-Chem Inc. Pittsburgh 
 -------------------------------------------------------
 ---------------------------------------
  Cycle       Energy         DIIS Error
 ---------------------------------------
    1     -78.4423134247      1.01E-01
    2     -78.0176351674      7.22E-03
    3     -78.0382823727      1.85E-03
    4     -78.0397660331      5.74E-04
    5     -78.0398880263      5.83E-05
    6     -78.0398899097      1.01E-05
    7     -78.0398899736      3.56E-06
    8     -78.0398899785      1.09E-06
    9     -78.0398899791      1.18E-07
   10     -78.0398899791      3.24E-08
   11     -78.0398899791      7.82E-09 Convergence criterion met
 ---------------------------------------
 SCF time:  CPU 1.68 s  wall 2.08 s
 SCF   energy in the final basis set = -78.03988998
 Total energy in the final basis set = -78.03988998
Exporting Density Matrix to file 'Densmat_SCF.txt'.
Export successful
================================================================================
|                                                                              |
|                                 A D C  M A N                                 |
|                                                                              |
 ------------------------------------------------------------------------------ 
|                                                                              |
| Components:                                                                  |
|                                                                              |
| - libvmm - 1.3-trunk                                                         |
|   Authors:                                                                   |
|   Evgeny Epifanovsky, Ilya Kaliman                                           |
|                                                                              |
| - libtensor - 2.5-trunk                                                      |
|   Authors:                                                                   |
|   Evgeny Epifanovsky, Michael Wormit, Dmitry Zuev, Sam Manzer,               |
|   Ilya Kaliman                                                               |
|                                                                              |
| - libwfa - 1.1-trunk                                                         |
|   Authors:                                                                   |
|   Felix Plasser, Stefanie Mewes (Baeppler), Benjamin Thomitzni,              |
|   Michael Wormit, Feng Chen, Anna I. Krylov, Pavel Pokhilko                  |
|                                                                              |
| - libadc - 1.1-trunk                                                         |
|   Authors:                                                                   |
|   Michael Wormit, Adrian L. Dempwolff, Philipp H. P. Harbach,                |
|   Caroline Krauter, Dirk Rehn, Matthias Schneider, Jan Wenzel                |
|                                                                              |
| - adcman - 2.6-trunk                                                         |
|   Authors:                                                                   |
|   Michael Wormit, Adrian L. Dempwolff, Philipp H. P. Harbach,                |
|   Caroline Krauter, Daniel Lefrancois, Jan-Michael Mewes, Dirk Rehn,         |
|   Matthias Schneider, Jan Wenzel, Andreas Dreuw                              |
|                                                                              |
| Authors of earlier versions of ADCMAN:                                       |
| Andreas Dreuw, Jan Hendrik Starcke, Dirk Rehn, Michael Wormit                |
|                                                                              |
================================================================================

 Created directory /scratch/fum/qchem75790/plots
  Import QC data ...  CPU 0.00 s  wall 0.02 s

 Alpha MOs, Restricted
 -- Occupied --                  
-11.235 -11.233  -1.032  -0.790  -0.642  -0.582  -0.505  -0.374
  1 A     2 A     3 A     4 A     5 A     6 A     7 A     8 A                  
 -- Virtual --                   
  0.168   0.204   0.233   0.240   0.303   0.462   0.577   0.615
  9 A    10 A    11 A    12 A    13 A    14 A    15 A    16 A                  
  0.689   0.709   0.785   0.808   0.863   0.937   0.973   1.010
 17 A    18 A    19 A    20 A    21 A    22 A    23 A    24 A                  
  1.130   1.235   1.255   1.266   1.294   1.602   1.727   1.751
 25 A    26 A    27 A    28 A    29 A    30 A    31 A    32 A                  
  1.820   1.860   1.868   1.923   1.977   1.979   2.222   2.258
 33 A    34 A    35 A    36 A    37 A    38 A    39 A    40 A                  
  2.377   2.456   2.508   2.635   2.725   2.825   3.143   3.402
 41 A    42 A    43 A    44 A    45 A    46 A    47 A    48 A                  

 Beta MOs, Restricted
 -- Occupied --                  
-11.235 -11.233  -1.032  -0.790  -0.642  -0.582  -0.505  -0.374
  1 A     2 A     3 A     4 A     5 A     6 A     7 A     8 A                  
 -- Virtual --                   
  0.168   0.204   0.233   0.240   0.303   0.462   0.577   0.615
  9 A    10 A    11 A    12 A    13 A    14 A    15 A    16 A                  
  0.689   0.709   0.785   0.808   0.863   0.937   0.973   1.010
 17 A    18 A    19 A    20 A    21 A    22 A    23 A    24 A                  
  1.130   1.235   1.255   1.266   1.294   1.602   1.727   1.751
 25 A    26 A    27 A    28 A    29 A    30 A    31 A    32 A                  
  1.820   1.860   1.868   1.923   1.977   1.979   2.222   2.258
 33 A    34 A    35 A    36 A    37 A    38 A    39 A    40 A                  
  2.377   2.456   2.508   2.635   2.725   2.825   3.143   3.402
 41 A    42 A    43 A    44 A    45 A    46 A    47 A    48 A                  
  Import AO data ...  CPU 0.00 s  wall 0.25 s
  Using point group: C1
  Irreducible representations in point group: A
  Molecular orbitals: 
  Occupied MOs:
  Block   0:   1 (  A) A   2 (  A) A   3 (  A) A   4 (  A) A   5 (  A) A
                  -11.23      -11.23      -1.032     -0.7902     -0.6416
               6 (  A) A   7 (  A) A   8 (  A) A
                  -0.582      -0.505      -0.374
  Block   1:   1 (  A) B   2 (  A) B   3 (  A) B   4 (  A) B   5 (  A) B
                  -11.23      -11.23      -1.032     -0.7902     -0.6416
               6 (  A) B   7 (  A) B   8 (  A) B
                  -0.582      -0.505      -0.374
  Virtual MOs:
  Block   0:   9 (  A) A  10 (  A) A  11 (  A) A  12 (  A) A  13 (  A) A
                  0.1684      0.2038      0.2332      0.2396      0.3033
              14 (  A) A  15 (  A) A  16 (  A) A  17 (  A) A  18 (  A) A
                  0.4621      0.5774      0.6155      0.6892      0.7094
              19 (  A) A  20 (  A) A  21 (  A) A  22 (  A) A
                  0.7853       0.808      0.8626      0.9366
  Block   1:  23 (  A) A  24 (  A) A  25 (  A) A  26 (  A) A  27 (  A) A
                  0.9726        1.01        1.13       1.235       1.255
              28 (  A) A  29 (  A) A  30 (  A) A  31 (  A) A  32 (  A) A
                   1.266       1.294       1.602       1.727       1.751
              33 (  A) A  34 (  A) A  35 (  A) A  36 (  A) A
                    1.82        1.86       1.868       1.923
  Block   2:  37 (  A) A  38 (  A) A  39 (  A) A  40 (  A) A  41 (  A) A
                   1.977       1.979       2.222       2.258       2.377
              42 (  A) A  43 (  A) A  44 (  A) A  45 (  A) A  46 (  A) A
                   2.456       2.508       2.635       2.725       2.825
              47 (  A) A  48 (  A) A
                   3.143       3.402
  Block   3:   9 (  A) B  10 (  A) B  11 (  A) B  12 (  A) B  13 (  A) B
                  0.1684      0.2038      0.2332      0.2396      0.3033
              14 (  A) B  15 (  A) B  16 (  A) B  17 (  A) B  18 (  A) B
                  0.4621      0.5774      0.6155      0.6892      0.7094
              19 (  A) B  20 (  A) B  21 (  A) B  22 (  A) B
                  0.7853       0.808      0.8626      0.9366
  Block   4:  23 (  A) B  24 (  A) B  25 (  A) B  26 (  A) B  27 (  A) B
                  0.9726        1.01        1.13       1.235       1.255
              28 (  A) B  29 (  A) B  30 (  A) B  31 (  A) B  32 (  A) B
                   1.266       1.294       1.602       1.727       1.751
              33 (  A) B  34 (  A) B  35 (  A) B  36 (  A) B
                    1.82        1.86       1.868       1.923
  Block   5:  37 (  A) B  38 (  A) B  39 (  A) B  40 (  A) B  41 (  A) B
                   1.977       1.979       2.222       2.258       2.377
              42 (  A) B  43 (  A) B  44 (  A) B  45 (  A) B  46 (  A) B
                   2.456       2.508       2.635       2.725       2.825
              47 (  A) B  48 (  A) B
                   3.143       3.402
  Import MO data ...  CPU 0.13 s  wall 0.45 s
  Import HF data ...  CPU 1.11 s  wall 0.46 s
  Import 2e integrals ...  CPU 2.23 s  wall 0.41 s

--------------------------------------------------------------------------------
                                   HF Summary                                   
--------------------------------------------------------------------------------
  Energy:                                                  -78.0398899791 a.u.
  Dip. moment [a.u.]:                  [  -0.001536,    0.000503,    0.000347]
  Total dipole [Debye]:                                               0.004201
  <r^2> [a.u.]:                        [ 175.205045,   34.916636,   11.621457]
  Total <r^2> [a.u.]:                                               221.743138
--------------------------------------------------------------------------------
  HF properties ...  CPU 0.35 s  wall 0.11 s
  MP(1) calculation ...  CPU 0.08 s  wall 0.02 s
  N^6 prerequesite intermediates ...  CPU 0.67 s  wall 0.12 s
  Difference density matrix of state mp2_gs printed to ASCII file 'State_mp2_gs_Difference.txt'
Exporting MP density matrix to file 'Densmat_MP.txt'.
Export successful
  Total density matrix of state mp2_gs printed to ASCII file 'State_mp2_gs_Total.txt'
Exporting MP density matrix to file 'Densmat_MP.txt'.
Export successful

--------------------------------------------------------------------------------
                                 MP(2) Summary                                  
--------------------------------------------------------------------------------
  MP energy contribution:                                   -0.2796370300 a.u.
  Total energy:                                            -78.3195270091 a.u.
  Dip. moment [a.u.]:                  [  -0.001449,    0.000466,    0.000344]
  Total dipole [Debye]:                                               0.003966
  <r^2> [a.u.]:                        [ 175.252898,   34.957437,   11.453633]
  Total <r^2> [a.u.]:                                               221.663968

  Density matrix analysis:
  ------------------------
  NOs
    Occupation of frontier NOs:
       0.0453   1.9383
    Number of electrons: 16.000000
    Number of unpaired electrons: n_u =  0.40310, n_u,nl =  0.04502
    NO participation ratio (PR_NO): 13.853331
  
  
  Mulliken Population Analysis
  Atom      Charge (e)              h+              e-           Del q
  --------------------------------------------------------------------
   1 H        0.050856        0.014030       -0.011200        0.002829
   2 C       -0.101522        0.093269       -0.098854       -0.005585
   3 H        0.050468        0.014072       -0.011188        0.002884
   4 C       -0.099038        0.092676       -0.098749       -0.006073
   5 H        0.049994        0.014128       -0.011170        0.002957
   6 H        0.049242        0.014155       -0.011168        0.002987
  --------------------------------------------------------------------
  Sum:       -0.000000        0.242330       -0.242330        0.000000
  
  Multipole moment analysis of the density matrix
    Molecular charge:                      -0.000000
    Number of electrons:                   16.000000
      Center of electronic charge [Ang]: [ -1.560216,  -0.065618,   0.001967]
    Total nuclear charge:                  16.000000
      Center of nuclear charge [Ang]:    [ -1.560264,  -0.065602,   0.001978]
    Dipole moment [D]:                     0.003966
      Cartesian components [D]:          [ -0.003683,   0.001185,   0.000875]
    RMS size of the density [Ang]:         1.200388
      Cartesian components [Ang]:        [  0.795591,   0.779430,   0.447722]
  
  Exciton analysis of the difference density matrix
    <r_h> [Ang]:                  [ -1.559376,  -0.066074,   0.001917]
    <r_e> [Ang]:                  [ -1.559566,  -0.065995,   0.001924]
    |<r_e - r_h>| [Ang]:            0.000206
    Hole size [Ang]:                1.393076
      Cartesian components [Ang]: [  0.845653,   0.834169,   0.727800]
    Electron size [Ang]:            1.359629
      Cartesian components [Ang]: [  0.877402,   0.861973,   0.579448]
--------------------------------------------------------------------------------
  MP(2) calculation ...  CPU 1.06 s  wall 0.53 s
  Start ADC(2)-s ...  CPU 0.01 s  wall 0.00 s
  ADC(2) intermediates ...  CPU 0.37 s  wall 0.08 s
  Starting Davidson for singlet states of irrep A ... 
--------------------------------------------------------------------------------
   It NVec Conv  Avg. Norm  Max. Norm  Conv. states           Remark
--------------------------------------------------------------------------------
        10    0  1.330e-01  4.688e-01  0.4119 n n n n n n n n Guess.
    1   20    0  2.303e-02  1.108e-01  0.3262 n n n n n n n n 
    2   30    0  5.871e-03  2.614e-02  0.3215 n n n n n n n n 
    3   40    0  2.061e-03  1.459e-02  0.3211 n n n n n n n n 
    4   50    0  6.303e-04  4.781e-03  0.3211 n n n n n n n n 
    5   20    0  2.670e-04  1.936e-03  0.3211 n n n n n n n n Subspace collapsed.
    6   30    0  1.805e-04  1.622e-03  0.3211 n n n n n n n n 
    7   40    0  9.087e-05  7.714e-04  0.3211 n n n n n n n n 
    8   50    0  1.091e-04  1.043e-03  0.3211 n n n n n n n n 
    9   20    2  7.161e-05  6.724e-04  0.3211 n y n y n n n n Subspace collapsed.
   10   30    4  9.956e-05  9.808e-04  0.3211 n y y y y n n n 
   11   40    5  9.661e-05  9.633e-04  0.3211 n y y y y y n n 
   12   50    6  9.250e-05  9.245e-04  0.3211 y y y y y y n n 
   13   20    6  4.627e-05  4.624e-04  0.3211 y y y y y y n n Subspace collapsed.
   14   30    6  3.375e-05  3.372e-04  0.3211 y y y y y y n n 
   15   40    7  1.738e-05  1.736e-04  0.3211 y y y y y y n y 
   16   50    7  2.859e-05  2.859e-04  0.3211 y y y y y y n y 
   17   20    8  1.104e-05  1.104e-04  0.3211 y y y y y y n y Subspace collapsed.
   18   30    7  1.868e-05  1.868e-04  0.3211 y y y y y y n y 
   19   40    9  1.926e-05  1.926e-04  0.3211 y y y y y y y y 
   20   50    9  1.986e-05  1.986e-04  0.3211 y y y y y y y y 
   21   20    9  9.121e-06  9.121e-05  0.3211 y y y y y y y y Subspace collapsed.
   22   30    9  6.680e-06  6.680e-05  0.3211 y y y y y y y y 
   23   31    9  6.663e-06  6.663e-05  0.3211 y y y y y y y y 
   24   39    9  3.793e-06  3.793e-05  0.3211 y y y y y y y y 
   25   47    9  4.935e-06  4.935e-05  0.3211 y y y y y y y y 
   26   50    9  5.448e-06  5.448e-05  0.3211 y y y y y y y y 
   27   16    9  2.717e-06  2.717e-05  0.3211 y y y y y y y y Subspace collapsed.
   28   20    9  3.337e-06  3.337e-05  0.3211 y y y y y y y y 
   29   24    9  3.572e-06  3.572e-05  0.3211 y y y y y y y y 
   30   28    9  4.028e-06  4.028e-05  0.3211 y y y y y y y y 
   31   32    9  3.115e-06  3.115e-05  0.3211 y y y y y y y y 
   32   36    9  2.251e-06  2.251e-05  0.3211 y y y y y y y y 
   33   40    9  1.133e-06  1.133e-05  0.3211 y y y y y y y y 
   34   44    9  5.776e-07  5.776e-06  0.3211 y y y y y y y y 
   35   48    9  3.518e-07  3.518e-06  0.3211 y y y y y y y y 
   36   50    9  2.144e-07  2.144e-06  0.3211 y y y y y y y y 
   37   14   10  8.913e-08  8.913e-07  0.3211 y y y y y y y y Converged.
--------------------------------------------------------------------------------
  Davidson Summary: 
 ------------------------------------------------------------
  State  0: excitation energy =   0.3211 a.u.   (converged)
  State  1: excitation energy =   0.3330 a.u.   (converged)
  State  2: excitation energy =   0.3371 a.u.   (converged)
  State  3: excitation energy =   0.3617 a.u.   (converged)
  State  4: excitation energy =   0.3754 a.u.   (converged)
  State  5: excitation energy =   0.3873 a.u.   (converged)
  State  6: excitation energy =   0.4251 a.u.   (converged)
  State  7: excitation energy =   0.4473 a.u.   (converged)
  State  8: excitation energy =   0.4565 a.u.   (converged)
  State  9: excitation energy =   0.4652 a.u.   (converged)
 ------------------------------------------------------------

  Singlet states of irrep A ...  CPU 162.58 s  wall 55.86 s
  TDMs ...  CPU 2.15 s  wall 0.74 s
  SDMs ...  CPU 6.02 s  wall 1.50 s
  Starting TPA DIIS iterations ... 
------------------------------------ 
   It     Res. Norm  Remark
------------------------------------
                       Guess.
    1     4.408e+00  
    2     5.844e+00  
    3     1.076e+00  
    4     2.554e-01  
    5     6.566e-02  
    6     2.654e-02  
    7     8.212e-03  
    8     1.420e-03  
    9     5.256e-04  
   10     8.899e-05  
   11     2.765e-05  
   12     4.324e-06  
   13     1.390e-06  
   14     4.365e-07  Converged.
   ... Converged in 14 steps (norm: 4.36495e-07)
------------------------------------
  Starting TPA DIIS iterations ... 
------------------------------------ 
   It     Res. Norm  Remark
------------------------------------
                       Guess.
    1     4.184e+00  
    2     5.541e+00  
    3     1.030e+00  
    4     2.558e-01  
    5     6.544e-02  
    6     2.678e-02  
    7     8.112e-03  
    8     1.456e-03  
    9     5.374e-04  
   10     8.970e-05  
   11     2.836e-05  
   12     4.340e-06  
   13     1.420e-06  
   14     4.362e-07  Converged.
   ... Converged in 14 steps (norm: 4.36171e-07)
------------------------------------
  Starting TPA DIIS iterations ... 
------------------------------------ 
   It     Res. Norm  Remark
------------------------------------
                       Guess.
    1     6.879e-01  
    2     4.833e-01  
    3     1.707e-01  
    4     6.017e-02  
    5     1.829e-02  
    6     6.621e-03  
    7     1.034e-03  
    8     4.458e-04  
    9     1.238e-04  
   10     2.861e-05  
   11     5.396e-06  
   12     1.569e-06  
   13     9.158e-07  Converged.
   ... Converged in 13 steps (norm: 9.15778e-07)
------------------------------------
  Starting TPA DIIS iterations ... 
------------------------------------ 
   It     Res. Norm  Remark
------------------------------------
                       Guess.
    1     4.703e+00  
    2     6.374e+00  
    3     1.159e+00  
    4     2.845e-01  
    5     7.418e-02  
    6     3.025e-02  
    7     9.340e-03  
    8     1.611e-03  
    9     6.014e-04  
   10     1.024e-04  
   11     3.215e-05  
   12     5.073e-06  
   13     1.643e-06  
   14     5.186e-07  Converged.
   ... Converged in 14 steps (norm: 5.18573e-07)
------------------------------------
  Starting TPA DIIS iterations ... 
------------------------------------ 
   It     Res. Norm  Remark
------------------------------------
                       Guess.
    1     4.463e+00  
    2     6.043e+00  
    3     1.109e+00  
    4     2.848e-01  
    5     7.396e-02  
    6     3.054e-02  
    7     9.230e-03  
    8     1.655e-03  
    9     6.152e-04  
   10     1.033e-04  
   11     3.296e-05  
   12     5.089e-06  
   13     1.678e-06  
   14     5.182e-07  Converged.
   ... Converged in 14 steps (norm: 5.18213e-07)
------------------------------------
  Starting TPA DIIS iterations ... 
------------------------------------ 
   It     Res. Norm  Remark
------------------------------------
                       Guess.
    1     7.003e-01  
    2     5.012e-01  
    3     1.808e-01  
    4     6.830e-02  
    5     1.974e-02  
    6     7.253e-03  
    7     1.171e-03  
    8     5.271e-04  
    9     1.499e-04  
   10     3.267e-05  
   11     6.141e-06  
   12     1.856e-06  
   13     1.152e-06  
   14     4.164e-07  Converged.
   ... Converged in 14 steps (norm: 4.16384e-07)
------------------------------------
  Starting TPA DIIS iterations ... 
------------------------------------ 
   It     Res. Norm  Remark
------------------------------------
                       Guess.
    1     4.813e+00  
    2     6.573e+00  
    3     1.190e+00  
    4     2.957e-01  
    5     7.745e-02  
    6     3.168e-02  
    7     9.773e-03  
    8     1.685e-03  
    9     6.306e-04  
   10     1.076e-04  
   11     3.391e-05  
   12     5.366e-06  
   13     1.743e-06  
   14     5.510e-07  Converged.
   ... Converged in 14 steps (norm: 5.51013e-07)
------------------------------------
  Starting TPA DIIS iterations ... 
------------------------------------ 
   It     Res. Norm  Remark
------------------------------------
                       Guess.
    1     4.567e+00  
    2     6.232e+00  
    3     1.138e+00  
    4     2.959e-01  
    5     7.722e-02  
    6     3.199e-02  
    7     9.659e-03  
    8     1.731e-03  
    9     6.451e-04  
   10     1.085e-04  
   11     3.475e-05  
   12     5.382e-06  
   13     1.780e-06  
   14     5.507e-07  Converged.
   ... Converged in 14 steps (norm: 5.50692e-07)
------------------------------------
  Starting TPA DIIS iterations ... 
------------------------------------ 
   It     Res. Norm  Remark
------------------------------------
                       Guess.
    1     7.046e-01  
    2     5.077e-01  
    3     1.845e-01  
    4     7.146e-02  
    5     2.027e-02  
    6     7.496e-03  
    7     1.225e-03  
    8     5.593e-04  
    9     1.602e-04  
   10     3.393e-05  
   11     6.424e-06  
   12     1.970e-06  
   13     1.250e-06  
   14     4.505e-07  Converged.
   ... Converged in 14 steps (norm: 4.50534e-07)
------------------------------------
  Starting TPA DIIS iterations ... 
------------------------------------ 
   It     Res. Norm  Remark
------------------------------------
                       Guess.
    1     5.561e+00  
    2     7.968e+00  
    3     1.399e+00  
    4     3.762e-01  
    5     1.010e-01  
    6     4.205e-02  
    7     1.289e-02  
    8     2.213e-03  
    9     8.426e-04  
   10     1.453e-04  
   11     4.693e-05  
   12     7.546e-06  
   13     2.503e-06  
   14     8.003e-07  Converged.
   ... Converged in 14 steps (norm: 8.00332e-07)
------------------------------------
  Starting TPA DIIS iterations ... 
------------------------------------ 
   It     Res. Norm  Remark
------------------------------------
                       Guess.
    1     5.274e+00  
    2     7.554e+00  
    3     1.338e+00  
    4     3.758e-01  
    5     1.007e-01  
    6     4.256e-02  
    7     1.275e-02  
    8     2.279e-03  
    9     8.626e-04  
   10     1.465e-04  
   11     4.801e-05  
   12     7.557e-06  
   13     2.549e-06  
   14     8.015e-07  Converged.
   ... Converged in 14 steps (norm: 8.0147e-07)
------------------------------------
  Starting TPA DIIS iterations ... 
------------------------------------ 
   It     Res. Norm  Remark
------------------------------------
                       Guess.
    1     7.317e-01  
    2     5.495e-01  
    3     2.092e-01  
    4     9.498e-02  
    5     2.384e-02  
    6     9.249e-03  
    7     1.626e-03  
    8     7.963e-04  
    9     2.352e-04  
   10     3.904e-05  
   11     8.458e-06  
   12     2.844e-06  
   13     2.054e-06  
   14     7.336e-07  Converged.
   ... Converged in 14 steps (norm: 7.33591e-07)
------------------------------------
  Starting TPA DIIS iterations ... 
------------------------------------ 
   It     Res. Norm  Remark
------------------------------------
                       Guess.
    1     6.067e+00  
    2     8.947e+00  
    3     1.540e+00  
    4     4.348e-01  
    5     1.181e-01  
    6     4.971e-02  
    7     1.517e-02  
    8     2.595e-03  
    9     9.989e-04  
   10     1.731e-04  
   11     5.674e-05  
   12     9.193e-06  
   13     3.093e-06  
   14     9.996e-07  Converged.
   ... Converged in 14 steps (norm: 9.99631e-07)
------------------------------------
  Starting TPA DIIS iterations ... 
------------------------------------ 
   It     Res. Norm  Remark
------------------------------------
                       Guess.
    1     5.754e+00  
    2     8.481e+00  
    3     1.472e+00  
    4     4.339e-01  
    5     1.179e-01  
    6     5.037e-02  
    7     1.501e-02  
    8     2.677e-03  
    9     1.023e-03  
   10     1.746e-04  
   11     5.797e-05  
   12     9.199e-06  
   13     3.143e-06  
   14     1.003e-06  
   15     3.215e-07  Converged.
   ... Converged in 15 steps (norm: 3.21452e-07)
------------------------------------
  Starting TPA DIIS iterations ... 
------------------------------------ 
   It     Res. Norm  Remark
------------------------------------
                       Guess.
    1     7.479e-01  
    2     5.759e-01  
    3     2.254e-01  
    4     1.127e-01  
    5     2.630e-02  
    6     1.054e-02  
    7     1.935e-03  
    8     9.639e-04  
    9     2.875e-04  
   10     4.021e-05  
   11     9.974e-06  
   12     3.526e-06  
   13     2.736e-06  
   14     9.771e-07  Converged.
   ... Converged in 14 steps (norm: 9.77062e-07)
------------------------------------
  Starting TPA DIIS iterations ... 
------------------------------------ 
   It     Res. Norm  Remark
------------------------------------
                       Guess.
    1     6.567e+00  
    2     9.934e+00  
    3     1.678e+00  
    4     4.954e-01  
    5     1.359e-01  
    6     5.769e-02  
    7     1.752e-02  
    8     2.990e-03  
    9     1.162e-03  
   10     2.021e-04  
   11     6.709e-05  
   12     1.093e-05  
   13     3.728e-06  
   14     1.222e-06  
   15     4.332e-07  Converged.
   ... Converged in 15 steps (norm: 4.3322e-07)
------------------------------------
  Starting TPA DIIS iterations ... 
------------------------------------ 
   It     Res. Norm  Remark
------------------------------------
                       Guess.
    1     6.226e+00  
    2     9.417e+00  
    3     1.603e+00  
    4     4.940e-01  
    5     1.356e-01  
    6     5.852e-02  
    7     1.735e-02  
    8     3.087e-03  
    9     1.189e-03  
   10     2.039e-04  
   11     6.844e-05  
   12     1.093e-05  
   13     3.778e-06  
   14     1.231e-06  
   15     3.955e-07  Converged.
   ... Converged in 15 steps (norm: 3.95511e-07)
------------------------------------
  Starting TPA DIIS iterations ... 
------------------------------------ 
   It     Res. Norm  Remark
------------------------------------
                       Guess.
    1     7.624e-01  
    2     6.007e-01  
    3     2.409e-01  
    4     1.315e-01  
    5     2.878e-02  
    6     1.187e-02  
    7     2.267e-03  
    8     1.124e-03  
    9     3.381e-04  
   10     4.091e-05  
   11     1.160e-05  
   12     4.262e-06  
   13     3.513e-06  
   14     1.258e-06  
   15     4.650e-07  Converged.
   ... Converged in 15 steps (norm: 4.65036e-07)
------------------------------------
  Starting TPA DIIS iterations ... 
------------------------------------ 
   It     Res. Norm  Remark
------------------------------------
                       Guess.
    1     8.700e+00  
    2     1.440e+01  
    3     2.257e+00  
    4     7.823e-01  
    5     2.199e-01  
    6     9.628e-02  
    7     2.868e-02  
    8     4.848e-03  
    9     1.946e-03  
   10     3.413e-04  
   11     1.168e-04  
   12     1.945e-05  
   13     6.883e-06  
   14     2.515e-06  
   15     9.143e-07  Converged.
   ... Converged in 15 steps (norm: 9.1432e-07)
------------------------------------
  Starting TPA DIIS iterations ... 
------------------------------------ 
   It     Res. Norm  Remark
------------------------------------
                       Guess.
    1     8.246e+00  
    2     1.365e+01  
    3     2.155e+00  
    4     7.774e-01  
    5     2.197e-01  
    6     9.798e-02  
    7     2.841e-02  
    8     5.022e-03  
    9     1.992e-03  
   10     3.442e-04  
   11     1.185e-04  
   12     1.945e-05  
   13     6.866e-06  
   14     2.573e-06  
   15     8.093e-07  Converged.
   ... Converged in 15 steps (norm: 8.09258e-07)
------------------------------------
  Starting TPA DIIS iterations ... 
------------------------------------ 
   It     Res. Norm  Remark
------------------------------------
                       Guess.
    1     8.130e-01  
    2     6.955e-01  
    3     3.033e-01  
    4     2.216e-01  
    5     4.025e-02  
    6     1.816e-02  
    7     3.949e-03  
    8     1.637e-03  
    9     5.365e-04  
   10     5.220e-05  
   11     2.000e-05  
   12     7.995e-06  
   13     7.861e-06  
   14     2.914e-06  
   15     1.288e-06  
   16     7.073e-07  Converged.
   ... Converged in 16 steps (norm: 7.07272e-07)
------------------------------------
  Starting TPA DIIS iterations ... 
------------------------------------ 
   It     Res. Norm  Remark
------------------------------------
                       Guess.
    1     1.052e+01  
    2     1.849e+01  
    3     2.738e+00  
    4     1.054e+00  
    5     3.004e-01  
    6     1.341e-01  
    7     3.934e-02  
    8     6.612e-03  
    9     2.710e-03  
   10     4.759e-04  
   11     1.634e-04  
   12     2.790e-05  
   13     9.950e-06  
   14     4.118e-06  
   15     1.502e-06  
   16     8.932e-07  Converged.
   ... Converged in 16 steps (norm: 8.93157e-07)
------------------------------------
  Starting TPA DIIS iterations ... 
------------------------------------ 
   It     Res. Norm  Remark
------------------------------------
                       Guess.
    1     9.968e+00  
    2     1.753e+01  
    3     2.612e+00  
    4     1.045e+00  
    5     3.002e-01  
    6     1.367e-01  
    7     3.901e-02  
    8     6.861e-03  
    9     2.773e-03  
   10     4.797e-04  
   11     1.650e-04  
   12     2.802e-05  
   13     9.795e-06  
   14     4.265e-06  
   15     1.351e-06  
   16     1.041e-06  
   17     3.609e-07  Converged.
   ... Converged in 17 steps (norm: 3.60853e-07)
------------------------------------
  Starting TPA DIIS iterations ... 
------------------------------------ 
   It     Res. Norm  Remark
------------------------------------
                       Guess.
    1     8.463e-01  
    2     7.663e-01  
    3     3.525e-01  
    4     3.034e-01  
    5     5.091e-02  
    6     2.382e-02  
    7     5.620e-03  
    8     1.845e-03  
    9     6.873e-04  
   10     7.231e-05  
   11     2.892e-05  
   12     1.178e-05  
   13     1.273e-05  
   14     4.883e-06  
   15     2.497e-06  
   16     1.291e-06  
   17     6.780e-07  Converged.
   ... Converged in 17 steps (norm: 6.77986e-07)
------------------------------------
  Starting TPA DIIS iterations ... 
------------------------------------ 
   It     Res. Norm  Remark
------------------------------------
                       Guess.
    1     1.146e+01  
    2     2.070e+01  
    3     2.982e+00  
    4     1.202e+00  
    5     3.446e-01  
    6     1.551e-01  
    7     4.520e-02  
    8     7.578e-03  
    9     3.135e-03  
   10     5.500e-04  
   11     1.882e-04  
   12     3.270e-05  
   13     1.168e-05  
   14     5.140e-06  
   15     1.895e-06  
   16     1.191e-06  
   17     2.633e-07  Converged.
   ... Converged in 17 steps (norm: 2.63334e-07)
------------------------------------
  Starting TPA DIIS iterations ... 
------------------------------------ 
   It     Res. Norm  Remark
------------------------------------
                       Guess.
    1     1.086e+01  
    2     1.962e+01  
    3     2.845e+00  
    4     1.191e+00  
    5     3.445e-01  
    6     1.583e-01  
    7     4.483e-02  
    8     7.869e-03  
    9     3.207e-03  
   10     5.543e-04  
   11     1.899e-04  
   12     3.296e-05  
   13     1.144e-05  
   14     5.349e-06  
   15     1.743e-06  
   16     1.404e-06  
   17     4.874e-07  Converged.
   ... Converged in 17 steps (norm: 4.87449e-07)
------------------------------------
  Starting TPA DIIS iterations ... 
------------------------------------ 
   It     Res. Norm  Remark
------------------------------------
                       Guess.
    1     8.612e-01  
    2     8.003e-01  
    3     3.766e-01  
    4     3.445e-01  
    5     5.664e-02  
    6     2.669e-02  
    7     6.533e-03  
    8     1.903e-03  
    9     7.612e-04  
   10     8.421e-05  
   11     3.411e-05  
   12     1.399e-05  
   13     1.571e-05  
   14     6.094e-06  
   15     3.290e-06  
   16     1.667e-06  
   17     9.246e-07  Converged.
   ... Converged in 17 steps (norm: 9.2456e-07)
------------------------------------
  Starting TPA DIIS iterations ... 
------------------------------------ 
   It     Res. Norm  Remark
------------------------------------
                       Guess.
    1     1.247e+01  
    2     2.315e+01  
    3     3.243e+00  
    4     1.367e+00  
    5     3.943e-01  
    6     1.790e-01  
    7     5.179e-02  
    8     8.660e-03  
    9     3.614e-03  
   10     6.334e-04  
   11     2.156e-04  
   12     3.825e-05  
   13     1.370e-05  
   14     6.394e-06  
   15     2.407e-06  
   16     1.577e-06  
   17     3.428e-07  Converged.
   ... Converged in 17 steps (norm: 3.42754e-07)
------------------------------------
  Starting TPA DIIS iterations ... 
------------------------------------ 
   It     Res. Norm  Remark
------------------------------------
                       Guess.
    1     1.182e+01  
    2     2.194e+01  
    3     3.093e+00  
    4     1.352e+00  
    5     3.941e-01  
    6     1.828e-01  
    7     5.136e-02  
    8     8.999e-03  
    9     3.697e-03  
   10     6.382e-04  
   11     2.175e-04  
   12     3.873e-05  
   13     1.336e-05  
   14     6.685e-06  
   15     2.278e-06  
   16     1.879e-06  
   17     6.520e-07  Converged.
   ... Converged in 17 steps (norm: 6.52044e-07)
------------------------------------
  Starting TPA DIIS iterations ... 
------------------------------------ 
   It     Res. Norm  Remark
------------------------------------
                       Guess.
    1     8.759e-01  
    2     8.355e-01  
    3     4.020e-01  
    4     3.869e-01  
    5     6.296e-02  
    6     2.970e-02  
    7     7.544e-03  
    8     1.950e-03  
    9     8.389e-04  
   10     9.750e-05  
   11     4.015e-05  
   12     1.661e-05  
   13     1.939e-05  
   14     7.552e-06  
   15     4.270e-06  
   16     2.125e-06  
   17     1.230e-06  
   18     4.194e-07  Converged.
   ... Converged in 18 steps (norm: 4.19397e-07)
------------------------------------
  Two-photon absorbption ...  CPU 159.89 s  wall 45.34 s
  Transition density matrix of state singlet_A_1 printed to ASCII file 'State_singlet_A_1_Transition.txt'
  Transition density matrix of state singlet_A_2 printed to ASCII file 'State_singlet_A_2_Transition.txt'
  Transition density matrix of state singlet_A_3 printed to ASCII file 'State_singlet_A_3_Transition.txt'
  Transition density matrix of state singlet_A_4 printed to ASCII file 'State_singlet_A_4_Transition.txt'
  Transition density matrix of state singlet_A_5 printed to ASCII file 'State_singlet_A_5_Transition.txt'
  Transition density matrix of state singlet_A_6 printed to ASCII file 'State_singlet_A_6_Transition.txt'
  Transition density matrix of state singlet_A_7 printed to ASCII file 'State_singlet_A_7_Transition.txt'
  Transition density matrix of state singlet_A_8 printed to ASCII file 'State_singlet_A_8_Transition.txt'
  Transition density matrix of state singlet_A_9 printed to ASCII file 'State_singlet_A_9_Transition.txt'
  Transition density matrix of state singlet_A_10 printed to ASCII file 'State_singlet_A_10_Transition.txt'
  Transition properties ...  CPU 0.76 s  wall 0.65 s
  Difference density matrix of state singlet_A_1 printed to ASCII file 'State_singlet_A_1_Difference.txt'
  Total density matrix of state singlet_A_1 printed to ASCII file 'State_singlet_A_1_Total.txt'
  Difference density matrix of state singlet_A_2 printed to ASCII file 'State_singlet_A_2_Difference.txt'
  Total density matrix of state singlet_A_2 printed to ASCII file 'State_singlet_A_2_Total.txt'
  Difference density matrix of state singlet_A_3 printed to ASCII file 'State_singlet_A_3_Difference.txt'
  Total density matrix of state singlet_A_3 printed to ASCII file 'State_singlet_A_3_Total.txt'
  Difference density matrix of state singlet_A_4 printed to ASCII file 'State_singlet_A_4_Difference.txt'
  Total density matrix of state singlet_A_4 printed to ASCII file 'State_singlet_A_4_Total.txt'
  Difference density matrix of state singlet_A_5 printed to ASCII file 'State_singlet_A_5_Difference.txt'
  Total density matrix of state singlet_A_5 printed to ASCII file 'State_singlet_A_5_Total.txt'
  Difference density matrix of state singlet_A_6 printed to ASCII file 'State_singlet_A_6_Difference.txt'
  Total density matrix of state singlet_A_6 printed to ASCII file 'State_singlet_A_6_Total.txt'
  Difference density matrix of state singlet_A_7 printed to ASCII file 'State_singlet_A_7_Difference.txt'
  Total density matrix of state singlet_A_7 printed to ASCII file 'State_singlet_A_7_Total.txt'
  Difference density matrix of state singlet_A_8 printed to ASCII file 'State_singlet_A_8_Difference.txt'
  Total density matrix of state singlet_A_8 printed to ASCII file 'State_singlet_A_8_Total.txt'
  Difference density matrix of state singlet_A_9 printed to ASCII file 'State_singlet_A_9_Difference.txt'
  Total density matrix of state singlet_A_9 printed to ASCII file 'State_singlet_A_9_Total.txt'
  Difference density matrix of state singlet_A_10 printed to ASCII file 'State_singlet_A_10_Difference.txt'
  Total density matrix of state singlet_A_10 printed to ASCII file 'State_singlet_A_10_Total.txt'
  Properties ...  CPU 1.11 s  wall 0.84 s
  ISR TDMS ...  CPU 42.05 s  wall 12.30 s
  ISR transition properties ...  CPU 1.09 s  wall 0.36 s
  Sum-over-states TPA ...  CPU 0.00 s  wall 0.00 s

--------------------------------------------------------------------------------
                   State-averaged natural transition orbitals
--------------------------------------------------------------------------------
--------------------------------------------------------------------------------
  SA-NTO decomposition ...  CPU 0.01 s  wall 0.02 s

--------------------------------------------------------------------------------
                             Excited State Summary
--------------------------------------------------------------------------------
--------------------------------------------------------------------------------

  Excited state 1 (singlet, A)                                     [converged]
  ----------------------------------------------------------------------------
  Term symbol:  2 (1) A                                     R^2 =  3.78800e-13

  Total energy:                                            -77.9984517720 a.u.
  Excitation energy:                                               8.736902 eV

  Osc. strength:                                                      0.445540
  Trans. dip. moment [a.u.]:           [  -1.045011,    0.994656,    0.009326]
  <i|r^2|0> [a.u.]:                    [  -6.158606,    0.247099,    0.000491]
  Two-photon absorption cross-section (SoS) [a.u.]:                   0.001116
  Two-photon absorption matrix (SoS) [a.u.]:
                                       |   -0.000613    0.007960    0.001148 |
                                       |    0.007960    0.000057    0.000749 |
                                       |    0.001148    0.000749   -0.009747 |
  Two-photon absorption cross-section [a.u.]:                         0.000860
  Two-photon absorption matrix [a.u.]:
                                       |    0.000962    0.006473   -0.000401 |
                                       |    0.006473    0.004848   -0.001513 |
                                       |   -0.000401   -0.001513   -0.009704 |

  Dip. moment [a.u.]:                  [  -0.001316,    0.000309,    0.000430]
  Total dipole [Debye]:                                               0.003606
  <r^2> [a.u.]:                        [ 176.008297,   35.647422,   11.863406]
  Total <r^2> [a.u.]:                                               223.519125

  V1^2 = 0.9715, V2^2 = 0.0285

  Important amplitudes:
      occ i     occ j     vir a      vir b          v   
    -----------------------------------------------------
     8 (A) A              9 (A) A                 0.6811
     6 (A) A             14 (A) A                -0.0623
     4 (A) A             10 (A) A                 0.0605
     7 (A) A             16 (A) A                -0.0569
     5 (A) A             13 (A) A                 0.0512
     6 (A) A             23 (A) A                -0.0486
     8 (A) A             20 (A) A                -0.0350
     6 (A) A             19 (A) A                -0.0309
     3 (A) A             12 (A) A                -0.0281
     5 (A) A             22 (A) A                 0.0214
     7 (A) A             11 (A) A                -0.0211
     4 (A) A             24 (A) A                 0.0187
     3 (A) A             26 (A) A                -0.0185
     8 (A) A   8 (A) B   17 (A) A   20 (A) B      0.0184
     8 (A) A   8 (A) B    9 (A) A   28 (A) B     -0.0168
     6 (A) A             26 (A) A                 0.0163
     7 (A) A             21 (A) A                -0.0148
     3 (A) A             14 (A) A                 0.0139
     6 (A) A             12 (A) A                -0.0131
     3 (A) A   4 (A) B    9 (A) A    9 (A) B     -0.0129
     3 (A) A             19 (A) A                 0.0119
     8 (A) A   8 (A) B   18 (A) A   19 (A) B     -0.0113
     7 (A) A             32 (A) A                -0.0095
     7 (A) A             36 (A) A                 0.0086
     3 (A) A             23 (A) A                 0.0080
     8 (A) A   8 (A) B   25 (A) A   29 (A) B     -0.0076
     6 (A) A             35 (A) A                -0.0073
     6 (A) A             40 (A) A                 0.0068
     3 (A) A   6 (A) B    9 (A) A   28 (A) B      0.0065
     6 (A) A   8 (A) A   19 (A) A   28 (A) A     -0.0061
     5 (A) A   7 (A) B    9 (A) A    9 (A) B      0.0060
     5 (A) A   8 (A) B   11 (A) A   20 (A) B      0.0059
     7 (A) A   8 (A) B   13 (A) A   20 (A) B     -0.0059
     5 (A) A   8 (A) B   16 (A) A    9 (A) B     -0.0059
     5 (A) A   8 (A) B   11 (A) A    9 (A) B      0.0058
     3 (A) A   5 (A) B    9 (A) A   25 (A) B     -0.0058
     3 (A) A             40 (A) A                -0.0057
     7 (A) A   8 (A) B   22 (A) A   20 (A) B     -0.0057
     6 (A) A   8 (A) A    9 (A) A   18 (A) A      0.0057
     8 (A) A   8 (A) B   19 (A) A   30 (A) B     -0.0056
    -----------------------------------------------------

  Density matrix analysis:
  ------------------------
  NOs
    Occupation of frontier NOs:
       0.9496   1.0217
    Number of electrons: 16.000000
    Number of unpaired electrons: n_u =  2.31310, n_u,nl =  2.03258
    NO participation ratio (PR_NO):  2.863022
  
  
  Mulliken Population Analysis
  Atom      Charge (e)              h+              e-           Del q
  --------------------------------------------------------------------
   1 H        0.058583        0.020260       -0.012533        0.007728
   2 C       -0.116767        0.490901       -0.506146       -0.015245
   3 H        0.058041        0.020177       -0.012603        0.007573
   4 C       -0.114495        0.490727       -0.506184       -0.015457
   5 H        0.057662        0.020227       -0.012558        0.007668
   6 H        0.056975        0.020273       -0.012540        0.007733
  --------------------------------------------------------------------
  Sum:       -0.000000        1.062565       -1.062565       -0.000000
  
  Multipole moment analysis of the density matrix
    Molecular charge:                      -0.000000
    Number of electrons:                   16.000000
      Center of electronic charge [Ang]: [ -1.560220,  -0.065613,   0.001964]
    Total nuclear charge:                  16.000000
      Center of nuclear charge [Ang]:    [ -1.560264,  -0.065602,   0.001978]
    Dipole moment [D]:                     0.003606
      Cartesian components [D]:          [ -0.003346,   0.000784,   0.001092]
    RMS size of the density [Ang]:         1.213832
      Cartesian components [Ang]:        [  0.803848,   0.787139,   0.455661]
  
  Exciton analysis of the difference density matrix
    <r_h> [Ang]:                  [ -1.560106,  -0.065797,   0.001763]
    <r_e> [Ang]:                  [ -1.560172,  -0.065719,   0.001720]
    |<r_e - r_h>| [Ang]:            0.000111
    Hole size [Ang]:                1.285298
      Cartesian components [Ang]: [  0.728162,   0.712666,   0.783504]
    Electron size [Ang]:            1.463114
      Cartesian components [Ang]: [  0.853869,   0.830507,   0.849630]

  Transition density matrix analysis:
  -----------------------------------
  
  CT numbers (Mulliken)
    omega =     0.9536
    <Phe> =    -0.1607
  
  Exciton analysis of the transition density matrix
    Trans. dipole moment [D]:             1.833530
      Cartesian components [D]:         [ -1.328076,   1.264082,   0.011852]
    <r_h> [Ang]:                        [ -1.560095,  -0.065882,   0.001797]
    <r_e> [Ang]:                        [ -1.560162,  -0.065708,   0.001692]
    |<r_e - r_h>| [Ang]:                  0.000214
    Hole size [Ang]:                      1.214148
      Cartesian components [Ang]:       [  0.649527,   0.636461,   0.804479]
    Electron size [Ang]:                  1.485958
      Cartesian components [Ang]:       [  0.864315,   0.839397,   0.869736]
    RMS electron-hole separation [Ang]:   1.936707
      Cartesian components [Ang]:       [  1.106727,   1.075147,   1.170491]
    Covariance(r_h, r_e) [Ang^2]:        -0.034305
    Correlation coefficient:             -0.019014
    Center-of-mass size [Ang]:            0.950476
      Cartesian components [Ang]:       [  0.527496,   0.515607,   0.599418]

  Decomposition into state-averaged NTOs
    H- 0 -> L+ 0:  0.6699 ( 89.8%)
    H- 2 -> L+ 5:  0.0837 (  1.4%)
                   omega =  95.4%
  ----------------------------------------------------------------------------


  Excited state 2 (singlet, A)                                     [converged]
  ----------------------------------------------------------------------------
  Term symbol:  3 (1) A                                     R^2 =  3.31540e-13

  Total energy:                                            -77.9865124261 a.u.
  Excitation energy:                                               9.061788 eV

  Osc. strength:                                                      0.000010
  Trans. dip. moment [a.u.]:           [   0.004077,   -0.003876,   -0.003641]
  <i|r^2|0> [a.u.]:                    [  -0.039776,   -0.087787,    0.150653]
  Two-photon absorption cross-section (SoS) [a.u.]:                   4.899139
  Two-photon absorption matrix (SoS) [a.u.]:
                                       |   -0.051157   -0.058643    0.529293 |
                                       |   -0.058643   -0.066718    0.564179 |
                                       |    0.529293    0.564179    0.118064 |
  Two-photon absorption cross-section [a.u.]:                         0.073874
  Two-photon absorption matrix [a.u.]:
                                       |    0.002461    0.006678   -0.049272 |
                                       |    0.006678    0.012027   -0.081138 |
                                       |   -0.049272   -0.081138   -0.014365 |

  Dip. moment [a.u.]:                  [  -0.005497,   -0.002058,    0.000503]
  Total dipole [Debye]:                                               0.014973
  <r^2> [a.u.]:                        [ 174.413963,   33.957684,   13.169621]
  Total <r^2> [a.u.]:                                               221.541268

  V1^2 = 0.9542, V2^2 = 0.0458

  Important amplitudes:
      occ i     occ j     vir a      vir b          v   
    -----------------------------------------------------
     7 (A) A              9 (A) A                -0.6693
     8 (A) A             11 (A) A                 0.1478
     7 (A) A             20 (A) A                 0.0759
     5 (A) A   8 (A) B    9 (A) A    9 (A) B     -0.0317
     8 (A) A             16 (A) A                -0.0272
     8 (A) A             21 (A) A                 0.0175
     5 (A) A             28 (A) A                -0.0151
     4 (A) A   7 (A) B    9 (A) A   19 (A) B      0.0135
     5 (A) A   7 (A) B    9 (A) A   16 (A) B     -0.0134
     7 (A) A   8 (A) B   20 (A) A   17 (A) B     -0.0105
     7 (A) A   8 (A) A    9 (A) A   28 (A) A     -0.0098
     5 (A) A   8 (A) B    9 (A) A   20 (A) B      0.0096
     4 (A) A   6 (A) B    9 (A) A   16 (A) B      0.0091
     5 (A) A   6 (A) A    9 (A) A   23 (A) A     -0.0091
     5 (A) A   6 (A) A    9 (A) A   14 (A) A     -0.0089
     5 (A) A   6 (A) B    9 (A) A   19 (A) B     -0.0087
     8 (A) A   7 (A) B    9 (A) A   28 (A) B      0.0085
     4 (A) A   5 (A) A    9 (A) A   10 (A) A     -0.0084
     6 (A) A   7 (A) B    9 (A) A   18 (A) B     -0.0083
     5 (A) A   6 (A) B    9 (A) A   23 (A) B     -0.0080
     3 (A) A   7 (A) B    9 (A) A   18 (A) B     -0.0080
     5 (A) A   7 (A) A    9 (A) A   16 (A) A     -0.0079
     4 (A) A   8 (A) B    9 (A) A   25 (A) B     -0.0077
     7 (A) A   8 (A) B   17 (A) A   20 (A) B     -0.0074
     4 (A) A   7 (A) B   19 (A) A    9 (A) B      0.0074
     5 (A) A   5 (A) B    9 (A) A   13 (A) B      0.0072
     7 (A) A   8 (A) B   19 (A) A   18 (A) B      0.0072
     5 (A) A   8 (A) A    9 (A) A   20 (A) A      0.0069
     4 (A) A   5 (A) B    9 (A) A   18 (A) B      0.0068
     7 (A) A   7 (A) B   20 (A) A   22 (A) B      0.0065
     7 (A) A   8 (A) B   17 (A) A    9 (A) B      0.0065
     5 (A) A   6 (A) B    9 (A) A   14 (A) B     -0.0063
     4 (A) A   7 (A) A    9 (A) A   19 (A) A      0.0061
     4 (A) A   5 (A) B   10 (A) A    9 (A) B      0.0061
     8 (A) A             10 (A) A                 0.0061
     5 (A) A   7 (A) B   11 (A) A   20 (A) B     -0.0060
     4 (A) A   7 (A) B    9 (A) A   14 (A) B     -0.0060
     4 (A) A   8 (A) A    9 (A) A   25 (A) A     -0.0057
     6 (A) A   7 (A) A   19 (A) A   28 (A) A      0.0057
     5 (A) A             38 (A) A                -0.0057
    -----------------------------------------------------

  Density matrix analysis:
  ------------------------
  NOs
    Occupation of frontier NOs:
       0.9583   1.0535
    Number of electrons: 16.000000
    Number of unpaired electrons: n_u =  2.35505, n_u,nl =  2.06250
    NO participation ratio (PR_NO):  3.025146
  
  
  Mulliken Population Analysis
  Atom      Charge (e)              h+              e-           Del q
  --------------------------------------------------------------------
   1 H        0.147928        0.122238       -0.025166        0.097072
   2 C       -0.302604        0.271857       -0.472940       -0.201083
   3 H        0.154492        0.127729       -0.023704        0.104025
   4 C       -0.300519        0.272087       -0.473568       -0.201481
   5 H        0.152867        0.128552       -0.025679        0.102873
   6 H        0.147837        0.121538       -0.022943        0.098594
  --------------------------------------------------------------------
  Sum:       -0.000000        1.044001       -1.044001       -0.000000
  
  Multipole moment analysis of the density matrix
    Molecular charge:                      -0.000000
    Number of electrons:                   16.000000
      Center of electronic charge [Ang]: [ -1.560082,  -0.065534,   0.001962]
    Total nuclear charge:                  16.000000
      Center of nuclear charge [Ang]:    [ -1.560264,  -0.065602,   0.001978]
    Dipole moment [D]:                     0.014973
      Cartesian components [D]:          [ -0.013972,  -0.005230,   0.001277]
    RMS size of the density [Ang]:         1.199672
      Cartesian components [Ang]:        [  0.786575,   0.768131,   0.480092]
  
  Exciton analysis of the difference density matrix
    <r_h> [Ang]:                  [ -1.559523,  -0.064029,   0.002160]
    <r_e> [Ang]:                  [ -1.557471,  -0.062750,   0.002079]
    |<r_e - r_h>| [Ang]:            0.002419
    Hole size [Ang]:                1.485568
      Cartesian components [Ang]: [  0.996510,   1.003775,   0.454218]
    Electron size [Ang]:            1.476671
      Cartesian components [Ang]: [  0.880002,   0.859981,   0.816448]

  Transition density matrix analysis:
  -----------------------------------
  
  CT numbers (Mulliken)
    omega =     0.9218
    <Phe> =    -0.0122
  
  Exciton analysis of the transition density matrix
    Trans. dipole moment [D]:             0.008516
      Cartesian components [D]:         [  0.005181,  -0.004926,  -0.004628]
    <r_h> [Ang]:                        [ -1.559706,  -0.063926,   0.002210]
    <r_e> [Ang]:                        [ -1.557174,  -0.062633,   0.002041]
    |<r_e - r_h>| [Ang]:                  0.002848
    Hole size [Ang]:                      1.514085
      Cartesian components [Ang]:       [  1.018876,   1.028352,   0.443662]
    Electron size [Ang]:                  1.473867
      Cartesian components [Ang]:       [  0.870728,   0.849376,   0.832272]
    RMS electron-hole separation [Ang]:   2.093173
      Cartesian components [Ang]:       [  1.324390,   1.318808,   0.942396]
    Covariance(r_h, r_e) [Ang^2]:         0.041685
    Correlation coefficient:              0.018680
    Center-of-mass size [Ang]:            1.066314
      Cartesian components [Ang]:       [  0.677965,   0.674285,   0.471941]

  Decomposition into state-averaged NTOs
    H- 1 -> L+ 0: -0.6617 ( 87.6%)
    H- 0 -> L+ 2: -0.1478 (  4.4%)
                   omega =  92.2%
  ----------------------------------------------------------------------------


  Excited state 3 (singlet, A)                                     [converged]
  ----------------------------------------------------------------------------
  Term symbol:  4 (1) A                                     R^2 =  5.20802e-13

  Total energy:                                            -77.9823785771 a.u.
  Excitation energy:                                               9.174275 eV

  Osc. strength:                                                      0.025362
  Trans. dip. moment [a.u.]:           [  -0.015468,   -0.020315,    0.334942]
  <i|r^2|0> [a.u.]:                    [  -0.093498,   -0.003504,   -0.001297]
  Two-photon absorption cross-section (SoS) [a.u.]:                   0.002752
  Two-photon absorption matrix (SoS) [a.u.]:
                                       |   -0.015251   -0.001551    0.006867 |
                                       |   -0.001551    0.012927    0.009411 |
                                       |    0.006867    0.009411   -0.001845 |
  Two-photon absorption cross-section [a.u.]:                         0.001472
  Two-photon absorption matrix [a.u.]:
                                       |   -0.012660   -0.000473    0.007506 |
                                       |   -0.000473    0.008832    0.000381 |
                                       |    0.007506    0.000381   -0.001483 |

  Dip. moment [a.u.]:                  [  -0.022900,    0.013182,   -0.000825]
  Total dipole [Debye]:                                               0.067193
  <r^2> [a.u.]:                        [ 180.609788,   40.615164,   11.026400]
  Total <r^2> [a.u.]:                                               232.251352

  V1^2 = 0.9588, V2^2 = 0.0412

  Important amplitudes:
      occ i     occ j     vir a      vir b          v   
    -----------------------------------------------------
     8 (A) A             10 (A) A                -0.6891
     8 (A) A             24 (A) A                -0.0507
     8 (A) A             18 (A) A                 0.0311
     4 (A) A              9 (A) A                -0.0237
     8 (A) A   8 (A) B    9 (A) A   12 (A) B      0.0219
     8 (A) A   8 (A) B   10 (A) A   17 (A) B     -0.0173
     8 (A) A             15 (A) A                -0.0170
     5 (A) A   8 (A) B   11 (A) A   10 (A) B     -0.0165
     7 (A) A   8 (A) B   13 (A) A   10 (A) B      0.0141
     4 (A) A   8 (A) B   12 (A) A   10 (A) B      0.0111
     6 (A) A   8 (A) A   10 (A) A   15 (A) A     -0.0110
     7 (A) A   8 (A) B   22 (A) A   10 (A) B      0.0108
     6 (A) A   8 (A) B   15 (A) A   10 (A) B      0.0108
     4 (A) A   8 (A) A   10 (A) A   12 (A) A     -0.0106
     7 (A) A   8 (A) A   10 (A) A   22 (A) A     -0.0099
     7 (A) A   8 (A) A   10 (A) A   13 (A) A     -0.0097
     5 (A) A   8 (A) B   21 (A) A   10 (A) B     -0.0094
     5 (A) A   8 (A) A   10 (A) A   11 (A) A      0.0094
     6 (A) A   8 (A) A   10 (A) A   18 (A) A     -0.0088
     6 (A) A   8 (A) B   10 (A) A   10 (A) B     -0.0087
     7 (A) A   8 (A) A   12 (A) A   16 (A) A     -0.0082
     5 (A) A   8 (A) A   10 (A) A   21 (A) A      0.0080
     3 (A) A   4 (A) B   10 (A) A    9 (A) B      0.0079
     4 (A) A   8 (A) B   19 (A) A   10 (A) B     -0.0075
     8 (A) A   8 (A) B    9 (A) A   23 (A) B      0.0075
     8 (A) A   8 (A) B   10 (A) A   28 (A) B      0.0073
     3 (A) A   8 (A) B   10 (A) A   10 (A) B     -0.0072
     5 (A) A   8 (A) B   10 (A) A   11 (A) B     -0.0071
     3 (A) A   8 (A) A   10 (A) A   24 (A) A      0.0071
     7 (A) A   8 (A) B   16 (A) A   12 (A) B      0.0070
     3 (A) A   8 (A) B   10 (A) A   18 (A) B      0.0069
     8 (A) A   8 (A) B    9 (A) A   19 (A) B     -0.0068
     6 (A) A   8 (A) B   18 (A) A   10 (A) B      0.0067
     7 (A) A              9 (A) A                -0.0063
     3 (A) A   6 (A) B   10 (A) A   28 (A) B     -0.0062
     7 (A) A   8 (A) B   12 (A) A   11 (A) B     -0.0057
     6 (A) A             28 (A) A                 0.0057
     3 (A) A   5 (A) B   10 (A) A   25 (A) B      0.0056
     5 (A) A   8 (A) A   10 (A) A   16 (A) A     -0.0056
     3 (A) A   8 (A) A   10 (A) A   18 (A) A      0.0056
    -----------------------------------------------------

  Density matrix analysis:
  ------------------------
  NOs
    Occupation of frontier NOs:
       0.9815   0.9850
    Number of electrons: 16.000000
    Number of unpaired electrons: n_u =  2.28507, n_u,nl =  2.02437
    NO participation ratio (PR_NO):  2.691356
  
  
  Mulliken Population Analysis
  Atom      Charge (e)              h+              e-           Del q
  --------------------------------------------------------------------
   1 H       -0.166716        0.053640       -0.271212       -0.217572
   2 C        0.328731        0.539949       -0.109697        0.430253
   3 H       -0.166829        0.053898       -0.271194       -0.217297
   4 C        0.329230        0.536485       -0.108217        0.428268
   5 H       -0.162827        0.053886       -0.266707       -0.212821
   6 H       -0.161588        0.053922       -0.264752       -0.210830
  --------------------------------------------------------------------
  Sum:       -0.000000        1.291779       -1.291779        0.000000
  
  Multipole moment analysis of the density matrix
    Molecular charge:                      0.000000
    Number of electrons:                   16.000000
      Center of electronic charge [Ang]: [ -1.559506,  -0.066038,   0.002005]
    Total nuclear charge:                  16.000000
      Center of nuclear charge [Ang]:    [ -1.560264,  -0.065602,   0.001978]
    Dipole moment [D]:                     0.067193
      Cartesian components [D]:          [ -0.058207,   0.033504,  -0.002097]
    RMS size of the density [Ang]:         1.276083
      Cartesian components [Ang]:        [  0.853776,   0.840522,   0.439292]
  
  Exciton analysis of the difference density matrix
    <r_h> [Ang]:                  [ -1.559067,  -0.066936,   0.001836]
    <r_e> [Ang]:                  [ -1.550279,  -0.072144,   0.002315]
    |<r_e - r_h>| [Ang]:            0.010227
    Hole size [Ang]:                1.410095
      Cartesian components [Ang]: [  0.833492,   0.819981,   0.788220]
    Electron size [Ang]:            2.076071
      Cartesian components [Ang]: [  1.372328,   1.377720,   0.727100]

  Transition density matrix analysis:
  -----------------------------------
  
  CT numbers (Mulliken)
    omega =     0.9260
    <Phe> =    -0.0109
  
  Exciton analysis of the transition density matrix
    Trans. dipole moment [D]:             0.426903
      Cartesian components [D]:         [ -0.019658,  -0.025818,   0.425668]
    <r_h> [Ang]:                        [ -1.560199,  -0.066376,   0.001710]
    <r_e> [Ang]:                        [ -1.546958,  -0.074434,   0.002435]
    |<r_e - r_h>| [Ang]:                  0.015517
    Hole size [Ang]:                      1.212991
      Cartesian components [Ang]:       [  0.636494,   0.623575,   0.823029]
    Electron size [Ang]:                  2.296333
      Cartesian components [Ang]:       [  1.516650,   1.525351,   0.803880]
    RMS electron-hole separation [Ang]:   2.587173
      Cartesian components [Ang]:       [  1.637370,   1.640939,   1.148829]
    Covariance(r_h, r_e) [Ang^2]:         0.025634
    Correlation coefficient:              0.009203
    Center-of-mass size [Ang]:            1.303434
      Cartesian components [Ang]:       [  0.826121,   0.827415,   0.576063]

  Decomposition into state-averaged NTOs
    H- 0 -> L+ 1: -0.6796 ( 92.4%)
                   omega =  92.6%
  ----------------------------------------------------------------------------


  Excited state 4 (singlet, A)                                     [converged]
  ----------------------------------------------------------------------------
  Term symbol:  5 (1) A                                     R^2 =  3.18093e-13

  Total energy:                                            -77.9578605077 a.u.
  Excitation energy:                                               9.841446 eV

  Osc. strength:                                                      0.000003
  Trans. dip. moment [a.u.]:           [   0.001689,   -0.001359,   -0.003013]
  <i|r^2|0> [a.u.]:                    [   0.026900,    0.019582,   -0.036855]
  Two-photon absorption cross-section (SoS) [a.u.]:                 150.971388
  Two-photon absorption matrix (SoS) [a.u.]:
                                       |    0.287327    0.325894   -2.980626 |
                                       |    0.325894    0.366800   -3.091684 |
                                       |   -2.980626   -3.091684   -0.654250 |
  Two-photon absorption cross-section [a.u.]:                        92.942835
  Two-photon absorption matrix [a.u.]:
                                       |    0.226004    0.255596   -2.326232 |
                                       |    0.255596    0.287483   -2.437710 |
                                       |   -2.326232   -2.437710   -0.513574 |

  Dip. moment [a.u.]:                  [   0.002769,    0.020128,    0.000759]
  Total dipole [Debye]:                                               0.051679
  <r^2> [a.u.]:                        [ 181.012118,   40.749051,   10.762731]
  Total <r^2> [a.u.]:                                               232.523900

  V1^2 = 0.9635, V2^2 = 0.0365

  Important amplitudes:
      occ i     occ j     vir a      vir b          v   
    -----------------------------------------------------
     8 (A) A             11 (A) A                -0.6699
     7 (A) A              9 (A) A                -0.1498
     8 (A) A             21 (A) A                -0.0781
     8 (A) A             16 (A) A                 0.0643
     8 (A) A   8 (A) B    9 (A) A   13 (A) B     -0.0167
     5 (A) A   8 (A) B   11 (A) A   11 (A) B     -0.0155
     8 (A) A   8 (A) B   11 (A) A   17 (A) B     -0.0140
     7 (A) A             20 (A) A                 0.0137
     7 (A) A   8 (A) B   13 (A) A   11 (A) B      0.0128
     5 (A) A   8 (A) A   11 (A) A   21 (A) A      0.0110
     4 (A) A   8 (A) B   12 (A) A   11 (A) B      0.0110
     8 (A) A   8 (A) B    9 (A) A   22 (A) B     -0.0107
     7 (A) A   8 (A) A   11 (A) A   22 (A) A     -0.0097
     6 (A) A   8 (A) B   15 (A) A   11 (A) B      0.0090
     6 (A) A   8 (A) B   10 (A) A   11 (A) B     -0.0090
     7 (A) A   8 (A) B   22 (A) A   11 (A) B      0.0089
     3 (A) A   4 (A) B   11 (A) A    9 (A) B      0.0083
     3 (A) A   8 (A) B   11 (A) A   18 (A) B      0.0081
     6 (A) A   8 (A) A   11 (A) A   15 (A) A     -0.0080
     7 (A) A   8 (A) A   13 (A) A   16 (A) A      0.0078
     7 (A) A   8 (A) A   11 (A) A   13 (A) A     -0.0077
     5 (A) A   8 (A) B   21 (A) A   11 (A) B     -0.0071
     4 (A) A   8 (A) B   19 (A) A   11 (A) B     -0.0070
     5 (A) A   8 (A) B    9 (A) A    9 (A) B     -0.0067
     4 (A) A   8 (A) A   11 (A) A   12 (A) A     -0.0063
     6 (A) A   8 (A) A   11 (A) A   18 (A) A     -0.0062
     3 (A) A   6 (A) B   11 (A) A   28 (A) B     -0.0061
     6 (A) A   8 (A) B   18 (A) A   11 (A) B      0.0060
     7 (A) A   8 (A) B   16 (A) A   13 (A) B     -0.0057
     3 (A) A   8 (A) A   11 (A) A   18 (A) A      0.0056
     5 (A) A   8 (A) B   10 (A) A   10 (A) B     -0.0056
     3 (A) A   8 (A) B   11 (A) A   30 (A) B      0.0055
     3 (A) A   5 (A) B   11 (A) A   25 (A) B      0.0055
     6 (A) A   8 (A) B   11 (A) A   10 (A) B     -0.0054
     7 (A) A   8 (A) B   12 (A) A   10 (A) B     -0.0054
     8 (A) A   8 (A) B   20 (A) A   22 (A) B      0.0053
     3 (A) A   8 (A) A   11 (A) A   24 (A) A      0.0053
     5 (A) A   8 (A) A   11 (A) A   16 (A) A     -0.0048
     6 (A) A   8 (A) A   10 (A) A   16 (A) A     -0.0048
     8 (A) A   8 (A) B   11 (A) A   28 (A) B      0.0044
    -----------------------------------------------------

  Density matrix analysis:
  ------------------------
  NOs
    Occupation of frontier NOs:
       0.9411   1.0274
    Number of electrons: 16.000000
    Number of unpaired electrons: n_u =  2.31884, n_u,nl =  2.04879
    NO participation ratio (PR_NO):  2.911617
  
  
  Mulliken Population Analysis
  Atom      Charge (e)              h+              e-           Del q
  --------------------------------------------------------------------
   1 H       -0.136247        0.045962       -0.233064       -0.187103
   2 C        0.275423        0.497830       -0.120886        0.376944
   3 H       -0.141439        0.046771       -0.238677       -0.191907
   4 C        0.276818        0.496602       -0.120746        0.375856
   5 H       -0.134442        0.046826       -0.231262       -0.184436
   6 H       -0.140112        0.046060       -0.235414       -0.189355
  --------------------------------------------------------------------
  Sum:       -0.000000        1.180050       -1.180050        0.000000
  
  Multipole moment analysis of the density matrix
    Molecular charge:                      0.000000
    Number of electrons:                   16.000000
      Center of electronic charge [Ang]: [ -1.560355,  -0.066268,   0.001953]
    Total nuclear charge:                  16.000000
      Center of nuclear charge [Ang]:    [ -1.560264,  -0.065602,   0.001978]
    Dipole moment [D]:                     0.051679
      Cartesian components [D]:          [  0.007038,   0.051161,   0.001928]
    RMS size of the density [Ang]:         1.276902
      Cartesian components [Ang]:        [  0.856345,   0.841896,   0.434008]
  
  Exciton analysis of the difference density matrix
    <r_h> [Ang]:                  [ -1.560086,  -0.066411,   0.001802]
    <r_e> [Ang]:                  [ -1.561977,  -0.075229,   0.001616]
    |<r_e - r_h>| [Ang]:            0.009020
    Hole size [Ang]:                1.394749
      Cartesian components [Ang]: [  0.817785,   0.807130,   0.790628]
    Electron size [Ang]:            2.124913
      Cartesian components [Ang]: [  1.424621,   1.422875,   0.679073]

  Transition density matrix analysis:
  -----------------------------------
  
  CT numbers (Mulliken)
    omega =     0.9298
    <Phe> =    -0.0134
  
  Exciton analysis of the transition density matrix
    Trans. dipole moment [D]:             0.004717
      Cartesian components [D]:         [  0.002146,  -0.001727,  -0.003829]
    <r_h> [Ang]:                        [ -1.560204,  -0.065726,   0.001763]
    <r_e> [Ang]:                        [ -1.562249,  -0.077057,   0.001554]
    |<r_e - r_h>| [Ang]:                  0.011517
    Hole size [Ang]:                      1.227826
      Cartesian components [Ang]:       [  0.658412,   0.649306,   0.807745]
    Electron size [Ang]:                  2.263425
      Cartesian components [Ang]:       [  1.517178,   1.516787,   0.721543]
    RMS electron-hole separation [Ang]:   2.564379
      Cartesian components [Ang]:       [  1.645459,   1.642086,   1.082616]
    Covariance(r_h, r_e) [Ang^2]:         0.027372
    Correlation coefficient:              0.009849
    Center-of-mass size [Ang]:            1.292806
      Cartesian components [Ang]:       [  0.831135,   0.828879,   0.541778]

  Decomposition into state-averaged NTOs
    H- 0 -> L+ 2:  0.6649 ( 88.4%)
    H- 1 -> L+ 0: -0.1478 (  4.4%)
                   omega =  93.0%
  ----------------------------------------------------------------------------


  Excited state 5 (singlet, A)                                     [converged]
  ----------------------------------------------------------------------------
  Term symbol:  6 (1) A                                     R^2 =  4.30709e-13

  Total energy:                                            -77.9440911802 a.u.
  Excitation energy:                                              10.216128 eV

  Osc. strength:                                                      0.000001
  Trans. dip. moment [a.u.]:           [   0.000272,    0.000308,   -0.001462]
  <i|r^2|0> [a.u.]:                    [   0.090304,   -0.103421,    0.014964]
  Two-photon absorption cross-section (SoS) [a.u.]:                 175.657387
  Two-photon absorption matrix (SoS) [a.u.]:
                                       |    0.323579    0.047153   -3.385209 |
                                       |    0.047153   -0.380930    3.220010 |
                                       |   -3.385209    3.220010    0.062122 |
  Two-photon absorption cross-section [a.u.]:                        77.938588
  Two-photon absorption matrix [a.u.]:
                                       |    0.216270    0.031423   -2.246123 |
                                       |    0.031423   -0.253231    2.154040 |
                                       |   -2.246123    2.154040    0.042928 |

  Dip. moment [a.u.]:                  [   0.013831,   -0.021048,   -0.000394]
  Total dipole [Debye]:                                               0.064023
[...]
    16   -1.482035792442e-03
    17   -1.773815383390e-03
    18    2.193913433871e-05
    19   -3.385778858333e-03
    20    1.048211220300e-02
    21    9.350816544281e-01
    22   -2.609432381988e-04
    23    1.400894867390e-02
    24    8.166144593989e-04
    25    6.986774479996e-02
    26   -5.176000196324e-02
    27   -1.397880765263e+00
    28    9.653529690543e-02
    29   -9.325588346253e-02
    30   -1.116102944721e-03
    31    3.815271611795e-01
    32   -3.633068234236e-01
    33   -4.107873880877e-03
    34    1.568203400819e-02
    35   -1.480958962420e-03
    36   -1.790449915493e-03
    37   -1.340554051833e-04
    38   -3.105739204257e-03
    39    9.677208040185e-03
    40    9.325386801014e-01
    41    2.156728838084e-04
    42   -1.394355545090e-02
    43   -8.318967979559e-04
    44    9.514161197389e-03
    45    9.353150123628e-01
    46    1.413213567371e-02
    47    3.732691862927e-04
    48    6.882165222653e-04
Sym=X
Ene= 0.233157
Spin=Alpha
Occup=0
     1    2.529552678370e-02
     2    1.202339209967e+00
     3   -1.387872707871e-02
     4   -3.560461332735e-03
     5   -8.609729668553e-04
     6    2.930219600493e-04
     7   -8.199430432097e-04
     8    9.254766642126e-04
     9   -1.532954496289e-01
    10   -1.607169349535e-01
    11   -1.669166087357e-02
    12   -5.496715019639e-01
    13   -5.675688847588e-01
    14   -5.925777453285e-02
    15   -1.687216763211e-04
    16    4.585747463839e-06
    17    4.210148127844e-05
    18   -4.406205159957e-04
    19    2.872046836119e-05
    20   -2.520517090631e-02
    21   -1.196546531582e+00
    22   -2.724392917064e-03
    23   -1.415500017576e-02
    24   -9.645908274456e-04
    25   -5.073118403577e-04
    26    8.706775034509e-04
    27    7.095180340031e-03
    28   -1.519154986170e-01
    29   -1.600702310550e-01
    30   -1.686326509458e-02
    31   -5.432119414474e-01
    32   -5.613983576803e-01
    33   -5.972316669347e-02
    34   -1.048179481227e-04
    35    3.013199705607e-05
    36   -2.920469493146e-05
    37    4.346344797387e-04
    38    1.329727913869e-04
    39    2.573898330815e-02
    40    1.186189590781e+00
    41   -2.634091807524e-03
    42   -1.400727407929e-02
    43   -9.685926080870e-04
    44   -2.504876852687e-02
    45   -1.201594087900e+00
    46   -1.404657650550e-02
    47   -3.565991379003e-03
    48   -8.832554586693e-04
Sym=X
Ene= 0.239613
Spin=Alpha
Occup=0
     1   -1.629575393485e-02
     2   -1.084581231877e+00
     3    1.694945251103e-02
     4    9.194050408068e-03
     5    1.355438921895e-03
     6   -8.625705500304e-02
     7    7.938765844770e-02
     8    1.590114166532e+00
     9    5.759674301537e-02
    10   -5.567229321259e-02
    11   -4.628221063314e-04
    12    2.263755990999e-01
    13   -2.165507184098e-01
    14   -1.609385854431e-03
    15   -2.251859640948e-02
    16    2.622034743991e-03
    17    2.946502800740e-03
    18   -3.258568464983e-04
    19    1.284510454388e-02
    20   -1.660467918697e-02
    21   -1.086368553151e+00
    22   -8.482596177384e-03
    23   -1.729599621028e-02
    24   -1.421281643236e-03
    25    8.665289327371e-02
    26   -7.935176426126e-02
    27   -1.607628375138e+00
    28    5.731613296941e-02
    29   -5.723750506311e-02
    30   -8.861375214232e-04
    31    2.269146213994e-01
    32   -2.263102659046e-01
    33   -3.500774072062e-03
    34    2.286577961144e-02
    35   -2.617943707771e-03
    36   -3.042272949453e-03
    37    6.326308912108e-04
    38   -1.286153952595e-02
    39    1.583367943600e-02
    40    1.101783946914e+00
    41   -8.612302019785e-03
    42   -1.761413988318e-02
    43   -1.472892284512e-03
    44    1.569818534617e-02
    45    1.090632638354e+00
    46    1.710820972641e-02
    47    9.391557485811e-03
    48    1.358516204442e-03
Sym=X
Ene= 0.303292
Spin=Alpha
Occup=0
     1   -2.044575862566e-02
     2    1.689126070820e+00
     3   -2.281242431744e-02
     4    2.890386142209e-04
     5   -1.068244669065e-03
     6   -2.610475097050e-04
     7    1.547883840066e-05
     8    5.778730984762e-03
     9   -1.335291614208e-01
    10   -1.394428588675e-01
    11   -1.454813317532e-02
    12   -1.144594987240e+00
    13   -1.192485309165e+00
    14   -1.249477176444e-01
    15   -1.483680160867e-04
    16   -1.634907820154e-03
    17    1.848223838930e-03
    18   -3.245577115194e-02
    19   -1.555292035146e-03
    20    1.960350457501e-02
    21   -1.690148262111e+00
    22    1.402396106115e-03
    23   -2.289258839698e-02
    24   -1.280052564084e-03
    25    2.254013651995e-04
    26    2.694528864753e-04
    27   -2.051941292636e-02
    28    1.344841495662e-01
    29    1.403312098771e-01
    30    1.480486671435e-02
    31    1.141737773051e+00
    32    1.200751999513e+00
    33    1.258371990461e-01
    34    3.281125030092e-04
    35   -1.651412933650e-03
    36    1.852825375072e-03
    37   -3.253902786505e-02
    38   -1.884172871635e-03
    39    1.937156250783e-02
    40   -1.693776370756e+00
    41   -1.697909837973e-03
    42    2.277036740636e-02
    43    1.286474481989e-03
    44   -2.071000065184e-02
    45    1.711076349134e+00
    46    2.308417572806e-02
    47   -3.433671469576e-04
    48    1.073464829475e-03
Sym=X
Ene= 0.462077
Spin=Alpha
Occup=0
     1   -1.153444651977e-01
     2   -7.138239317876e-01
     3   -1.570514720807e-02
     4   -1.029870572368e-02
     5   -1.346225441227e-03
     6    6.078914499976e-02
     7    1.715781611228e-02
     8   -3.591340470924e+00
     9    1.033667990743e-01
    10   -9.928375878054e-02
    11   -9.850121494091e-04
    12    2.424265739979e+00
    13   -2.303689569763e+00
    14   -2.120025819401e-02
    15    5.362879945620e-02
    16   -3.359789060580e-03
    17   -4.629357449342e-03
    18   -8.384979241357e-04
    19    1.802255534359e-02
    20   -1.210420135122e-01
    21   -7.040883842299e-01
    22    8.689385413236e-03
    23    1.635334259809e-02
    24    1.378107760461e-03
    25   -6.079862496113e-02
    26   -1.630485305778e-02
    27    3.585155454363e+00
    28    1.050155500235e-01
    29   -1.000897124750e-01
    30   -1.145784321860e-03
    31    2.427434000955e+00
    32   -2.296083552750e+00
    33   -2.146689172582e-02
    34   -5.266170911211e-02
    35    3.282258379354e-03
    36    4.548825684264e-03
    37    4.579848552132e-04
    38   -1.881062750851e-02
    39    1.154303353848e-01
    40    7.065423259056e-01
    41    8.588144805442e-03
    42    1.633314883403e-02
    43    1.382432576301e-03
    44    1.104060404493e-01
    45    7.267640561921e-01
    46   -1.551375585542e-02
    47   -9.866602279828e-03
    48   -1.336600585014e-03
Sym=X
Ene= 0.577405
Spin=Alpha
Occup=0
     1    2.453782560093e-01
     2    4.307167892333e-02
     3   -1.863822899747e-02
     4    2.593260110202e-02
     5    6.508552716990e-04
     6   -4.520451359864e-03
     7   -1.567890823141e-01
     8   -4.613108544428e-01
     9    2.982716082325e-01
    10   -2.875769895014e-01
    11   -2.920685762562e-03
    12   -7.230282747886e-01
    13    6.989951853514e-01
    14    7.262682297058e-03
    15   -6.084353625043e-03
    16    3.868431972728e-03
    17    3.794024837614e-03
    18   -4.893887198862e-03
    19    6.021827009694e-02
    20    2.577091794423e-01
    21    2.861321964423e-02
    22   -2.628367002756e-02
    23    1.613446908906e-02
    24   -2.914314544463e-04
    25   -5.429844811172e-03
    26   -1.570538136432e-01
    27   -4.185143630873e-01
    28   -2.978442802641e-01
    29    2.845816217574e-01
    30    2.736106825921e-03
    31    7.645395492245e-01
    32   -7.256846807827e-01
    33   -7.076101149926e-03
    34   -5.917739441893e-03
    35    3.925552498217e-03
    36    3.694607642091e-03
    37   -3.412641678892e-03
    38    6.020760635317e-02
    39    2.489056217998e-01
    40    4.818415955030e-02
    41    2.733738029843e-02
    42   -1.707952835139e-02
    43    2.703513636209e-04
    44    2.522556238528e-01
    45    5.798266334578e-02
    46    1.762647523643e-02
    47   -2.526990607629e-02
    48   -6.805311605992e-04
Sym=X
Ene= 0.615497
Spin=Alpha
Occup=0
     1   -5.245781983807e-01
     2    1.997861887340e-01
     3   -6.147400918322e-02
     4    3.747898338656e-02
     5   -7.147057738908e-04
     6   -5.739747794883e-04
     7   -3.203509416539e-04
     8   -1.370729204712e-02
     9   -4.073882206988e-02
    10   -3.783477403997e-02
    11   -4.222644677542e-03
    12    3.078102662285e-01
    13    2.740455680520e-01
    14    3.056685907578e-02
    15    2.091623843176e-03
    16   -7.656123841239e-03
    17    8.215817903455e-03
    18   -1.482190149461e-01
    19   -6.984988304088e-03
    20    5.068264546176e-01
    21   -2.074200949682e-01
    22    4.207492785367e-02
    23   -5.861223757531e-02
    24   -1.480364662834e-03
    25    2.354179018356e-04
    26    5.172389698820e-04
    27    2.187861994778e-02
    28   -4.046936139632e-02
    29   -4.186793210982e-02
    30   -4.370992118474e-03
    31    3.087356270573e-01
    32    2.965311008547e-01
    33    3.262041349555e-02
    34   -3.389029412575e-04
    35    7.329104950234e-03
    36   -8.644879195600e-03
    37    1.486353882000e-01
    38    5.783383449950e-03
    39   -5.188569571245e-01
    40    2.052108002789e-01
    41    4.063494054542e-02
    42   -5.876992824065e-02
    43   -1.588768973818e-03
    44    5.157996345911e-01
    45   -1.899590960191e-01
    46   -6.122512594781e-02
    47    3.787568816143e-02
    48   -6.125448034694e-04
Sym=X
Ene= 0.689200
Spin=Alpha
Occup=0
     1    2.900946086597e-04
     2    1.325323429542e-04
     3    1.048947521405e-03
     4    1.261838882000e-03
     5   -2.102621231398e-02
     6    2.166131202731e-05
     7    2.533989058500e-04
     8   -1.326315892099e-05
     9    3.159294448032e-02
    10    3.979075386011e-02
    11   -6.704325770876e-01
    12   -2.919450657103e-02
    13   -3.601792643141e-02
    14    6.135386216676e-01
    15   -1.356808857736e-03
    16    8.266216096234e-02
    17   -7.826097085667e-02
    18   -8.630644662720e-03
    19   -1.123016092489e-03
    20    3.559986611844e-04
    21   -1.388558303141e-04
    22    9.373434267104e-04
    23    1.162335263885e-03
    24   -2.093896118915e-02
    25    8.486244107891e-06
    26    3.763645162801e-04
    27   -3.619258007074e-04
    28    3.197258027767e-02
    29    3.994153224598e-02
    30   -6.699634364246e-01
    31   -2.968535314685e-02
    32   -3.630197454159e-02
    33    6.134259885424e-01
    34    1.149477887792e-03
    35   -8.287878272623e-02
    36    7.844233092691e-02
    37    8.548633133900e-03
    38    1.200041531645e-03
    39    1.389865072013e-04
    40   -4.995781352329e-04
    41    1.024437679363e-03
    42    1.358752195919e-03
    43   -2.101682959193e-02
    44    8.203583882635e-05
    45   -2.314746414391e-04
    46    9.585401421145e-04
    47    1.318462071846e-03
    48   -2.189603438882e-02
Sym=X
Ene= 0.709374
Spin=Alpha
Occup=0
     1   -4.757401738136e-01
     2    1.602851297995e-01
     3   -8.101571523613e-02
     4   -4.470679730337e-02
     5   -6.510692940826e-03
     6   -4.839555660409e-02
     7   -3.194520333596e-01
     8    5.134715767656e-01
     9    2.033354183866e-01
    10   -1.922010038978e-01
    11   -2.142668845574e-03
    12   -1.017259317741e-01
    13    8.444554658393e-02
    14    3.723503468407e-04
    15    1.955223220692e-01
    16   -2.056326762738e-02
    17   -2.412023913307e-02
    18    3.914662738834e-03
    19   -7.749896782721e-02
    20   -4.843593992534e-01
    21    1.557838014453e-01
    22    4.075053601653e-02
    23    8.284775389302e-02
    24    6.810281581696e-03
    25   -4.635063456888e-02
    26   -3.247081514954e-01
    27    4.654191352160e-01
    28   -2.029547465612e-01
    29    1.944330195941e-01
    30    1.561463699783e-03
    31    5.434216711370e-02
    32   -5.682339531391e-02
    33   -1.057865628618e-04
    34    1.926522386472e-01
    35   -2.037493426792e-02
    36   -2.375603422054e-02
    37    2.306978395817e-03
    38   -7.547325777479e-02
    39   -4.670622112813e-01
    40    1.360797396688e-01
    41   -4.079205387916e-02
    42   -8.055666529654e-02
    43   -6.747305176332e-03
    44   -4.703030821120e-01
    45    1.304853448266e-01
    46    8.003399926799e-02
    47    4.385006317692e-02
    48    6.422176210720e-03
Sym=X
Ene= 0.785259
Spin=Alpha
Occup=0
     1    5.260927535541e-01
     2   -4.674383747842e-01
     3    1.100523080560e-01
     4    2.518267818701e-02
     5    6.706976749990e-03
     6    9.069756886170e-02
     7   -2.197294130870e-01
     8   -6.365244588416e-01
     9    1.128521065604e-01
    10   -1.076156558647e-01
    11   -3.139113673077e-04
    12    3.149244477038e-01
    13   -2.919812258970e-01
    14   -3.699036592869e-03
    15   -2.049791407754e-01
    16    1.737098739944e-02
    17    2.153021797561e-02
    18   -1.009163074932e-03
    19    8.486245343112e-03
    20    5.307154287740e-01
    21   -4.673810401309e-01
    22   -2.046625017891e-02
    23   -1.116645744994e-01
    24   -7.558590286846e-03
    25   -9.198067144680e-02
    26    2.066993941356e-01
    27    6.682247873987e-01
    28    1.162360684932e-01
    29   -1.002830617081e-01
    30   -1.051556684216e-03
    31    2.945612769116e-01
    32   -2.993626933906e-01
    33   -2.498731354432e-03
    34    2.097354724981e-01
    35   -1.771881594662e-02
    36   -2.256713156414e-02
    37    3.014681307437e-03
    38   -9.140708564851e-03
    39   -5.445602682454e-01
    40    4.761868983622e-01
    41   -2.097765011710e-02
    42   -1.146888943491e-01
    43   -7.865538275079e-03
    44   -5.327968778571e-01
    45    4.471451427139e-01
    46    1.099828521918e-01
    47    2.664794198692e-02
    48    6.817520572233e-03
Sym=X
Ene= 0.808001
Spin=Alpha
Occup=0
     1    4.287866272797e-04
     2   -8.444744839473e-04
     3    1.762933579328e-03
     4    2.024583410786e-03
     5   -3.379337462949e-02
     6    8.455118600576e-05
     7   -2.778804251639e-04
     8   -9.141977773548e-05
     9    3.622997002212e-02
    10    4.484807747234e-02
    11   -7.629586231275e-01
    12   -5.299630081137e-02
    13   -6.665438470071e-02
    14    1.127045558749e+00
    15    7.554683046727e-04
    16   -6.523000698123e-02
    17    6.177910383111e-02
    18    6.869884068062e-03
    19    8.820819070505e-04
    20    4.147562090088e-04
    21   -1.039219615054e-04
    22    1.676927317313e-03
    23    1.962689121023e-03
    24   -3.446977315695e-02
    25   -7.617037477864e-05
    26    5.899145313988e-05
    27    2.284636255881e-04
    28   -3.620525912423e-02
    29   -4.584799621144e-02
    30    7.630687063520e-01
    31    5.404457470715e-02
    32    6.729382283933e-02
    33   -1.127306318009e+00
    34    1.245846076544e-03
    35   -6.520217047281e-02
    36    6.177850622847e-02
    37    6.671327233040e-03
    38    9.669758547285e-04
    39   -4.251133487857e-04
    40    1.697112826646e-04
    41   -1.563265745719e-03
    42   -2.170678875140e-03
    43    3.416152280132e-02
    44   -4.255968718344e-04
    45    8.801903582224e-04
    46   -1.438681234674e-03
    47   -2.063185052561e-03
    48    3.471936000025e-02
Sym=X
Ene= 0.862597
Spin=Alpha
Occup=0
     1    1.728312655340e-02
     2   -1.104480119149e+00
     3    1.501785674407e-01
     4    5.622163757373e-02
     5    1.043743056733e-02
     6    6.665256428375e-04
     7   -3.795851149391e-03
     8    6.413060333156e-03
     9   -4.079373483256e-01
    10   -4.330656253323e-01
    11   -4.469652682732e-02
    12    9.530243292836e-01
    13    1.005267588141e+00
    14    1.040720557186e-01
    15   -1.784380622068e-03
    16    1.185964127618e-02
    17   -1.348164056558e-02
    18    2.363888566753e-01
    19    8.805273404941e-03
    20   -1.346997074334e-02
    21    1.106889857862e+00
    22    5.028516638112e-02
    23    1.518566756266e-01
    24    1.138518541692e-02
    25   -8.659673827478e-04
    26   -1.209434185510e-03
    27   -1.007334420588e-03
    28   -4.007045752166e-01
    29   -4.283630666548e-01
    30   -4.489369494537e-02
    31    9.392547231693e-01
    32    1.000772303203e+00
    33    1.049927145693e-01
    34    2.817453019084e-03
    35   -1.200691956962e-02
    36    1.335211701103e-02
    37   -2.365546912539e-01
    38   -1.009739019222e-02
    39    7.470208878676e-03
    40   -1.098757535860e+00
    41    4.900391677900e-02
    42    1.502004721658e-01
    43    1.133921189074e-02
    44   -1.243036699712e-02
    45    1.094377220357e+00
    46    1.487796702355e-01
    47    5.560166770505e-02
    48    1.034241438691e-02
Sym=X
Ene= 0.936591
Spin=Alpha
Occup=0
     1    1.100366624361e-01
     2   -1.276388657664e+00
     3    1.796048777684e-01
     4   -5.048420637554e-03
     5    8.241933212778e-03
     6   -4.824200544066e-04
     7    9.972987814413e-03
     8   -2.005150411436e-02
     9   -4.751628657360e-01
    10   -4.932771511151e-01
    11   -5.174165143063e-02
    12    1.475764995515e+00
    13    1.531315115430e+00
    14    1.606954545035e-01
    15    1.966744216174e-03
    16    5.729855718533e-03
    17   -6.839493193775e-03
    18    1.178439176874e-01
    19    4.454717692360e-03
    20   -1.158943414356e-01
    21    1.281974349956e+00
    22   -1.222777725376e-02
    23    1.823557398325e-01
    24    1.016043387387e-02
    25    8.861564091567e-04
    26    1.127445683527e-02
    27   -8.553445159699e-03
    28    4.700829787758e-01
    29    5.052094646964e-01
    30    5.248374314368e-02
    31   -1.465466617708e+00
    32   -1.560125377460e+00
    33   -1.626951290288e-01
    34   -2.471914988334e-03
    35    6.146414176197e-03
    36   -7.068886588782e-03
    37    1.226488258715e-01
    38    2.346951172292e-03
    39   -1.132839415830e-01
    40    1.303384177025e+00
    41    1.233975699691e-02
    42   -1.837248524199e-01
    43   -1.040882833477e-02
    44    1.152226352192e-01
    45   -1.289064477907e+00
    46   -1.822908112155e-01
    47    6.264441271643e-03
    48   -8.292169547304e-03
Sym=X
Ene= 0.972646
Spin=Alpha
Occup=0
     1   -6.526220708100e-02
     2    9.238919483050e-01
     3   -9.096003155689e-02
     4   -9.908709618495e-02
     5   -1.021141532996e-02
     6    2.523289201904e-02
     7    2.618774370125e-01
     8    5.041063375319e-01
     9    4.788658600853e-01
    10   -4.589141180309e-01
    11   -4.350697266925e-03
    12   -1.487613373151e+00
    13    1.424969338267e+00
    14    1.350046918434e-02
    15   -5.358715753036e-02
    16   -1.294531295731e-02
    17   -9.765640402471e-03
    18    1.376024106820e-02
    19   -3.025089358459e-01
    20   -6.388905501020e-02
    21    9.262520911246e-01
    22    9.564141867607e-02
    23    9.539984585791e-02
    24    1.018266058006e-02
    25   -2.481047065333e-02
    26   -2.282786310193e-01
    27   -5.600130864721e-01
    28    4.809479258537e-01
    29   -4.481809431220e-01
    30   -4.087772425321e-03
    31   -1.499999098923e+00
    32    1.395527618824e+00
    33    1.246795553049e-02
    34    5.174152936802e-02
    35    1.291299571148e-02
    36    9.675361776052e-03
    37   -1.189043926890e-02
    38    2.984995286505e-01
    39    6.203010799965e-02
    40   -8.881958341424e-01
    41    9.387371880820e-02
    42    8.998831648751e-02
    43    9.891916225255e-03
    44    6.640153147894e-02
    45   -9.249455698133e-01
    46   -9.048910312863e-02
    47   -9.798024995462e-02
    48   -1.005203044859e-02
[5D]

======= END OF MOLDEN-FORMATTED INPUT FILE =======


        *************************************************************
        *                                                           *
        *  Thank you very much for using Q-Chem.  Have a nice day.  *
        *                                                           *
        *************************************************************


