                  Welcome to Q-Chem
     A Quantum Leap Into The Future Of Chemistry


 Q-Chem 5.4 (devel), Q-Chem, Inc., Pleasanton, CA (2021)

 E. Epifanovsky,  A. T. B. Gilbert,  Xintian Feng,  Joonho Lee,  Yuezhi Mao,  
 N. Mardirossian,  P. Pokhilko,  A. White,  M. Wormit,  M. P. Coons,  
 A. L. Dempwolff,  Zhengting Gan,  D. Hait,  P. R. Horn,  L. D. Jacobson,  
 I. Kaliman,  J. Kussmann,  A. W. Lange,  Ka Un Lao,  D. S. Levine,  Jie Liu,  
 S. C. McKenzie,  A. F. Morrison,  K. Nanda,  F. Plasser,  D. R. Rehn,  
 M. L. Vidal,  Zhi-Qiang You,  Ying Zhu,  B. Alam,  B. Albrecht,  
 A. Aldossary,  E. Alguire,  J. H. Andersen,  D. Barton,  K. Begam,  A. Behn,  
 Y. A. Bernard,  E. J. Berquist,  H. Burton,  A. Carreras,  K. Carter-Fenk,  
 R. Chakraborty,  A. D. Chien,  K. D. Closser,  V. Cofer-Shabica,  
 S. Dasgupta,  Jia Deng,  M. de Wergifosse,  M. Diedenhofen,  Hainam Do,  
 S. Ehlert,  Po-Tung Fang,  S. Fatehi,  Qingguo Feng,  T. Friedhoff,  
 J. Gayvert,  Qinghui Ge,  G. Gidofalvi,  M. Goldey,  J. Gomes,  
 C. Gonzalez-Espinoza,  S. Gulania,  A. Gunina,  M. W. D. Hanson-Heine,  
 P. H. P. Harbach,  A. W. Hauser,  M. F. Herbst,  M. Hernandez Vera,  
 M. Hodecker,  Z. C. Holden,  S. Houck,  Xunkun Huang,  Kerwin Hui,  
 B. C. Huynh,  M. Ivanov,  Hyunjun Ji,  Hanjie Jiang,  B. Kaduk,  S. Kaehler,  
 K. Khistyaev,  Jaehoon Kim,  P. Klunzinger,  Z. Koczor-Benda,  
 Joong Hoon Koh,  D. Kosenkov,  L. Koulias,  T. Kowalczyk,  C. M. Krauter,  
 K. Kue,  A. Kunitsa,  T. Kus,  A. Landau,  K. V. Lawler,  D. Lefrancois,  
 S. Lehtola,  Rain Li,  Yi-Pei Li,  Jiashu Liang,  M. Liebenthal,  
 Hung-Hsuan Lin,  You-Sheng Lin,  Fenglai Liu,  Kuan-Yu Liu,  
 M. Loipersberger,  A. Luenser,  A. Manjanath,  P. Manohar,  E. Mansoor,  
 S. F. Manzer,  Shan-Ping Mao,  A. V. Marenich,  T. Markovich,  S. Mason,  
 S. A. Maurer,  P. F. McLaughlin,  M. F. S. J. Menger,  J.-M. Mewes,  
 S. A. Mewes,  P. Morgante,  J. W. Mullinax,  K. J. Oosterbaan,  G. Paran,  
 Alexander C. Paul,  Suranjan K. Paul,  F. Pavosevic,  Zheng Pei,  S. Prager,  
 E. I. Proynov,  E. Ramos,  B. Rana,  A. E. Rask,  A. Rettig,  R. M. Richard,  
 F. Rob,  E. Rossomme,  T. Scheele,  M. Scheurer,  M. Schneider,  
 N. Sergueev,  S. M. Sharada,  W. Skomorowski,  D. W. Small,  C. J. Stein,  
 Yu-Chuan Su,  E. J. Sundstrom,  Zhen Tao,  J. Thirman,  T. Tsuchimochi,  
 N. M. Tubman,  S. P. Veccham,  O. Vydrov,  J. Wenzel,  J. Witte,  A. Yamada,  
 Kun Yao,  S. Yeganeh,  S. R. Yost,  A. Zech,  Igor Ying Zhang,  Xing Zhang,  
 Yu Zhang,  D. Zuev,  A. Aspuru-Guzik,  A. T. Bell,  N. A. Besley,  
 K. B. Bravaya,  B. R. Brooks,  D. Casanova,  Jeng-Da Chai,  S. Coriani,  
 C. J. Cramer,  A. E. DePrince, III,  R. A. DiStasio Jr.,  A. Dreuw,  
 B. D. Dunietz,  T. R. Furlani,  W. A. Goddard III,  S. Grimme,  
 S. Hammes-Schiffer,  T. Head-Gordon,  W. J. Hehre,  Chao-Ping Hsu,  
 T.-C. Jagau,  Yousung Jung,  A. Klamt,  Jing Kong,  D. S. Lambrecht,  
 WanZhen Liang,  N. J. Mayhall,  C. W. McCurdy,  J. B. Neaton,  
 C. Ochsenfeld,  J. A. Parkhill,  R. Peverati,  V. A. Rassolov,  Yihan Shao,  
 L. V. Slipchenko,  T. Stauch,  R. P. Steele,  J. E. Subotnik,  
 A. J. W. Thom,  A. Tkatchenko,  D. G. Truhlar,  T. Van Voorhis,  
 T. A. Wesolowski,  K. B. Whaley,  H. L. Woodcock III,  P. M. Zimmerman,  
 S. Faraji,  P. M. W. Gill,  M. Head-Gordon,  J. M. Herbert,  A. I. Krylov

 Additional authors for Version 5.4.1: 
 S. Kotaru,  Shaozhi Li,  Xiangyuan Li,  F. Matz,  A. Molle,  Haisheng Ren,  
 Yingli Su,  Hung-Yi Tsai,  C. Utku,  Fang Wang

 Contributors to earlier versions of Q-Chem not listed above: 
 R. D. Adamson,  B. Austin,  R. Baer,  J. Baker,  G. J. O. Beran,  
 K. Brandhorst,  S. T. Brown,  E. F. C. Byrd,  A. K. Chakraborty,  
 G. K. L. Chan,  Chun-Min Chang,  Yunqing Chen,  C.-L. Cheng,  
 Siu Hung Chien,  D. M. Chipman,  D. L. Crittenden,  H. Dachsel,  
 R. J. Doerksen,  A. D. Dutoi,  R. G. Edgar,  J. Fosso-Tande,  
 L. Fusti-Molnar,  D. Ghosh,  A. Ghysels,  A. Golubeva-Zadorozhnaya,  
 J. Gonthier,  M. S. Gordon,  S. R. Gwaltney,  G. Hawkins,  J. E. Herr,  
 A. Heyden,  S. Hirata,  E. G. Hohenstein,  G. Kedziora,  F. J. Keil,  
 C. Kelley,  Jihan Kim,  R. A. King,  R. Z. Khaliullin,  P. P. Korambath,  
 W. Kurlancheek,  A. Laurent,  A. M. Lee,  M. S. Lee,  S. V. Levchenko,  
 Ching Yeh Lin,  D. Liotard,  E. Livshits,  R. C. Lochan,  I. Lotan,  
 L. A. Martinez-Martinez,  P. E. Maslen,  N. Nair,  D. P. O'Neill,  
 D. Neuhauser,  E. Neuscamman,  C. M. Oana,  R. Olivares-Amaya,  R. Olson,  
 T. M. Perrine,  B. Peters,  P. A. Pieniazek,  A. Prociuk,  Y. M. Rhee,  
 J. Ritchie,  M. A. Rohrdanz,  E. Rosta,  N. J. Russ,  H. F. Schaefer III,  
 M. W. Schmidt,  N. E. Schultz,  S. Sharma,  N. Shenvi,  C. D. Sherrill,  
 A. C. Simmonett,  A. Sodt,  T. Stein,  D. Stuck,  K. S. Thanthiriwatte,  
 V. Vanovschi,  L. Vogt,  Tao Wang,  A. Warshel,  M. A. Watson,  
 C. F. Williams,  Q. Wu,  X. Xu,  Jun Yang,  W. Zhang,  Yan Zhao

 Please cite Q-Chem as follows:
 Y. Shao et al., Mol. Phys. 113, 184-215 (2015)
 DOI: 10.1080/00268976.2014.952696

 Q-Chem 5.4.1 for Intel X86 EM64T Linux

 Parts of Q-Chem use Armadillo 9.800.1 (Horizon Scraper).
 http://arma.sourceforge.net/

 Q-Chem begins on Mon Mar 20 18:14:09 2023  

 Host: cpu186.baobab
0

     Scratch files written to /scratch/fum/qchem71057//
 Processing $rem in /home/share/wesolowski/qc5.aug2021.FDE/config/preferences:
 Processing $rem in /home/fum/.qchemrc:

 Checking the input file for inconsistencies... 	...done.

--------------------------------------------------------------
User input:
--------------------------------------------------------------
$comment
generated from CCJob.Templates
$end

$rem
sym_ignore = true
method = adc(2)
ee_states = 10
basis = cc-pVDZ
mem_static = 1024
mem_total = 40000
adc_davidson_maxiter = 900
adc_davidson_conv = 6
adc_print = 3
adc_prop_es = true
adc_prop_es2es = true
adc_prop_tpa = true
molden_format = True
state_analysis = true
print_orbitals = 15
gen_scfman = false
fde_export_density = true
fde_details = 3
$end

$molecule
0 1
H -0.020069734748129044 -0.24496658474082808 0.03338288699388598
C -1.0796317877921655 -0.5265681765394918 0.03186403933803228
H -1.2995894997699313 -1.5911803511264995 -0.10944283680777486
C -2.0430420398094493 0.39598991963815394 -0.02756925981044393
H -1.8231183288286845 1.4606224002300057 0.11358726226030258
H -3.102604435947673 0.11440391424202756 -0.029140129741588916                     
$end
--------------------------------------------------------------
 ----------------------------------------------------------------
             Standard Nuclear Orientation (Angstroms)
    I     Atom           X                Y                Z
 ----------------------------------------------------------------
    1      H      -0.0200697347    -0.2449665847     0.0333828870
    2      C      -1.0796317878    -0.5265681765     0.0318640393
    3      H      -1.2995894998    -1.5911803511    -0.1094428368
    4      C      -2.0430420398     0.3959899196    -0.0275692598
    5      H      -1.8231183288     1.4606224002     0.1135872623
    6      H      -3.1026044359     0.1144039142    -0.0291401297
 ----------------------------------------------------------------
 Nuclear Repulsion Energy =          33.16955362 hartrees
 There are        8 alpha and        8 beta electrons
 Requested basis set is cc-pVDZ
 There are 24 shells and 48 basis functions
 Total memory of 40000 MB is distributed as follows: 
   MEM_STATIC is set to 1024 MB
   QALLOC/CCMAN JOB total memory use is  38976 MB
 Warning: actual memory use might exceed 40000 MB

 Total QAlloc Memory Limit  40000 MB
 Mega-Array Size      1001 MB
 MEM_STATIC part      1024 MB

                       Distance Matrix (Angstroms)
             H (  1)   C (  2)   H (  3)   C (  4)   H (  5)
   C (  2)  1.096346
   H (  3)  1.862756  1.096243
   C (  4)  2.122960  1.335217  2.123269
   H (  5)  2.483234  2.123294  3.104404  1.096236
   H (  6)  3.104042  2.122966  2.483209  1.096342  1.862729

 A cutoff of  1.0D-11 yielded    300 shell pairs
 There are      1220 function pairs (      1329 Cartesian)
 Smallest overlap matrix eigenvalue = 4.88E-03

 Scale SEOQF with 1.000000e-01/1.000000e-01/1.000000e+00

 Standard Electronic Orientation quadrupole field applied
 Nucleus-field energy     =     0.0000000022 hartrees
 Guess from superposition of atomic densities
 Warning:  Energy on first SCF cycle will be non-variational
 SAD guess density has 16.000000 electrons
 A restricted Hartree-Fock SCF calculation will be
 performed using Pulay DIIS extrapolation
 SCF converges when DIIS error is below 1.0E-08
 using 10 threads for integral computing
 -------------------------------------------------------
 OpenMP Integral computing Module                
 Release: version 1.0, May 2013, Q-Chem Inc. Pittsburgh 
 -------------------------------------------------------
 ---------------------------------------
  Cycle       Energy         DIIS Error
 ---------------------------------------
    1     -78.3900278744      9.89E-02
    2     -78.0158034415      7.10E-03
    3     -78.0361369932      1.81E-03
    4     -78.0376046551      5.58E-04
    5     -78.0377195977      5.85E-05
    6     -78.0377215026      9.44E-06
    7     -78.0377215671      2.04E-06
    8     -78.0377215703      3.00E-07
    9     -78.0377215704      9.38E-08
   10     -78.0377215704      1.52E-08
   11     -78.0377215704      4.30E-09 Convergence criterion met
 ---------------------------------------
 SCF time:  CPU 2.31 s  wall 5.01 s
 SCF   energy in the final basis set = -78.03772157
 Total energy in the final basis set = -78.03772157
Exporting Density Matrix to file 'Densmat_SCF.txt'.
Export successful
================================================================================
|                                                                              |
|                                 A D C  M A N                                 |
|                                                                              |
 ------------------------------------------------------------------------------ 
|                                                                              |
| Components:                                                                  |
|                                                                              |
| - libvmm - 1.3-trunk                                                         |
|   Authors:                                                                   |
|   Evgeny Epifanovsky, Ilya Kaliman                                           |
|                                                                              |
| - libtensor - 2.5-trunk                                                      |
|   Authors:                                                                   |
|   Evgeny Epifanovsky, Michael Wormit, Dmitry Zuev, Sam Manzer,               |
|   Ilya Kaliman                                                               |
|                                                                              |
| - libwfa - 1.1-trunk                                                         |
|   Authors:                                                                   |
|   Felix Plasser, Stefanie Mewes (Baeppler), Benjamin Thomitzni,              |
|   Michael Wormit, Feng Chen, Anna I. Krylov, Pavel Pokhilko                  |
|                                                                              |
| - libadc - 1.1-trunk                                                         |
|   Authors:                                                                   |
|   Michael Wormit, Adrian L. Dempwolff, Philipp H. P. Harbach,                |
|   Caroline Krauter, Dirk Rehn, Matthias Schneider, Jan Wenzel                |
|                                                                              |
| - adcman - 2.6-trunk                                                         |
|   Authors:                                                                   |
|   Michael Wormit, Adrian L. Dempwolff, Philipp H. P. Harbach,                |
|   Caroline Krauter, Daniel Lefrancois, Jan-Michael Mewes, Dirk Rehn,         |
|   Matthias Schneider, Jan Wenzel, Andreas Dreuw                              |
|                                                                              |
| Authors of earlier versions of ADCMAN:                                       |
| Andreas Dreuw, Jan Hendrik Starcke, Dirk Rehn, Michael Wormit                |
|                                                                              |
================================================================================

 Created directory /scratch/fum/qchem71057/plots
  Import QC data ...  CPU 0.00 s  wall 0.00 s

 Alpha MOs, Restricted
 -- Occupied --                  
-11.240 -11.238  -1.030  -0.785  -0.634  -0.581  -0.498  -0.375
  1 A     2 A     3 A     4 A     5 A     6 A     7 A     8 A                  
 -- Virtual --                   
  0.165   0.203   0.231   0.236   0.303   0.461   0.580   0.609
  9 A    10 A    11 A    12 A    13 A    14 A    15 A    16 A                  
  0.690   0.709   0.777   0.806   0.858   0.923   0.968   1.005
 17 A    18 A    19 A    20 A    21 A    22 A    23 A    24 A                  
  1.072   1.237   1.260   1.285   1.288   1.584   1.727   1.745
 25 A    26 A    27 A    28 A    29 A    30 A    31 A    32 A                  
  1.818   1.853   1.855   1.901   1.959   1.965   2.212   2.252
 33 A    34 A    35 A    36 A    37 A    38 A    39 A    40 A                  
  2.343   2.422   2.500   2.612   2.676   2.803   3.073   3.335
 41 A    42 A    43 A    44 A    45 A    46 A    47 A    48 A                  

 Beta MOs, Restricted
 -- Occupied --                  
-11.240 -11.238  -1.030  -0.785  -0.634  -0.581  -0.498  -0.375
  1 A     2 A     3 A     4 A     5 A     6 A     7 A     8 A                  
 -- Virtual --                   
  0.165   0.203   0.231   0.236   0.303   0.461   0.580   0.609
  9 A    10 A    11 A    12 A    13 A    14 A    15 A    16 A                  
  0.690   0.709   0.777   0.806   0.858   0.923   0.968   1.005
 17 A    18 A    19 A    20 A    21 A    22 A    23 A    24 A                  
  1.072   1.237   1.260   1.285   1.288   1.584   1.727   1.745
 25 A    26 A    27 A    28 A    29 A    30 A    31 A    32 A                  
  1.818   1.853   1.855   1.901   1.959   1.965   2.212   2.252
 33 A    34 A    35 A    36 A    37 A    38 A    39 A    40 A                  
  2.343   2.422   2.500   2.612   2.676   2.803   3.073   3.335
 41 A    42 A    43 A    44 A    45 A    46 A    47 A    48 A                  
  Import AO data ...  CPU 0.00 s  wall 0.01 s
  Using point group: C1
  Irreducible representations in point group: A
  Molecular orbitals: 
  Occupied MOs:
  Block   0:   1 (  A) A   2 (  A) A   3 (  A) A   4 (  A) A   5 (  A) A
                  -11.24      -11.24       -1.03     -0.7854      -0.634
               6 (  A) A   7 (  A) A   8 (  A) A
                  -0.581     -0.4984     -0.3747
  Block   1:   1 (  A) B   2 (  A) B   3 (  A) B   4 (  A) B   5 (  A) B
                  -11.24      -11.24       -1.03     -0.7854      -0.634
               6 (  A) B   7 (  A) B   8 (  A) B
                  -0.581     -0.4984     -0.3747
  Virtual MOs:
  Block   0:   9 (  A) A  10 (  A) A  11 (  A) A  12 (  A) A  13 (  A) A
                   0.165      0.2027       0.231      0.2361      0.3026
              14 (  A) A  15 (  A) A  16 (  A) A  17 (  A) A  18 (  A) A
                   0.461      0.5801      0.6085      0.6903      0.7089
              19 (  A) A  20 (  A) A  21 (  A) A  22 (  A) A
                  0.7768      0.8064       0.858      0.9232
  Block   1:  23 (  A) A  24 (  A) A  25 (  A) A  26 (  A) A  27 (  A) A
                  0.9683       1.005       1.072       1.237        1.26
              28 (  A) A  29 (  A) A  30 (  A) A  31 (  A) A  32 (  A) A
                   1.285       1.288       1.584       1.727       1.745
              33 (  A) A  34 (  A) A  35 (  A) A  36 (  A) A
                   1.818       1.853       1.855       1.901
  Block   2:  37 (  A) A  38 (  A) A  39 (  A) A  40 (  A) A  41 (  A) A
                   1.959       1.965       2.212       2.252       2.343
              42 (  A) A  43 (  A) A  44 (  A) A  45 (  A) A  46 (  A) A
                   2.422         2.5       2.612       2.676       2.803
              47 (  A) A  48 (  A) A
                   3.073       3.335
  Block   3:   9 (  A) B  10 (  A) B  11 (  A) B  12 (  A) B  13 (  A) B
                   0.165      0.2027       0.231      0.2361      0.3026
              14 (  A) B  15 (  A) B  16 (  A) B  17 (  A) B  18 (  A) B
                   0.461      0.5801      0.6085      0.6903      0.7089
              19 (  A) B  20 (  A) B  21 (  A) B  22 (  A) B
                  0.7768      0.8064       0.858      0.9232
  Block   4:  23 (  A) B  24 (  A) B  25 (  A) B  26 (  A) B  27 (  A) B
                  0.9683       1.005       1.072       1.237        1.26
              28 (  A) B  29 (  A) B  30 (  A) B  31 (  A) B  32 (  A) B
                   1.285       1.288       1.584       1.727       1.745
              33 (  A) B  34 (  A) B  35 (  A) B  36 (  A) B
                   1.818       1.853       1.855       1.901
  Block   5:  37 (  A) B  38 (  A) B  39 (  A) B  40 (  A) B  41 (  A) B
                   1.959       1.965       2.212       2.252       2.343
              42 (  A) B  43 (  A) B  44 (  A) B  45 (  A) B  46 (  A) B
                   2.422         2.5       2.612       2.676       2.803
              47 (  A) B  48 (  A) B
                   3.073       3.335
  Import MO data ...  CPU 0.09 s  wall 0.03 s
  Import HF data ...  CPU 0.84 s  wall 0.24 s
  Import 2e integrals ...  CPU 1.07 s  wall 0.20 s

--------------------------------------------------------------------------------
                                   HF Summary                                   
--------------------------------------------------------------------------------
  Energy:                                                  -78.0377215704 a.u.
  Dip. moment [a.u.]:                  [  -0.000012,    0.000019,   -0.000056]
  Total dipole [Debye]:                                               0.000154
  <r^2> [a.u.]:                        [ 175.801937,   35.365658,   11.737871]
  Total <r^2> [a.u.]:                                               222.905466
--------------------------------------------------------------------------------
  HF properties ...  CPU 0.03 s  wall 0.02 s
  MP(1) calculation ...  CPU 0.01 s  wall 0.02 s
  N^6 prerequesite intermediates ...  CPU 0.57 s  wall 0.09 s
  Difference density matrix of state mp2_gs printed to ASCII file 'State_mp2_gs_Difference.txt'
Exporting MP density matrix to file 'Densmat_MP.txt'.
Export successful
  Total density matrix of state mp2_gs printed to ASCII file 'State_mp2_gs_Total.txt'
Exporting MP density matrix to file 'Densmat_MP.txt'.
Export successful

--------------------------------------------------------------------------------
                                 MP(2) Summary                                  
--------------------------------------------------------------------------------
  MP energy contribution:                                   -0.2810333222 a.u.
  Total energy:                                            -78.3187548926 a.u.
  Dip. moment [a.u.]:                  [  -0.000010,    0.000016,   -0.000055]
  Total dipole [Debye]:                                               0.000148
  <r^2> [a.u.]:                        [ 175.840879,   35.401322,   11.564946]
  Total <r^2> [a.u.]:                                               222.807147

  Density matrix analysis:
  ------------------------
  NOs
    Occupation of frontier NOs:
       0.0462   1.9374
    Number of electrons: 16.000000
    Number of unpaired electrons: n_u =  0.40954, n_u,nl =  0.04650
    NO participation ratio (PR_NO): 13.836558
  
  
  Mulliken Population Analysis
  Atom      Charge (e)              h+              e-           Del q
  --------------------------------------------------------------------
   1 H        0.055985        0.013971       -0.011390        0.002581
   2 C       -0.111989        0.095211       -0.100368       -0.005156
   3 H        0.056005        0.013968       -0.011391        0.002578
   4 C       -0.111986        0.095207       -0.100369       -0.005162
   5 H        0.056002        0.013969       -0.011391        0.002578
   6 H        0.055983        0.013971       -0.011390        0.002581
  --------------------------------------------------------------------
  Sum:       -0.000000        0.246297       -0.246297        0.000000
  
  Multipole moment analysis of the density matrix
    Molecular charge:                      -0.000000
    Number of electrons:                   16.000000
      Center of electronic charge [Ang]: [ -1.561339,  -0.065287,   0.002137]
    Total nuclear charge:                  16.000000
      Center of nuclear charge [Ang]:    [ -1.561339,  -0.065287,   0.002135]
    Dipole moment [D]:                     0.000148
      Cartesian components [D]:          [ -0.000025,   0.000041,  -0.000140]
    RMS size of the density [Ang]:         1.207260
      Cartesian components [Ang]:        [  0.799844,   0.784426,   0.449892]
  
  Exciton analysis of the difference density matrix
    <r_h> [Ang]:                  [ -1.561334,  -0.065294,   0.002146]
    <r_e> [Ang]:                  [ -1.561339,  -0.065288,   0.002143]
    |<r_e - r_h>| [Ang]:            0.000008
    Hole size [Ang]:                1.402288
      Cartesian components [Ang]: [  0.852636,   0.840792,   0.729721]
    Electron size [Ang]:            1.361842
      Cartesian components [Ang]: [  0.878208,   0.864569,   0.579556]
--------------------------------------------------------------------------------
  MP(2) calculation ...  CPU 0.66 s  wall 0.31 s
  Start ADC(2)-s ...  CPU 0.11 s  wall 0.03 s
  ADC(2) intermediates ...  CPU 0.10 s  wall 0.03 s
  Starting Davidson for singlet states of irrep A ... 
--------------------------------------------------------------------------------
   It NVec Conv  Avg. Norm  Max. Norm  Conv. states           Remark
--------------------------------------------------------------------------------
        10    0  1.329e-01  4.684e-01  0.4112 n n n n n n n n Guess.
    1   20    0  3.594e-02  2.758e-01  0.3243 n n n n n n n n 
    2   30    0  7.408e-03  3.696e-02  0.3196 n n n n n n n n 
    3   40    0  3.551e-03  2.587e-02  0.3192 n n n n n n n n 
    4   50    0  2.073e-03  1.809e-02  0.3192 n n n n n n n n 
    5   20    0  1.154e-03  1.017e-02  0.3192 n n n n n n n n Subspace collapsed.
    6   30    0  1.514e-03  1.330e-02  0.3192 n n n n n n n n 
    7   40    0  1.239e-03  1.024e-02  0.3192 n n n n n n n n 
    8   50    0  5.873e-04  4.585e-03  0.3192 n n n n n n n n 
    9   20    1  2.008e-04  1.430e-03  0.3192 n n n y n n n n Subspace collapsed.
   10   30    1  9.912e-05  7.464e-04  0.3192 n n n y n n n n 
   11   40    4  4.298e-05  3.043e-04  0.3192 y y y y n n n n 
   12   50    4  3.933e-05  2.860e-04  0.3192 y y y y n n n n 
   13   20    5  2.172e-05  1.544e-04  0.3192 y y y y y n n n Subspace collapsed.
   14   30    6  3.357e-05  2.591e-04  0.3192 y y y y y y n n 
   15   40    6  2.958e-05  2.580e-04  0.3192 y y y y y y n n 
   16   50    6  2.024e-05  1.830e-04  0.3192 y y y y y y n n 
   17   20    6  8.841e-06  8.065e-05  0.3192 y y y y y y n n Subspace collapsed.
   18   30    7  7.930e-06  7.257e-05  0.3192 y y y y y y y n 
   19   40    7  5.311e-06  4.997e-05  0.3192 y y y y y y y n 
   20   50    7  3.057e-06  2.886e-05  0.3192 y y y y y y y n 
   21   20    8  2.077e-06  1.981e-05  0.3192 y y y y y y y n Subspace collapsed.
   22   30    7  3.106e-06  3.013e-05  0.3192 y y y y y y y n 
   23   39    7  2.417e-06  2.370e-05  0.3192 y y y y y y y n 
   24   39    7  2.417e-06  2.370e-05  0.3192 y y y y y y y n 
   25   49    7  1.851e-06  1.824e-05  0.3192 y y y y y y y n 
   26   50    7  1.846e-06  1.819e-05  0.3192 y y y y y y y n 
   27   17    8  8.579e-07  8.468e-06  0.3192 y y y y y y y n Subspace collapsed.
   28   23    8  7.255e-07  7.155e-06  0.3192 y y y y y y y n 
   29   29    9  4.824e-07  4.771e-06  0.3192 y y y y y y y y 
   30   35    9  3.667e-07  3.636e-06  0.3192 y y y y y y y y 
   31   35    9  3.667e-07  3.636e-06  0.3192 y y y y y y y y 
   32   45    9  2.540e-07  2.519e-06  0.3192 y y y y y y y y 
   33   49    9  2.830e-07  2.807e-06  0.3192 y y y y y y y y 
   34   50    9  2.839e-07  2.816e-06  0.3192 y y y y y y y y 
   35   14    9  1.110e-07  1.101e-06  0.3192 y y y y y y y y Subspace collapsed.
   36   14    9  1.110e-07  1.101e-06  0.3192 y y y y y y y y 
   37   21    9  1.599e-07  1.586e-06  0.3192 y y y y y y y y 
   38   25    9  1.015e-07  1.006e-06  0.3192 y y y y y y y y 
   39   29    9  1.043e-07  1.032e-06  0.3192 y y y y y y y y 
   40   33   10  8.840e-08  8.724e-07  0.3192 y y y y y y y y Converged.
--------------------------------------------------------------------------------
  Davidson Summary: 
 ------------------------------------------------------------
  State  0: excitation energy =   0.3192 a.u.   (converged)
  State  1: excitation energy =   0.3261 a.u.   (converged)
  State  2: excitation energy =   0.3366 a.u.   (converged)
  State  3: excitation energy =   0.3581 a.u.   (converged)
  State  4: excitation energy =   0.3723 a.u.   (converged)
  State  5: excitation energy =   0.3845 a.u.   (converged)
  State  6: excitation energy =   0.4191 a.u.   (converged)
  State  7: excitation energy =   0.4411 a.u.   (converged)
  State  8: excitation energy =   0.4526 a.u.   (converged)
  State  9: excitation energy =   0.4576 a.u.   (converged)
 ------------------------------------------------------------

  Singlet states of irrep A ...  CPU 238.42 s  wall 75.42 s
  TDMs ...  CPU 1.78 s  wall 0.73 s
  SDMs ...  CPU 4.78 s  wall 1.51 s
  Starting TPA DIIS iterations ... 
------------------------------------ 
   It     Res. Norm  Remark
------------------------------------
                       Guess.
    1     4.364e+00  
    2     5.816e+00  
    3     1.089e+00  
    4     2.724e-01  
    5     6.724e-02  
    6     2.822e-02  
    7     8.551e-03  
    8     1.604e-03  
    9     6.042e-04  
   10     1.010e-04  
   11     3.257e-05  
   12     5.145e-06  
   13     1.769e-06  
   14     5.033e-07  Converged.
   ... Converged in 14 steps (norm: 5.03313e-07)
------------------------------------
  Starting TPA DIIS iterations ... 
------------------------------------ 
   It     Res. Norm  Remark
------------------------------------
                       Guess.
    1     4.241e+00  
    2     5.635e+00  
    3     1.050e+00  
    4     2.687e-01  
    5     6.672e-02  
    6     2.798e-02  
    7     8.370e-03  
    8     1.592e-03  
    9     6.025e-04  
   10     1.003e-04  
   11     3.260e-05  
   12     5.128e-06  
   13     1.769e-06  
   14     4.973e-07  Converged.
   ... Converged in 14 steps (norm: 4.97252e-07)
------------------------------------
  Starting TPA DIIS iterations ... 
------------------------------------ 
   It     Res. Norm  Remark
------------------------------------
                       Guess.
    1     1.028e+00  
    2     1.062e+00  
    3     2.319e-01  
    4     1.289e-01  
    5     1.768e-02  
    6     6.584e-03  
    7     1.128e-03  
    8     4.945e-04  
    9     1.398e-04  
   10     2.794e-05  
   11     5.486e-06  
   12     1.999e-06  
   13     6.492e-07  Converged.
   ... Converged in 13 steps (norm: 6.49235e-07)
------------------------------------
  Starting TPA DIIS iterations ... 
------------------------------------ 
   It     Res. Norm  Remark
------------------------------------
                       Guess.
    1     4.528e+00  
    2     6.111e+00  
    3     1.136e+00  
    4     2.899e-01  
    5     7.213e-02  
    6     3.044e-02  
    7     9.214e-03  
    8     1.729e-03  
    9     6.538e-04  
   10     1.096e-04  
   11     3.559e-05  
   12     5.644e-06  
   13     1.957e-06  
   14     5.558e-07  Converged.
   ... Converged in 14 steps (norm: 5.55782e-07)
------------------------------------
  Starting TPA DIIS iterations ... 
------------------------------------ 
   It     Res. Norm  Remark
------------------------------------
                       Guess.
    1     4.400e+00  
    2     5.921e+00  
    3     1.095e+00  
    4     2.858e-01  
    5     7.157e-02  
    6     3.020e-02  
    7     9.019e-03  
    8     1.716e-03  
    9     6.523e-04  
   10     1.088e-04  
   11     3.561e-05  
   12     5.622e-06  
   13     1.957e-06  
   14     5.480e-07  Converged.
   ... Converged in 14 steps (norm: 5.47997e-07)
------------------------------------
  Starting TPA DIIS iterations ... 
------------------------------------ 
   It     Res. Norm  Remark
------------------------------------
                       Guess.
    1     1.054e+00  
    2     1.109e+00  
    3     2.400e-01  
    4     1.341e-01  
    5     1.858e-02  
    6     7.000e-03  
    7     1.214e-03  
    8     5.440e-04  
    9     1.554e-04  
   10     2.974e-05  
   11     5.994e-06  
   12     2.205e-06  
   13     6.960e-07  Converged.
   ... Converged in 13 steps (norm: 6.95987e-07)
------------------------------------
  Starting TPA DIIS iterations ... 
------------------------------------ 
   It     Res. Norm  Remark
------------------------------------
                       Guess.
    1     4.802e+00  
    2     6.611e+00  
    3     1.214e+00  
    4     3.200e-01  
    5     8.055e-02  
    6     3.430e-02  
    7     1.036e-02  
    8     1.944e-03  
    9     7.398e-04  
   10     1.246e-04  
   11     4.090e-05  
   12     6.525e-06  
   13     2.296e-06  
   14     6.509e-07  Converged.
   ... Converged in 14 steps (norm: 6.50868e-07)
------------------------------------
  Starting TPA DIIS iterations ... 
------------------------------------ 
   It     Res. Norm  Remark
------------------------------------
                       Guess.
    1     4.665e+00  
    2     6.404e+00  
    3     1.170e+00  
    4     3.153e-01  
    5     7.992e-02  
    6     3.404e-02  
    7     1.014e-02  
    8     1.929e-03  
    9     7.387e-04  
   10     1.237e-04  
   11     4.092e-05  
   12     6.494e-06  
   13     2.298e-06  
   14     6.395e-07  Converged.
   ... Converged in 14 steps (norm: 6.3952e-07)
------------------------------------
  Starting TPA DIIS iterations ... 
------------------------------------ 
   It     Res. Norm  Remark
------------------------------------
                       Guess.
    1     1.097e+00  
    2     1.188e+00  
    3     2.535e-01  
    4     1.428e-01  
    5     2.009e-02  
    6     7.717e-03  
    7     1.364e-03  
    8     6.309e-04  
    9     1.827e-04  
   10     3.224e-05  
   11     6.936e-06  
   12     2.582e-06  
   13     7.911e-07  Converged.
   ... Converged in 13 steps (norm: 7.91057e-07)
------------------------------------
  Starting TPA DIIS iterations ... 
------------------------------------ 
   It     Res. Norm  Remark
------------------------------------
                       Guess.
    1     5.450e+00  
    2     7.827e+00  
    3     1.399e+00  
    4     3.958e-01  
    5     1.018e-01  
    6     4.415e-02  
    7     1.326e-02  
    8     2.487e-03  
    9     9.594e-04  
   10     1.629e-04  
   11     5.479e-05  
   12     8.836e-06  
   13     3.231e-06  
   14     9.221e-07  Converged.
   ... Converged in 14 steps (norm: 9.22148e-07)
------------------------------------
  Starting TPA DIIS iterations ... 
------------------------------------ 
   It     Res. Norm  Remark
------------------------------------
                       Guess.
    1     5.292e+00  
    2     7.581e+00  
    3     1.348e+00  
    4     3.895e-01  
    5     1.010e-01  
    6     4.385e-02  
    7     1.298e-02  
    8     2.469e-03  
    9     9.600e-04  
   10     1.617e-04  
   11     5.480e-05  
   12     8.780e-06  
   13     3.241e-06  
   14     8.988e-07  Converged.
   ... Converged in 14 steps (norm: 8.98779e-07)
------------------------------------
  Starting TPA DIIS iterations ... 
------------------------------------ 
   It     Res. Norm  Remark
------------------------------------
                       Guess.
    1     1.198e+00  
    2     1.379e+00  
    3     2.844e-01  
    4     1.633e-01  
    5     2.374e-02  
    6     9.523e-03  
    7     1.758e-03  
    8     8.488e-04  
    9     2.507e-04  
   10     3.623e-05  
   11     9.715e-06  
   12     3.696e-06  
   13     1.131e-06  
   14     1.025e-06  
   15     2.979e-07  Converged.
   ... Converged in 15 steps (norm: 2.97856e-07)
------------------------------------
  Starting TPA DIIS iterations ... 
------------------------------------ 
   It     Res. Norm  Remark
------------------------------------
                       Guess.
    1     5.959e+00  
    2     8.812e+00  
    3     1.543e+00  
    4     4.595e-01  
    5     1.196e-01  
    6     5.255e-02  
    7     1.570e-02  
    8     2.944e-03  
    9     1.147e-03  
   10     1.957e-04  
   11     6.692e-05  
   12     1.087e-05  
   13     4.103e-06  
   14     1.195e-06  
   15     4.342e-07  Converged.
   ... Converged in 15 steps (norm: 4.34207e-07)
------------------------------------
  Starting TPA DIIS iterations ... 
------------------------------------ 
   It     Res. Norm  Remark
------------------------------------
                       Guess.
    1     5.785e+00  
    2     8.535e+00  
    3     1.487e+00  
    4     4.519e-01  
    5     1.187e-01  
    6     5.221e-02  
    7     1.537e-02  
    8     2.923e-03  
    9     1.149e-03  
   10     1.941e-04  
   11     6.691e-05  
   12     1.079e-05  
   13     4.122e-06  
   14     1.159e-06  
   15     4.268e-07  Converged.
   ... Converged in 15 steps (norm: 4.26783e-07)
------------------------------------
  Starting TPA DIIS iterations ... 
------------------------------------ 
   It     Res. Norm  Remark
------------------------------------
                       Guess.
    1     1.276e+00  
    2     1.533e+00  
    3     3.079e-01  
    4     1.793e-01  
    5     2.668e-02  
    6     1.104e-02  
    7     2.105e-03  
    8     1.020e-03  
    9     3.049e-04  
   10     3.881e-05  
   11     1.253e-05  
   12     4.873e-06  
   13     1.565e-06  
   14     1.472e-06  
   15     4.699e-07  Converged.
   ... Converged in 15 steps (norm: 4.69883e-07)
------------------------------------
  Starting TPA DIIS iterations ... 
------------------------------------ 
   It     Res. Norm  Remark
------------------------------------
                       Guess.
    1     6.465e+00  
    2     9.818e+00  
    3     1.686e+00  
    4     5.263e-01  
    5     1.383e-01  
    6     6.142e-02  
    7     1.825e-02  
    8     3.423e-03  
    9     1.345e-03  
   10     2.304e-04  
   11     7.991e-05  
   12     1.309e-05  
   13     5.096e-06  
   14     1.536e-06  
   15     5.679e-07  Converged.
   ... Converged in 15 steps (norm: 5.67882e-07)
------------------------------------
  Starting TPA DIIS iterations ... 
------------------------------------ 
   It     Res. Norm  Remark
------------------------------------
                       Guess.
    1     6.275e+00  
    2     9.508e+00  
    3     1.623e+00  
    4     5.171e-01  
    5     1.372e-01  
    6     6.107e-02  
    7     1.789e-02  
    8     3.399e-03  
    9     1.350e-03  
   10     2.286e-04  
   11     7.990e-05  
   12     1.298e-05  
   13     5.129e-06  
   14     1.486e-06  
   15     5.604e-07  Converged.
   ... Converged in 15 steps (norm: 5.60393e-07)
------------------------------------
  Starting TPA DIIS iterations ... 
------------------------------------ 
   It     Res. Norm  Remark
------------------------------------
                       Guess.
    1     1.354e+00  
    2     1.690e+00  
    3     3.305e-01  
    4     1.952e-01  
    5     2.967e-02  
    6     1.262e-02  
    7     2.480e-03  
    8     1.181e-03  
    9     3.579e-04  
   10     4.215e-05  
   11     1.592e-05  
   12     6.392e-06  
   13     2.191e-06  
   14     2.048e-06  
   15     7.200e-07  Converged.
   ... Converged in 15 steps (norm: 7.20029e-07)
------------------------------------
  Starting TPA DIIS iterations ... 
------------------------------------ 
   It     Res. Norm  Remark
------------------------------------
                       Guess.
    1     8.342e+00  
    2     1.375e+01  
    3     2.205e+00  
    4     7.987e-01  
    5     2.148e-01  
    6     9.855e-02  
    7     2.875e-02  
    8     5.390e-03  
    9     2.174e-03  
   10     3.769e-04  
   11     1.345e-04  
   12     2.343e-05  
   13     9.961e-06  
   14     3.634e-06  
   15     1.275e-06  
   16     4.710e-07  Converged.
   ... Converged in 16 steps (norm: 4.70956e-07)
------------------------------------
  Starting TPA DIIS iterations ... 
------------------------------------ 
   It     Res. Norm  Remark
------------------------------------
                       Guess.
    1     8.093e+00  
    2     1.331e+01  
    3     2.123e+00  
    4     7.831e-01  
    5     2.131e-01  
    6     9.820e-02  
    7     2.820e-02  
    8     5.354e-03  
    9     2.200e-03  
   10     3.740e-04  
   11     1.347e-04  
   12     2.329e-05  
   13     1.012e-05  
   14     3.548e-06  
   15     1.290e-06  
   16     4.711e-07  Converged.
   ... Converged in 16 steps (norm: 4.7108e-07)
------------------------------------
  Starting TPA DIIS iterations ... 
------------------------------------ 
   It     Res. Norm  Remark
------------------------------------
                       Guess.
    1     1.642e+00  
    2     2.301e+00  
    3     4.099e-01  
    4     2.536e-01  
    5     4.123e-02  
    6     1.891e-02  
    7     4.087e-03  
    8     1.638e-03  
    9     5.440e-04  
   10     6.731e-05  
   11     3.351e-05  
   12     1.559e-05  
   13     5.497e-06  
   14     5.119e-06  
   15     2.119e-06  
   16     5.124e-07  Converged.
   ... Converged in 16 steps (norm: 5.12419e-07)
------------------------------------
  Starting TPA DIIS iterations ... 
------------------------------------ 
   It     Res. Norm  Remark
------------------------------------
                       Guess.
    1     1.004e+01  
    2     1.755e+01  
    3     2.664e+00  
    4     1.071e+00  
    5     2.921e-01  
    6     1.371e-01  
    7     3.939e-02  
    8     7.392e-03  
    9     3.038e-03  
   10     5.316e-04  
   11     1.904e-04  
   12     3.708e-05  
   13     1.629e-05  
   14     6.992e-06  
   15     2.188e-06  
   16     8.182e-07  Converged.
   ... Converged in 16 steps (norm: 8.18164e-07)
------------------------------------
  Starting TPA DIIS iterations ... 
------------------------------------ 
   It     Res. Norm  Remark
------------------------------------
                       Guess.
    1     9.737e+00  
    2     1.699e+01  
    3     2.563e+00  
    4     1.049e+00  
    5     2.899e-01  
    6     1.368e-01  
    7     3.869e-02  
    8     7.348e-03  
    9     3.099e-03  
   10     5.282e-04  
   11     1.915e-04  
   12     3.732e-05  
   13     1.669e-05  
   14     6.930e-06  
   15     2.235e-06  
   16     8.293e-07  Converged.
   ... Converged in 16 steps (norm: 8.29349e-07)
------------------------------------
  Starting TPA DIIS iterations ... 
------------------------------------ 
   It     Res. Norm  Remark
------------------------------------
                       Guess.
    1     1.902e+00  
    2     2.888e+00  
    3     4.763e-01  
    4     3.057e-01  
    5     5.227e-02  
    6     2.477e-02  
    7     5.743e-03  
    8     1.882e-03  
    9     7.008e-04  
   10     1.031e-04  
   11     5.466e-05  
   12     2.817e-05  
   13     8.255e-06  
   14     9.143e-06  
   15     3.906e-06  
   16     8.370e-07  Converged.
   ... Converged in 16 steps (norm: 8.36981e-07)
------------------------------------
  Starting TPA DIIS iterations ... 
------------------------------------ 
   It     Res. Norm  Remark
------------------------------------
                       Guess.
    1     1.116e+01  
    2     2.016e+01  
    3     2.960e+00  
    4     1.261e+00  
    5     3.465e-01  
    6     1.646e-01  
    7     4.690e-02  
    8     8.811e-03  
    9     3.660e-03  
   10     6.446e-04  
   11     2.306e-04  
   12     4.932e-05  
   13     2.177e-05  
   14     1.012e-05  
   15     3.013e-06  
   16     1.098e-06  
   17     3.553e-07  Converged.
   ... Converged in 17 steps (norm: 3.55305e-07)
------------------------------------
  Starting TPA DIIS iterations ... 
------------------------------------ 
   It     Res. Norm  Remark
------------------------------------
                       Guess.
    1     1.082e+01  
    2     1.952e+01  
    3     2.848e+00  
    4     1.233e+00  
    5     3.439e-01  
    6     1.645e-01  
    7     4.611e-02  
    8     8.766e-03  
    9     3.755e-03  
   10     6.416e-04  
   11     2.328e-04  
   12     5.025e-05  
   13     2.243e-05  
   14     1.014e-05  
   15     3.067e-06  
   16     1.100e-06  
   17     3.144e-07  Converged.
   ... Converged in 17 steps (norm: 3.14369e-07)
------------------------------------
  Starting TPA DIIS iterations ... 
------------------------------------ 
   It     Res. Norm  Remark
------------------------------------
                       Guess.
    1     2.072e+00  
    2     3.291e+00  
    3     5.178e-01  
    4     3.395e-01  
    5     5.978e-02  
    6     2.850e-02  
    7     6.892e-03  
    8     1.997e-03  
    9     8.000e-04  
   10     1.298e-04  
   11     7.022e-05  
   12     3.802e-05  
   13     9.875e-06  
   14     1.239e-05  
   15     5.299e-06  
   16     1.140e-06  
   17     3.798e-07  Converged.
   ... Converged in 17 steps (norm: 3.79768e-07)
------------------------------------
  Starting TPA DIIS iterations ... 
------------------------------------ 
   It     Res. Norm  Remark
------------------------------------
                       Guess.
    1     1.170e+01  
    2     2.146e+01  
    3     3.102e+00  
    4     1.355e+00  
    5     3.739e-01  
    6     1.786e-01  
    7     5.067e-02  
    8     9.526e-03  
    9     3.976e-03  
   10     7.027e-04  
   11     2.513e-04  
   12     5.637e-05  
   13     2.487e-05  
   14     1.194e-05  
   15     3.507e-06  
   16     1.267e-06  
   17     4.502e-07  Converged.
   ... Converged in 17 steps (norm: 4.50157e-07)
------------------------------------
  Starting TPA DIIS iterations ... 
------------------------------------ 
   It     Res. Norm  Remark
------------------------------------
                       Guess.
    1     1.134e+01  
    2     2.077e+01  
    3     2.984e+00  
    4     1.325e+00  
    5     3.710e-01  
    6     1.785e-01  
    7     4.983e-02  
    8     9.482e-03  
    9     4.091e-03  
   10     7.001e-04  
   11     2.542e-04  
   12     5.781e-05  
   13     2.571e-05  
   14     1.201e-05  
   15     3.560e-06  
   16     1.257e-06  
   17     3.934e-07  Converged.
   ... Converged in 17 steps (norm: 3.93445e-07)
------------------------------------
  Starting TPA DIIS iterations ... 
------------------------------------ 
   It     Res. Norm  Remark
------------------------------------
                       Guess.
    1     2.154e+00  
    2     3.491e+00  
    3     5.373e-01  
    4     3.558e-01  
    5     6.349e-02  
    6     3.024e-02  
    7     7.460e-03  
    8     2.047e-03  
    9     8.470e-04  
   10     1.431e-04  
   11     7.805e-05  
   12     4.312e-05  
   13     1.065e-05  
   14     1.410e-05  
   15     6.031e-06  
   16     1.319e-06  
   17     4.160e-07  Converged.
   ... Converged in 17 steps (norm: 4.15995e-07)
------------------------------------
  Two-photon absorbption ...  CPU 166.99 s  wall 44.73 s
  Transition density matrix of state singlet_A_1 printed to ASCII file 'State_singlet_A_1_Transition.txt'
  Transition density matrix of state singlet_A_2 printed to ASCII file 'State_singlet_A_2_Transition.txt'
  Transition density matrix of state singlet_A_3 printed to ASCII file 'State_singlet_A_3_Transition.txt'
  Transition density matrix of state singlet_A_4 printed to ASCII file 'State_singlet_A_4_Transition.txt'
  Transition density matrix of state singlet_A_5 printed to ASCII file 'State_singlet_A_5_Transition.txt'
  Transition density matrix of state singlet_A_6 printed to ASCII file 'State_singlet_A_6_Transition.txt'
  Transition density matrix of state singlet_A_7 printed to ASCII file 'State_singlet_A_7_Transition.txt'
  Transition density matrix of state singlet_A_8 printed to ASCII file 'State_singlet_A_8_Transition.txt'
  Transition density matrix of state singlet_A_9 printed to ASCII file 'State_singlet_A_9_Transition.txt'
  Transition density matrix of state singlet_A_10 printed to ASCII file 'State_singlet_A_10_Transition.txt'
  Transition properties ...  CPU 0.34 s  wall 0.62 s
  Difference density matrix of state singlet_A_1 printed to ASCII file 'State_singlet_A_1_Difference.txt'
  Total density matrix of state singlet_A_1 printed to ASCII file 'State_singlet_A_1_Total.txt'
  Difference density matrix of state singlet_A_2 printed to ASCII file 'State_singlet_A_2_Difference.txt'
  Total density matrix of state singlet_A_2 printed to ASCII file 'State_singlet_A_2_Total.txt'
  Difference density matrix of state singlet_A_3 printed to ASCII file 'State_singlet_A_3_Difference.txt'
  Total density matrix of state singlet_A_3 printed to ASCII file 'State_singlet_A_3_Total.txt'
  Difference density matrix of state singlet_A_4 printed to ASCII file 'State_singlet_A_4_Difference.txt'
  Total density matrix of state singlet_A_4 printed to ASCII file 'State_singlet_A_4_Total.txt'
  Difference density matrix of state singlet_A_5 printed to ASCII file 'State_singlet_A_5_Difference.txt'
  Total density matrix of state singlet_A_5 printed to ASCII file 'State_singlet_A_5_Total.txt'
  Difference density matrix of state singlet_A_6 printed to ASCII file 'State_singlet_A_6_Difference.txt'
  Total density matrix of state singlet_A_6 printed to ASCII file 'State_singlet_A_6_Total.txt'
  Difference density matrix of state singlet_A_7 printed to ASCII file 'State_singlet_A_7_Difference.txt'
  Total density matrix of state singlet_A_7 printed to ASCII file 'State_singlet_A_7_Total.txt'
  Difference density matrix of state singlet_A_8 printed to ASCII file 'State_singlet_A_8_Difference.txt'
  Total density matrix of state singlet_A_8 printed to ASCII file 'State_singlet_A_8_Total.txt'
  Difference density matrix of state singlet_A_9 printed to ASCII file 'State_singlet_A_9_Difference.txt'
  Total density matrix of state singlet_A_9 printed to ASCII file 'State_singlet_A_9_Total.txt'
  Difference density matrix of state singlet_A_10 printed to ASCII file 'State_singlet_A_10_Difference.txt'
  Total density matrix of state singlet_A_10 printed to ASCII file 'State_singlet_A_10_Total.txt'
  Properties ...  CPU 0.62 s  wall 0.98 s
  ISR TDMS ...  CPU 35.83 s  wall 11.12 s
  ISR transition properties ...  CPU 0.72 s  wall 0.31 s
  Sum-over-states TPA ...  CPU 0.00 s  wall 0.00 s

--------------------------------------------------------------------------------
                   State-averaged natural transition orbitals
--------------------------------------------------------------------------------
--------------------------------------------------------------------------------
  SA-NTO decomposition ...  CPU 0.01 s  wall 0.04 s

--------------------------------------------------------------------------------
                             Excited State Summary
--------------------------------------------------------------------------------
--------------------------------------------------------------------------------

  Excited state 1 (singlet, A)                                     [converged]
  ----------------------------------------------------------------------------
  Term symbol:  2 (1) A                                     R^2 =  7.74273e-14

  Total energy:                                            -77.9995528375 a.u.
  Excitation energy:                                               8.685930 eV

  Osc. strength:                                                      0.434048
  Trans. dip. moment [a.u.]:           [  -1.029153,    0.986989,   -0.079907]
  <i|r^2|0> [a.u.]:                    [  -6.072863,    0.243481,    0.000575]
  Two-photon absorption cross-section (SoS) [a.u.]:                   0.000001
  Two-photon absorption matrix (SoS) [a.u.]:
                                       |    0.000281    0.000028   -0.000143 |
                                       |    0.000028   -0.000205   -0.000056 |
                                       |   -0.000143   -0.000056    0.000100 |
  Two-photon absorption cross-section [a.u.]:                         0.000003
  Two-photon absorption matrix [a.u.]:
                                       |    0.000628    0.000028    0.000156 |
                                       |    0.000028   -0.000354    0.000319 |
                                       |    0.000156    0.000319    0.000117 |

  Dip. moment [a.u.]:                  [  -0.000034,    0.000049,   -0.000061]
  Total dipole [Debye]:                                               0.000218
  <r^2> [a.u.]:                        [ 176.712292,   36.220077,   11.943083]
  Total <r^2> [a.u.]:                                               224.875452

  V1^2 = 0.9706, V2^2 = 0.0294

  Important amplitudes:
      occ i     occ j     vir a      vir b          v   
    -----------------------------------------------------
     8 (A) A              9 (A) A                -0.6792
     6 (A) A             14 (A) A                 0.0614
     4 (A) A             10 (A) A                 0.0587
     7 (A) A             16 (A) A                 0.0561
     5 (A) A             13 (A) A                -0.0525
     6 (A) A             23 (A) A                 0.0482
     8 (A) A             10 (A) A                -0.0476
     8 (A) A             20 (A) A                -0.0337
     6 (A) A             19 (A) A                -0.0296
     3 (A) A             12 (A) A                 0.0280
     5 (A) A             22 (A) A                -0.0214
     4 (A) A              9 (A) A                 0.0207
     4 (A) A             24 (A) A                 0.0185
     7 (A) A             11 (A) A                 0.0184
     3 (A) A             26 (A) A                 0.0183
     8 (A) A   8 (A) B   17 (A) A   20 (A) B      0.0181
     8 (A) A   8 (A) B    9 (A) A   27 (A) B     -0.0165
     6 (A) A             26 (A) A                 0.0159
     7 (A) A             21 (A) A                 0.0151
     3 (A) A             14 (A) A                 0.0141
     6 (A) A             12 (A) A                -0.0133
     3 (A) A   4 (A) B    9 (A) A    9 (A) B     -0.0128
     3 (A) A             19 (A) A                -0.0118
     8 (A) A   8 (A) B   18 (A) A   19 (A) B      0.0106
     7 (A) A             32 (A) A                 0.0093
     8 (A) A             24 (A) A                -0.0090
     7 (A) A             36 (A) A                -0.0084
     3 (A) A             23 (A) A                 0.0082
     6 (A) A             35 (A) A                -0.0068
     8 (A) A   8 (A) B   25 (A) A   29 (A) B     -0.0067
     5 (A) A             28 (A) A                 0.0065
     3 (A) A   6 (A) B    9 (A) A   27 (A) B     -0.0064
     5 (A) A   8 (A) B   11 (A) A    9 (A) B     -0.0063
     6 (A) A             40 (A) A                 0.0063
     5 (A) A   7 (A) B    9 (A) A    9 (A) B     -0.0060
     7 (A) A   8 (A) B   13 (A) A   20 (A) B     -0.0059
     5 (A) A   8 (A) B   11 (A) A   20 (A) B      0.0059
     5 (A) A   8 (A) B   16 (A) A    9 (A) B      0.0059
     6 (A) A   8 (A) A   19 (A) A   27 (A) A      0.0057
     7 (A) A   8 (A) B   22 (A) A   20 (A) B     -0.0056
    -----------------------------------------------------

  Density matrix analysis:
  ------------------------
  NOs
    Occupation of frontier NOs:
       0.9509   1.0201
    Number of electrons: 16.000000
    Number of unpaired electrons: n_u =  2.31802, n_u,nl =  2.03336
    NO participation ratio (PR_NO):  2.866502
  
  
  Mulliken Population Analysis
  Atom      Charge (e)              h+              e-           Del q
  --------------------------------------------------------------------
   1 H        0.058803        0.021663       -0.018845        0.002818
   2 C       -0.117628        0.490349       -0.495987       -0.005638
   3 H        0.058820        0.021649       -0.018835        0.002814
   4 C       -0.117631        0.490346       -0.495991       -0.005645
   5 H        0.058837        0.021670       -0.018835        0.002835
   6 H        0.058799        0.021642       -0.018825        0.002816
  --------------------------------------------------------------------
  Sum:       -0.000000        1.067319       -1.067319        0.000000
  
  Multipole moment analysis of the density matrix
    Molecular charge:                      -0.000000
    Number of electrons:                   16.000000
      Center of electronic charge [Ang]: [ -1.561338,  -0.065289,   0.002137]
    Total nuclear charge:                  16.000000
      Center of nuclear charge [Ang]:    [ -1.561339,  -0.065287,   0.002135]
    Dipole moment [D]:                     0.000218
      Cartesian components [D]:          [ -0.000087,   0.000126,  -0.000155]
    RMS size of the density [Ang]:         1.222161
      Cartesian components [Ang]:        [  0.809323,   0.793507,   0.457188]
  
  Exciton analysis of the difference density matrix
    <r_h> [Ang]:                  [ -1.561317,  -0.065275,   0.002165]
    <r_e> [Ang]:                  [ -1.561305,  -0.065291,   0.002168]
    |<r_e - r_h>| [Ang]:            0.000021
    Hole size [Ang]:                1.292795
      Cartesian components [Ang]: [  0.732921,   0.720295,   0.784423]
    Electron size [Ang]:            1.487954
      Cartesian components [Ang]: [  0.875123,   0.856526,   0.845298]

  Transition density matrix analysis:
  -----------------------------------
  
  CT numbers (Mulliken)
    omega =     0.9521
    <Phe> =    -0.1592
  
  Exciton analysis of the transition density matrix
    Trans. dipole moment [D]:             1.815030
      Cartesian components [D]:         [ -1.307922,   1.254337,  -0.101551]
    <r_h> [Ang]:                        [ -1.561324,  -0.065279,   0.002160]
    <r_e> [Ang]:                        [ -1.561309,  -0.065297,   0.002172]
    |<r_e - r_h>| [Ang]:                  0.000026
    Hole size [Ang]:                      1.215983
      Cartesian components [Ang]:       [  0.649247,   0.638676,   0.805720]
    Electron size [Ang]:                  1.513565
      Cartesian components [Ang]:       [  0.886795,   0.867354,   0.867277]
    RMS electron-hole separation [Ang]:   1.958947
      Cartesian components [Ang]:       [  1.122176,   1.098965,   1.170671]
    Covariance(r_h, r_e) [Ang^2]:        -0.033990
    Correlation coefficient:             -0.018468
    Center-of-mass size [Ang]:            0.961966
      Cartesian components [Ang]:       [  0.537721,   0.527422,   0.598381]

  Decomposition into state-averaged NTOs
    H- 0 -> L+ 0: -0.6630 ( 87.9%)
    H- 0 -> L+ 1:  0.0932 (  1.7%)
    H- 2 -> L+ 5:  0.0824 (  1.4%)
                   omega =  95.2%
  ----------------------------------------------------------------------------


  Excited state 2 (singlet, A)                                     [converged]
  ----------------------------------------------------------------------------
  Term symbol:  3 (1) A                                     R^2 =  4.87262e-13

  Total energy:                                            -77.9926937049 a.u.
  Excitation energy:                                               8.872576 eV

  Osc. strength:                                                      0.000000
  Trans. dip. moment [a.u.]:           [  -0.000584,    0.000612,   -0.000017]
  <i|r^2|0> [a.u.]:                    [  -0.280144,    0.124572,    0.152306]
  Two-photon absorption cross-section (SoS) [a.u.]:                   4.461547
  Two-photon absorption matrix (SoS) [a.u.]:
                                       |   -0.322794   -0.066971    0.457457 |
                                       |   -0.066971    0.216795    0.512539 |
                                       |    0.457457    0.512539    0.106277 |
  Two-photon absorption cross-section [a.u.]:                         7.300887
  Two-photon absorption matrix [a.u.]:
                                       |   -0.924494   -0.034712   -0.167543 |
                                       |   -0.034712    0.949499   -0.069910 |
                                       |   -0.167543   -0.069910   -0.025625 |

  Dip. moment [a.u.]:                  [   0.000036,    0.000110,   -0.000116]
  Total dipole [Debye]:                                               0.000418
  <r^2> [a.u.]:                        [ 174.827819,   34.384717,   13.306994]
  Total <r^2> [a.u.]:                                               222.519530

  V1^2 = 0.9538, V2^2 = 0.0462

  Important amplitudes:
      occ i     occ j     vir a      vir b          v   
    -----------------------------------------------------
     7 (A) A              9 (A) A                -0.6708
     8 (A) A             11 (A) A                 0.1344
     7 (A) A             20 (A) A                -0.0755
     7 (A) A             10 (A) A                 0.0433
     5 (A) A   8 (A) B    9 (A) A    9 (A) B     -0.0315
     8 (A) A             16 (A) A                -0.0261
     8 (A) A             21 (A) A                 0.0157
     5 (A) A             27 (A) A                 0.0150
     4 (A) A   7 (A) B    9 (A) A   19 (A) B     -0.0135
     5 (A) A   7 (A) B    9 (A) A   16 (A) B     -0.0134
     7 (A) A   8 (A) B   20 (A) A   17 (A) B      0.0105
     7 (A) A   8 (A) A    9 (A) A   27 (A) A      0.0097
     5 (A) A   8 (A) B    9 (A) A   20 (A) B     -0.0094
     4 (A) A   6 (A) B    9 (A) A   16 (A) B      0.0091
     5 (A) A   6 (A) A    9 (A) A   23 (A) A     -0.0091
     5 (A) A   6 (A) A    9 (A) A   14 (A) A     -0.0089
     5 (A) A   6 (A) B    9 (A) A   19 (A) B      0.0086
     4 (A) A   5 (A) A    9 (A) A   10 (A) A      0.0086
     6 (A) A   7 (A) B    9 (A) A   18 (A) B      0.0085
     8 (A) A   7 (A) B    9 (A) A   27 (A) B     -0.0085
     5 (A) A   6 (A) B    9 (A) A   23 (A) B     -0.0080
     3 (A) A   7 (A) B    9 (A) A   18 (A) B     -0.0079
     5 (A) A   7 (A) A    9 (A) A   16 (A) A     -0.0078
     7 (A) A   8 (A) B   17 (A) A   20 (A) B      0.0075
     4 (A) A   7 (A) B   19 (A) A    9 (A) B     -0.0074
     5 (A) A   5 (A) B    9 (A) A   13 (A) B      0.0072
     4 (A) A   5 (A) B    9 (A) A   18 (A) B     -0.0069
     7 (A) A   8 (A) B   19 (A) A   18 (A) B      0.0068
     5 (A) A   8 (A) A    9 (A) A   20 (A) A     -0.0068
     4 (A) A   8 (A) B    9 (A) A   25 (A) B      0.0068
     7 (A) A   8 (A) B   17 (A) A    9 (A) B      0.0067
     7 (A) A   7 (A) B   20 (A) A   22 (A) B     -0.0066
     5 (A) A   6 (A) B    9 (A) A   14 (A) B     -0.0063
     4 (A) A   5 (A) B   10 (A) A    9 (A) B     -0.0062
     5 (A) A   7 (A) B   11 (A) A   20 (A) B      0.0062
     4 (A) A   7 (A) A    9 (A) A   19 (A) A     -0.0060
     5 (A) A             38 (A) A                -0.0059
     4 (A) A   6 (A) B   16 (A) A    9 (A) B      0.0058
     6 (A) A   7 (A) A   19 (A) A   27 (A) A      0.0055
     5 (A) A   7 (A) A   11 (A) A   20 (A) A      0.0054
    -----------------------------------------------------

  Density matrix analysis:
  ------------------------
  NOs
    Occupation of frontier NOs:
       0.9664   1.0453
    Number of electrons: 16.000000
    Number of unpaired electrons: n_u =  2.35954, n_u,nl =  2.05837
    NO participation ratio (PR_NO):  2.989278
  
  
  Mulliken Population Analysis
  Atom      Charge (e)              h+              e-           Del q
  --------------------------------------------------------------------
   1 H        0.159006        0.126259       -0.023239        0.103021
   2 C       -0.317631        0.273068       -0.478709       -0.205642
   3 H        0.158625        0.125871       -0.023250        0.102620
   4 C       -0.317638        0.273072       -0.478724       -0.205652
   5 H        0.158643        0.125852       -0.023212        0.102640
   6 H        0.158995        0.126285       -0.023272        0.103012
  --------------------------------------------------------------------
  Sum:       -0.000000        1.050407       -1.050407        0.000000
  
  Multipole moment analysis of the density matrix
    Molecular charge:                      -0.000000
    Number of electrons:                   16.000000
      Center of electronic charge [Ang]: [ -1.561340,  -0.065291,   0.002139]
    Total nuclear charge:                  16.000000
      Center of nuclear charge [Ang]:    [ -1.561339,  -0.065287,   0.002135]
    Dipole moment [D]:                     0.000418
      Cartesian components [D]:          [  0.000093,   0.000281,  -0.000295]
    RMS size of the density [Ang]:         1.205171
      Cartesian components [Ang]:        [  0.788679,   0.773001,   0.482588]
  
  Exciton analysis of the difference density matrix
    <r_h> [Ang]:                  [ -1.561370,  -0.065297,   0.002126]
    <r_e> [Ang]:                  [ -1.561393,  -0.065345,   0.002156]
    |<r_e - r_h>| [Ang]:            0.000061
    Hole size [Ang]:                1.497174
      Cartesian components [Ang]: [  1.016389,   1.002375,   0.451364]
    Electron size [Ang]:            1.471318
      Cartesian components [Ang]: [  0.873442,   0.856581,   0.817400]

  Transition density matrix analysis:
  -----------------------------------
  
  CT numbers (Mulliken)
    omega =     0.9208
    <Phe> =    -0.0126
  
  Exciton analysis of the transition density matrix
    Trans. dipole moment [D]:             0.001075
      Cartesian components [D]:         [ -0.000742,   0.000778,  -0.000021]
    <r_h> [Ang]:                        [ -1.561369,  -0.065292,   0.002118]
    <r_e> [Ang]:                        [ -1.561395,  -0.065351,   0.002165]
    |<r_e - r_h>| [Ang]:                  0.000080
    Hole size [Ang]:                      1.531054
      Cartesian components [Ang]:       [  1.043515,   1.029062,   0.442983]
    Electron size [Ang]:                  1.466077
      Cartesian components [Ang]:       [  0.860354,   0.843927,   0.834841]
    RMS electron-hole separation [Ang]:   2.099539
      Cartesian components [Ang]:       [  1.336178,   1.315662,   0.944312]
    Covariance(r_h, r_e) [Ang^2]:         0.042722
    Correlation coefficient:              0.019033
    Center-of-mass size [Ang]:            1.069924
      Cartesian components [Ang]:       [  0.684268,   0.672941,   0.472933]

  Decomposition into state-averaged NTOs
    H- 1 -> L+ 0: -0.6642 ( 88.2%)
    H- 0 -> L+ 2: -0.1344 (  3.6%)
                   omega =  92.1%
  ----------------------------------------------------------------------------


  Excited state 3 (singlet, A)                                     [converged]
  ----------------------------------------------------------------------------
  Term symbol:  4 (1) A                                     R^2 =  3.76022e-14

  Total energy:                                            -77.9821179700 a.u.
  Excitation energy:                                               9.160357 eV

  Osc. strength:                                                      0.038253
  Trans. dip. moment [a.u.]:           [  -0.141165,    0.171172,   -0.348166]
  <i|r^2|0> [a.u.]:                    [  -0.833207,    0.042501,    0.002801]
  Two-photon absorption cross-section (SoS) [a.u.]:                   0.000018
  Two-photon absorption matrix (SoS) [a.u.]:
                                       |   -0.001525   -0.000059   -0.000054 |
                                       |   -0.000059    0.001305    0.000133 |
                                       |   -0.000054    0.000133   -0.000489 |
  Two-photon absorption cross-section [a.u.]:                         0.000012
  Two-photon absorption matrix [a.u.]:
                                       |   -0.001354    0.000027   -0.000095 |
                                       |    0.000027    0.000829    0.000073 |
                                       |   -0.000095    0.000073   -0.000306 |

  Dip. moment [a.u.]:                  [  -0.000013,   -0.000037,    0.000066]
  Total dipole [Debye]:                                               0.000195
  <r^2> [a.u.]:                        [ 181.223561,   40.915763,   11.161112]
  Total <r^2> [a.u.]:                                               233.300437

  V1^2 = 0.9584, V2^2 = 0.0416

  Important amplitudes:
      occ i     occ j     vir a      vir b          v   
    -----------------------------------------------------
     8 (A) A             10 (A) A                 0.6870
     8 (A) A             24 (A) A                 0.0498
     8 (A) A              9 (A) A                -0.0461
     8 (A) A             18 (A) A                -0.0334
     8 (A) A   8 (A) B    9 (A) A   12 (A) B     -0.0216
     4 (A) A              9 (A) A                -0.0209
     8 (A) A   8 (A) B   10 (A) A   17 (A) B      0.0169
     5 (A) A   8 (A) B   11 (A) A   10 (A) B      0.0167
     8 (A) A             15 (A) A                 0.0150
     7 (A) A   8 (A) B   13 (A) A   10 (A) B     -0.0141
     4 (A) A             10 (A) A                 0.0126
     6 (A) A   8 (A) A   10 (A) A   15 (A) A     -0.0111
     4 (A) A   8 (A) B   12 (A) A   10 (A) B      0.0110
     6 (A) A   8 (A) B   15 (A) A   10 (A) B      0.0108
     4 (A) A   8 (A) A   10 (A) A   12 (A) A     -0.0107
     7 (A) A   8 (A) B   22 (A) A   10 (A) B     -0.0107
     7 (A) A   8 (A) A   10 (A) A   13 (A) A      0.0098
     7 (A) A   8 (A) A   10 (A) A   22 (A) A      0.0097
     6 (A) A             14 (A) A                 0.0097
     5 (A) A   8 (A) A   10 (A) A   11 (A) A     -0.0096
     7 (A) A             16 (A) A                 0.0093
     5 (A) A   8 (A) B   21 (A) A   10 (A) B      0.0092
     5 (A) A             13 (A) A                -0.0088
     6 (A) A   8 (A) B   10 (A) A   10 (A) B     -0.0086
     6 (A) A   8 (A) A   10 (A) A   18 (A) A     -0.0084
     7 (A) A   8 (A) A   12 (A) A   16 (A) A      0.0083
     8 (A) A             20 (A) A                -0.0082
     3 (A) A   4 (A) B   10 (A) A    9 (A) B      0.0079
     5 (A) A   8 (A) A   10 (A) A   21 (A) A     -0.0078
     6 (A) A             23 (A) A                 0.0077
     4 (A) A   8 (A) B   19 (A) A   10 (A) B     -0.0074
     8 (A) A   8 (A) B    9 (A) A   23 (A) B      0.0074
     8 (A) A   8 (A) B   10 (A) A   27 (A) B      0.0074
     3 (A) A   8 (A) A   10 (A) A   24 (A) A     -0.0071
     7 (A) A   8 (A) B   16 (A) A   12 (A) B     -0.0071
     5 (A) A   8 (A) B   10 (A) A   11 (A) B      0.0070
     3 (A) A   8 (A) B   10 (A) A   10 (A) B      0.0066
     3 (A) A   8 (A) B   10 (A) A   18 (A) B     -0.0065
     6 (A) A   8 (A) B   18 (A) A   10 (A) B      0.0063
     8 (A) A   8 (A) B    9 (A) A   19 (A) B      0.0062
    -----------------------------------------------------

  Density matrix analysis:
  ------------------------
  NOs
    Occupation of frontier NOs:
       0.9819   0.9843
    Number of electrons: 16.000000
    Number of unpaired electrons: n_u =  2.29087, n_u,nl =  2.02539
    NO participation ratio (PR_NO):  2.705531
  
  
  Mulliken Population Analysis
  Atom      Charge (e)              h+              e-           Del q
  --------------------------------------------------------------------
   1 H       -0.149665        0.053813       -0.259462       -0.205650
   2 C        0.299228        0.536118       -0.124900        0.411218
   3 H       -0.149560        0.053809       -0.259374       -0.205565
   4 C        0.299233        0.536117       -0.124898        0.411219
   5 H       -0.149576        0.053810       -0.259388       -0.205578
   6 H       -0.149661        0.053811       -0.259455       -0.205644
  --------------------------------------------------------------------
  Sum:       -0.000000        1.287478       -1.287478        0.000000
  
  Multipole moment analysis of the density matrix
    Molecular charge:                      0.000000
    Number of electrons:                   16.000000
      Center of electronic charge [Ang]: [ -1.561339,  -0.065286,   0.002133]
    Total nuclear charge:                  16.000000
      Center of nuclear charge [Ang]:    [ -1.561339,  -0.065287,   0.002135]
    Dipole moment [D]:                     0.000195
      Cartesian components [D]:          [ -0.000034,  -0.000093,   0.000169]
    RMS size of the density [Ang]:         1.281065
      Cartesian components [Ang]:        [  0.856713,   0.843704,   0.441967]
  
  Exciton analysis of the difference density matrix
    <r_h> [Ang]:                  [ -1.561336,  -0.065291,   0.002151]
    <r_e> [Ang]:                  [ -1.561335,  -0.065269,   0.002102]
    |<r_e - r_h>| [Ang]:            0.000054
    Hole size [Ang]:                1.412143
      Cartesian components [Ang]: [  0.833761,   0.822564,   0.788910]
    Electron size [Ang]:            2.067961
      Cartesian components [Ang]: [  1.365981,   1.369677,   0.731126]

  Transition density matrix analysis:
  -----------------------------------
  
  CT numbers (Mulliken)
    omega =     0.9255
    <Phe> =    -0.0142
  
  Exciton analysis of the transition density matrix
    Trans. dipole moment [D]:             0.524683
      Cartesian components [D]:         [ -0.179403,   0.217538,  -0.442475]
    <r_h> [Ang]:                        [ -1.561332,  -0.065295,   0.002166]
    <r_e> [Ang]:                        [ -1.561333,  -0.065263,   0.002089]
    |<r_e - r_h>| [Ang]:                  0.000084
    Hole size [Ang]:                      1.214935
      Cartesian components [Ang]:       [  0.634198,   0.628266,   0.824101]
    Electron size [Ang]:                  2.282793
      Cartesian components [Ang]:       [  1.506783,   1.513041,   0.807128]
    RMS electron-hole separation [Ang]:   2.576486
      Cartesian components [Ang]:       [  1.627696,   1.631431,   1.152095]
    Covariance(r_h, r_e) [Ang^2]:         0.024465
    Correlation coefficient:              0.008821
    Center-of-mass size [Ang]:            1.297704
      Cartesian components [Ang]:       [  0.820947,   0.822565,   0.577467]

  Decomposition into state-averaged NTOs
    H- 0 -> L+ 1: -0.6728 ( 90.5%)
    H- 0 -> L+ 0: -0.0919 (  1.7%)
                   omega =  92.5%
  ----------------------------------------------------------------------------


  Excited state 4 (singlet, A)                                     [converged]
  ----------------------------------------------------------------------------
  Term symbol:  5 (1) A                                     R^2 =  4.59529e-14

  Total energy:                                            -77.9606382072 a.u.
  Excitation energy:                                               9.744851 eV

  Osc. strength:                                                      0.000000
  Trans. dip. moment [a.u.]:           [  -0.000148,    0.000147,   -0.000008]
  <i|r^2|0> [a.u.]:                    [   0.053587,   -0.019068,   -0.035475]
  Two-photon absorption cross-section (SoS) [a.u.]:                 144.870708
  Two-photon absorption matrix (SoS) [a.u.]:
                                       |    1.301586    0.367194   -2.756413 |
                                       |    0.367194   -0.671202   -3.017302 |
                                       |   -2.756413   -3.017302   -0.632075 |
  Two-photon absorption cross-section [a.u.]:                       105.243507
  Two-photon absorption matrix [a.u.]:
                                       |    1.870143    0.329717   -2.108501 |
                                       |    0.329717   -1.378330   -2.404211 |
                                       |   -2.108501   -2.404211   -0.494170 |

  Dip. moment [a.u.]:                  [  -0.000069,   -0.000041,    0.000073]
  Total dipole [Debye]:                                               0.000276
  <r^2> [a.u.]:                        [ 181.549413,   41.112017,   10.814367]
  Total <r^2> [a.u.]:                                               233.475798

  V1^2 = 0.9632, V2^2 = 0.0368

  Important amplitudes:
      occ i     occ j     vir a      vir b          v   
    -----------------------------------------------------
     8 (A) A             11 (A) A                -0.6723
     7 (A) A              9 (A) A                -0.1365
     8 (A) A             21 (A) A                -0.0782
     8 (A) A             16 (A) A                 0.0682
     8 (A) A   8 (A) B    9 (A) A   13 (A) B     -0.0169
     5 (A) A   8 (A) B   11 (A) A   11 (A) B     -0.0157
     8 (A) A   8 (A) B   11 (A) A   17 (A) B     -0.0136
     7 (A) A   8 (A) B   13 (A) A   11 (A) B      0.0128
     7 (A) A             20 (A) A                -0.0119
     4 (A) A   8 (A) B   12 (A) A   11 (A) B     -0.0111
     5 (A) A   8 (A) A   11 (A) A   21 (A) A      0.0110
     8 (A) A   8 (A) B    9 (A) A   22 (A) B     -0.0109
     7 (A) A   8 (A) A   11 (A) A   22 (A) A     -0.0095
     6 (A) A   8 (A) B   10 (A) A   11 (A) B      0.0090
     6 (A) A   8 (A) B   15 (A) A   11 (A) B     -0.0090
     7 (A) A   8 (A) B   22 (A) A   11 (A) B      0.0088
     3 (A) A   4 (A) B   11 (A) A    9 (A) B     -0.0083
     6 (A) A   8 (A) A   11 (A) A   15 (A) A      0.0080
     7 (A) A   8 (A) A   13 (A) A   16 (A) A      0.0079
     3 (A) A   8 (A) B   11 (A) A   18 (A) B      0.0079
     7 (A) A   8 (A) A   11 (A) A   13 (A) A     -0.0075
     4 (A) A   8 (A) B   19 (A) A   11 (A) B      0.0070
     5 (A) A   8 (A) B   21 (A) A   11 (A) B     -0.0070
     4 (A) A   8 (A) A   11 (A) A   12 (A) A      0.0062
     5 (A) A   8 (A) B    9 (A) A    9 (A) B     -0.0062
     3 (A) A   6 (A) B   11 (A) A   27 (A) B     -0.0060
     6 (A) A   8 (A) A   11 (A) A   18 (A) A      0.0059
     6 (A) A   8 (A) B   18 (A) A   11 (A) B     -0.0058
     7 (A) A   8 (A) B   16 (A) A   13 (A) B     -0.0057
     3 (A) A   8 (A) B   11 (A) A   30 (A) B      0.0056
     7 (A) A   8 (A) B   12 (A) A   10 (A) B     -0.0056
     6 (A) A   8 (A) B   11 (A) A   10 (A) B      0.0055
     5 (A) A   8 (A) B   10 (A) A   10 (A) B     -0.0055
     8 (A) A   8 (A) B   20 (A) A   22 (A) B     -0.0054
     3 (A) A   8 (A) A   11 (A) A   18 (A) A      0.0053
     3 (A) A   8 (A) A   11 (A) A   24 (A) A      0.0053
     5 (A) A   8 (A) A   11 (A) A   16 (A) A     -0.0050
     3 (A) A   5 (A) B   11 (A) A   25 (A) B      0.0048
     6 (A) A   8 (A) A   10 (A) A   16 (A) A      0.0047
     7 (A) A             10 (A) A                 0.0047
    -----------------------------------------------------

  Density matrix analysis:
  ------------------------
  NOs
    Occupation of frontier NOs:
       0.9486   1.0193
    Number of electrons: 16.000000
    Number of unpaired electrons: n_u =  2.32300, n_u,nl =  2.04456
    NO participation ratio (PR_NO):  2.877956
  
  
  Mulliken Population Analysis
  Atom      Charge (e)              h+              e-           Del q
  --------------------------------------------------------------------
   1 H       -0.126998        0.044885       -0.227868       -0.182983
   2 C        0.254568        0.500589       -0.134032        0.366558
   3 H       -0.127575        0.044819       -0.228399       -0.183580
   4 C        0.254572        0.500587       -0.134030        0.366557
   5 H       -0.127587        0.044819       -0.228408       -0.183589
   6 H       -0.126980        0.044885       -0.227847       -0.182963
  --------------------------------------------------------------------
  Sum:       -0.000000        1.180584       -1.180584        0.000000
  
  Multipole moment analysis of the density matrix
    Molecular charge:                      0.000000
    Number of electrons:                   16.000000
      Center of electronic charge [Ang]: [ -1.561337,  -0.065286,   0.002132]
    Total nuclear charge:                  16.000000
      Center of nuclear charge [Ang]:    [ -1.561339,  -0.065287,   0.002135]
    Dipole moment [D]:                     0.000276
      Cartesian components [D]:          [ -0.000177,  -0.000104,   0.000185]
    RMS size of the density [Ang]:         1.282265
      Cartesian components [Ang]:        [  0.860038,   0.845737,   0.435047]
  
  Exciton analysis of the difference density matrix
    <r_h> [Ang]:                  [ -1.561335,  -0.065290,   0.002154]
    <r_e> [Ang]:                  [ -1.561309,  -0.065265,   0.002097]
    |<r_e - r_h>| [Ang]:            0.000068
    Hole size [Ang]:                1.392858
      Cartesian components [Ang]: [  0.815335,   0.804485,   0.792519]
    Electron size [Ang]:            2.114401
      Cartesian components [Ang]: [  1.420877,   1.414831,   0.670860]

  Transition density matrix analysis:
  -----------------------------------
  
  CT numbers (Mulliken)
    omega =     0.9288
    <Phe> =    -0.0139
  
  Exciton analysis of the transition density matrix
    Trans. dipole moment [D]:             0.000265
      Cartesian components [D]:         [ -0.000188,   0.000186,  -0.000010]
    <r_h> [Ang]:                        [ -1.561336,  -0.065295,   0.002165]
    <r_e> [Ang]:                        [ -1.561303,  -0.065260,   0.002089]
    |<r_e - r_h>| [Ang]:                  0.000090
    Hole size [Ang]:                      1.227226
      Cartesian components [Ang]:       [  0.654987,   0.646942,   0.811505]
    Electron size [Ang]:                  2.253437
      Cartesian components [Ang]:       [  1.514301,   1.508916,   0.712771]
    RMS electron-hole separation [Ang]:   2.554787
      Cartesian components [Ang]:       [  1.641054,   1.633621,   1.079427]
    Covariance(r_h, r_e) [Ang^2]:         0.028561
    Correlation coefficient:              0.010328
    Center-of-mass size [Ang]:            1.288525
      Cartesian components [Ang]:       [  0.829333,   0.824925,   0.540371]

  Decomposition into state-averaged NTOs
    H- 0 -> L+ 2:  0.6675 ( 89.1%)
    H- 1 -> L+ 0: -0.1346 (  3.6%)
                   omega =  92.9%
  ----------------------------------------------------------------------------


  Excited state 5 (singlet, A)                                     [converged]
  ----------------------------------------------------------------------------
  Term symbol:  6 (1) A                                     R^2 =  8.49160e-14

  Total energy:                                            -77.9464950295 a.u.
  Excitation energy:                                              10.129706 eV

  Osc. strength:                                                      0.000000
  Trans. dip. moment [a.u.]:           [   0.000015,    0.000033,   -0.000008]
  <i|r^2|0> [a.u.]:                    [  -0.117799,    0.068848,   -0.032949]
  Two-photon absorption cross-section (SoS) [a.u.]:                 200.714968
  Two-photon absorption matrix (SoS) [a.u.]:
                                       |   -1.255640    0.691866    3.469510 |
                                       |    0.691866   -0.447086   -3.302211 |
                                       |    3.469510   -3.302211   -0.061842 |
  Two-photon absorption cross-section [a.u.]:                       110.417420
  Two-photon absorption matrix [a.u.]:
[...]
    16    2.067123681092e-03
    17   -5.068596105562e-03
    18   -2.226063261657e-04
    19   -2.869830488272e-03
    20    9.275547600685e-03
    21    9.231129360181e-01
    22   -6.012642875460e-04
    23    1.357148947900e-02
    24    2.600669685479e-03
    25    6.963857960401e-02
    26   -5.158023183629e-02
    27   -1.369457272007e+00
    28    1.003525080014e-01
    29   -9.131984568096e-02
    30   -3.807270633581e-02
    31    3.906637276353e-01
    32   -3.553911097914e-01
    33   -1.512375268370e-01
    34    1.512609205176e-02
    35    2.066945044015e-03
    36   -5.065147718337e-03
    37   -2.222803077778e-04
    38   -2.869339980332e-03
    39    9.274081183785e-03
    40    9.231412926470e-01
    41    6.005817884930e-04
    42   -1.357178054899e-02
    43   -2.598905968821e-03
    44    9.278832625928e-03
    45    9.228478252955e-01
    46    1.376904616327e-02
    47    3.018859288209e-04
    48   -1.126538222735e-03
Sym=X
Ene= 0.231044
Spin=Alpha
Occup=0
     1    3.040361582096e-02
     2    1.164403675811e+00
     3   -1.301808993788e-02
     4   -3.585788741544e-03
     5   -3.456683771620e-05
     6   -1.817624251931e-04
     7    2.158795554796e-04
     8    2.690967429235e-03
     9   -1.548045318844e-01
    10   -1.630035032136e-01
    11   -1.733090288023e-02
    12   -5.289572822795e-01
    13   -5.578588106771e-01
    14   -5.924483676964e-02
    15    5.745025614880e-04
    16    3.181256748521e-03
    17    3.190990159796e-03
    18    1.438430133364e-03
    19   -2.543494279875e-04
    20   -3.046928833733e-02
    21   -1.168677119830e+00
    22   -2.874639616468e-03
    23   -1.313713726206e-02
    24   -1.745698678675e-03
    25    1.831694633993e-04
    26   -2.168683547655e-04
    27   -2.729821253716e-03
    28   -1.548007303018e-01
    29   -1.630091445628e-01
    30   -1.730541027019e-02
    31   -5.289390052392e-01
    32   -5.578750625016e-01
    33   -5.914253017151e-02
    34   -5.743651219149e-04
    35   -3.180981521519e-03
    36   -3.188697260063e-03
    37   -1.436729725464e-03
    38    2.542128285751e-04
    39    3.047107023762e-02
    40    1.168690197691e+00
    41   -2.874456397149e-03
    42   -1.313761417607e-02
    43   -1.744152081845e-03
    44   -3.040158914713e-02
    45   -1.164374788792e+00
    46   -1.301817292358e-02
    47   -3.585409373130e-03
    48   -3.326886966088e-05
Sym=X
Ene= 0.236073
Spin=Alpha
Occup=0
     1    1.948174906739e-02
     2    1.071758629370e+00
     3   -1.574164137875e-02
     4   -9.154024906270e-03
     5   -3.497725401948e-05
     6    8.701202917990e-02
     7   -8.147228438380e-02
     8   -1.545038649996e+00
     9   -6.036767059295e-02
    10    5.490204769079e-02
    11    1.723832584006e-02
    12   -2.424533886516e-01
    13    2.224537576087e-01
    14    5.418653454514e-02
    15    2.063338128912e-02
    16   -2.249360875266e-03
    17   -2.986841934628e-03
    18    6.000263795344e-04
    19   -1.240552283051e-02
    20    1.938218715241e-02
    21    1.067130577707e+00
    22    8.195399273201e-03
    23    1.598721376250e-02
    24    2.631445021737e-03
    25   -8.701081447527e-02
    26    8.146953790139e-02
    27    1.545041699961e+00
    28   -6.036680053950e-02
    29    5.490866773893e-02
    30    1.719173858739e-02
    31   -2.424361105537e-01
    32    2.224914221515e-01
    33    5.399894366172e-02
    34   -2.063362715423e-02
    35    2.252444811141e-03
    36    2.982213744888e-03
    37   -6.022507668695e-04
    38    1.240522621728e-02
    39   -1.938477437978e-02
    40   -1.067146824328e+00
    41    8.196121225807e-03
    42    1.598831617387e-02
    43    2.628200976126e-03
    44   -1.948344400401e-02
    45   -1.071728256568e+00
    46   -1.574075298142e-02
    47   -9.154752631062e-03
    48   -3.756847667364e-05
Sym=X
Ene= 0.302641
Spin=Alpha
Occup=0
     1    2.015928385813e-02
     2   -1.641773387379e+00
     3    2.325350840940e-02
     4   -4.632181901452e-04
     5    1.419394135997e-03
     6   -1.984904944052e-06
     7    1.639711157871e-05
     8   -4.367095449471e-04
     9    1.361539895247e-01
    10    1.432809474305e-01
    11    1.520816398040e-02
    12    1.114008240780e+00
    13    1.171918048963e+00
    14    1.243727546878e-01
    15   -4.925208523419e-04
    16   -6.750865949344e-04
    17   -4.434554098575e-03
    18    3.326697765444e-02
    19    1.958238624930e-03
    20   -2.022512543796e-02
    21    1.642252400439e+00
    22   -1.604882049721e-03
    23    2.322929006421e-02
    24    9.965825175633e-04
    25   -3.186096029788e-06
    26    1.466880401087e-05
    27   -3.810787540795e-04
    28   -1.361575658862e-01
    29   -1.432830558634e-01
    30   -1.519365160168e-02
    31   -1.113983379087e+00
    32   -1.171941181656e+00
    33   -1.243226178249e-01
    34   -4.911791846178e-04
    35   -6.683686952547e-04
    36   -4.426260032511e-03
    37    3.326743635597e-02
    38    1.958031856422e-03
    39   -2.022796200421e-02
    40    1.642266501942e+00
    41    1.605754011587e-03
    42   -2.322907769032e-02
    43   -9.931756771924e-04
    44    2.015819175422e-02
    45   -1.641810225300e+00
    46   -2.325376595666e-02
    47    4.640052716003e-04
    48   -1.420626511849e-03
Sym=X
Ene= 0.460986
Spin=Alpha
Occup=0
     1   -1.138513511016e-01
     2   -6.844158549609e-01
     3   -1.478863644451e-02
     4   -9.869392039119e-03
     5   -1.823999516402e-03
     6    6.278832908656e-02
     7    1.550666433476e-02
     8   -3.610254830470e+00
     9    1.067342456747e-01
    10   -9.806581373143e-02
    11   -3.177024897351e-02
    12    2.399122676764e+00
    13   -2.294206231649e+00
    14    1.184110899103e-01
    15    5.257318698593e-02
    16   -2.610417790625e-03
    17   -5.033812175141e-03
    18   -1.185495818903e-03
    19    2.057588903490e-02
    20   -1.134239431774e-01
    21   -6.854483547975e-01
    22    9.218066117060e-03
    23    1.529638616063e-02
    24    8.525292550757e-04
    25   -6.278829574526e-02
    26   -1.549701664823e-02
    27    3.610226227098e+00
    28    1.067419925958e-01
    29   -9.807740886510e-02
    30   -3.174272813452e-02
    31    2.399102277255e+00
    32   -2.294199397767e+00
    33    1.185293923534e-01
    34   -5.257139668703e-02
    35    2.603068071401e-03
    36    5.031200613502e-03
    37    1.185860538056e-03
    38   -2.057948770271e-02
    39    1.133930825373e-01
    40    6.855141131634e-01
    41    9.218229401952e-03
    42    1.529611624364e-02
    43    8.523441658784e-04
    44    1.138349870201e-01
    45    6.844249280630e-01
    46   -1.478809442289e-02
    47   -9.868329476714e-03
    48   -1.821065532472e-03
Sym=X
Ene= 0.580064
Spin=Alpha
Occup=0
     1    2.357636367429e-01
     2    4.550338520098e-02
     3   -2.226003172860e-02
     4    2.657754638446e-02
     5    1.706237792463e-03
     6   -6.473268596133e-03
     7   -1.707666101838e-01
     8   -4.090531184728e-01
     9    3.060532600108e-01
    10   -2.923309140450e-01
    11    1.461758949296e-02
    12   -7.486835006227e-01
    13    7.073251376995e-01
    14    3.738677295970e-02
    15   -1.080508169460e-03
    16    3.719096971309e-03
    17    3.075080970878e-03
    18   -2.987552281486e-03
    19    6.007016060689e-02
    20    2.354078693050e-01
    21    4.632517326915e-02
    22   -2.779558178744e-02
    23    2.075806497999e-02
    24    1.093286347552e-03
    25   -6.478919292296e-03
    26   -1.707712614519e-01
    27   -4.087664174108e-01
    28   -3.060492157484e-01
    29    2.923158855667e-01
    30   -1.462298585310e-02
    31    7.489166616790e-01
    32   -7.075135602345e-01
    33   -3.734392686048e-02
    34   -1.080096543795e-03
    35    3.717808119866e-03
    36    3.074459127850e-03
    37   -2.979688077994e-03
    38    6.006998261332e-02
    39    2.353640404950e-01
    40    4.645366815918e-02
    41    2.780212562608e-02
    42   -2.076394726827e-02
    43   -1.091012455022e-03
    44    2.357949055043e-01
    45    4.557352375813e-02
    46    2.225811570713e-02
    47   -2.657758717496e-02
    48   -1.703563550000e-03
Sym=X
Ene= 0.608524
Spin=Alpha
Occup=0
     1   -5.193568644484e-01
     2    2.502987247764e-01
     3   -5.973645802565e-02
     4    3.676371366848e-02
     5    1.734328880151e-03
     6    2.924773049948e-05
     7   -1.418407097806e-05
     8    1.742284233407e-03
     9   -3.497196868272e-02
    10   -3.697147830337e-02
    11   -3.842364427684e-03
    12    2.566182034934e-01
    13    2.728593778285e-01
    14    2.872815419781e-02
    15    1.620206082360e-03
    16    5.624555381467e-04
    17    1.720086843862e-02
    18   -1.484184440923e-01
    19   -8.568011668372e-03
    20    5.200173054737e-01
    21   -2.497154180701e-01
    22    3.997742586900e-02
    23   -5.755258308611e-02
    24   -3.934706678865e-03
    25   -3.102205719601e-05
    26    7.405824746828e-06
    27   -1.667142954034e-03
    28   -3.495731427763e-02
    29   -3.698168413477e-02
    30   -3.848322717638e-03
    31    2.565717401357e-01
    32    2.729338918232e-01
    33    2.867931697058e-02
    34   -1.609110570396e-03
    35   -5.453879007691e-04
    36   -1.718046977599e-02
    37    1.484237154377e-01
    38    8.561552980204e-03
    39   -5.200649646854e-01
    40    2.497181293737e-01
    41    3.997159652494e-02
    42   -5.755410906949e-02
    43   -3.929971898798e-03
    44    5.193228428156e-01
    45   -2.503077913540e-01
    46   -5.973685878324e-02
    47    3.676740405360e-02
    48    1.726822762183e-03
Sym=X
Ene= 0.690299
Spin=Alpha
Occup=0
     1    3.936337740855e-02
     2    7.019470701813e-02
     3   -4.632665072803e-03
     4    6.602401477986e-03
     5   -1.806233113375e-02
     6    2.113972404158e-03
     7   -2.386058400381e-02
     8    8.343072473312e-02
     9    2.792321112685e-02
    10    4.443804581388e-02
    11   -6.691505299165e-01
    12   -1.658875168133e-01
    13    9.296064948642e-02
    14    6.110529591582e-01
    15    8.158223019839e-03
    16    8.125892136060e-02
    17   -7.722578192269e-02
    18   -9.349273718453e-03
    19    1.418072767724e-02
    20    3.942317860854e-02
    21    7.026917273614e-02
    22   -4.902613196690e-03
    23    6.309415841134e-03
    24   -1.811129117064e-02
    25   -2.116683989794e-03
    26    2.378514871974e-02
    27   -8.338036405049e-02
    28    2.789158353225e-02
    29    4.441919603071e-02
    30   -6.691615186778e-01
    31   -1.658617670283e-01
    32    9.298962808635e-02
    33    6.110584532907e-01
    34   -8.134409246008e-03
    35   -8.125957875810e-02
    36    7.722329444731e-02
    37    9.357937996824e-03
    38   -1.418984705186e-02
    39   -3.948011121329e-02
    40   -7.019776990664e-02
    41   -4.911251012552e-03
    42    6.287712597950e-03
    43   -1.811586794592e-02
    44   -3.941386699874e-02
    45   -7.017578406246e-02
    46   -4.615882877232e-03
    47    6.604089073746e-03
    48   -1.806337104807e-02
Sym=X
Ene= 0.708944
Spin=Alpha
Occup=0
     1   -4.898856464954e-01
     2    1.667836773933e-01
     3   -7.841295723322e-02
     4   -4.555807260005e-02
     5   -1.228637160352e-02
     6   -4.591133616356e-02
     7   -2.934343781012e-01
     8    4.512231814647e-01
     9    1.955376291406e-01
    10   -1.857845392479e-01
    11   -2.240393817794e-03
    12   -5.074584258619e-02
    13    5.919534318975e-02
    14   -9.686073295754e-02
    15    1.918933402528e-01
    16   -2.374330013064e-02
    17   -2.125845324958e-02
    18    4.206872806618e-03
    19   -7.829166151504e-02
    20   -4.897742031101e-01
    21    1.671781321258e-01
    22    4.208822489546e-02
    23    8.132670999995e-02
    24    1.164896699819e-03
    25   -4.591437887813e-02
    26   -2.934350637104e-01
    27    4.510670084354e-01
    28   -1.955312272025e-01
    29    1.857568136784e-01
    30    2.324221063331e-03
    31    5.061949910945e-02
    32   -5.907359157942e-02
    33    9.675138653846e-02
    34    1.919139186279e-01
    35   -2.373843837334e-02
    36   -2.124375739842e-02
    37    4.197574687519e-03
    38   -7.827917315248e-02
    39   -4.897700341133e-01
    40    1.671414337198e-01
    41   -4.208718232478e-02
    42   -8.132939486493e-02
    43   -1.157235602527e-03
    44   -4.899359669108e-01
    45    1.667814412682e-01
    46    7.842393877624e-02
    47    4.555613588449e-02
    48    1.228588768221e-02
Sym=X
Ene= 0.776824
Spin=Alpha
Occup=0
     1   -5.390922212973e-01
     2    4.882074078459e-01
     3   -1.081330626428e-01
     4   -2.632770806558e-02
     5   -7.452473703449e-03
     6   -8.839764785702e-02
     7    2.318548972799e-01
     8    5.563102775903e-01
     9   -1.003637723090e-01
    10    9.824065027274e-02
    11   -2.454059956685e-02
    12   -3.010505434686e-01
    13    2.868101805362e-01
    14   -5.199163945665e-03
    15    2.023628491378e-01
    16   -8.173702708518e-03
    17   -3.044623041357e-02
    18   -8.824726384085e-04
    19   -7.770985408577e-03
    20   -5.383900402197e-01
    21    4.875713998319e-01
    22    2.088389151313e-02
    23    1.092185526309e-01
    24    6.925243325431e-03
    25    8.839534298789e-02
    26   -2.318530941641e-01
    27   -5.563659623167e-01
    28   -1.003883625320e-01
    29    9.825401678811e-02
    30   -2.466546518204e-02
    31   -3.009902941518e-01
    32    2.867918515649e-01
    33   -4.929068058239e-03
    34   -2.023562743662e-01
    35    8.175240442700e-03
    36    3.040715662166e-02
    37    8.748915622739e-04
    38    7.762893265713e-03
    39    5.383682526265e-01
    40   -4.875574649800e-01
    41    2.087843265027e-02
    42    1.092170155763e-01
    43    6.917267747395e-03
    44    5.390745452457e-01
    45   -4.881510849236e-01
    46   -1.081226122514e-01
    47   -2.632670605426e-02
    48   -7.448266802461e-03
Sym=X
Ene= 0.806427
Spin=Alpha
Occup=0
     1    2.003605414379e-03
     2    1.118542341418e-02
     3   -7.785164877670e-03
     4    4.790966154993e-03
     5   -3.164972045958e-02
     6    2.045162531650e-03
     7   -3.847302352990e-02
     8    1.887527375288e-02
     9    4.602564197451e-02
    10    3.731492514758e-02
    11   -7.632487915689e-01
    12   -7.726187224505e-02
    13   -4.600872010969e-02
    14    1.122859402759e+00
    15   -4.513960582215e-03
    16   -6.429792961730e-02
    17    6.130682040456e-02
    18    7.130433750997e-03
    19   -5.960344181574e-03
    20    1.959678283084e-03
    21    1.097892341966e-02
    22   -1.866509321675e-03
    23    1.099251346015e-02
    24   -3.096387116319e-02
    25    2.059657445769e-03
    26   -3.850782961698e-02
    27    1.889604535132e-02
    28   -4.604051947707e-02
    29   -3.721237731794e-02
    30    7.632483950179e-01
    31    7.717925320287e-02
    32    4.594523266779e-02
    33   -1.122860344700e+00
    34   -4.563077997717e-03
    35   -6.429509371263e-02
    36    6.131171137412e-02
    37    7.148032938944e-03
    38   -5.973835760314e-03
    39    2.034259689531e-03
    40    1.093406774835e-02
    41    1.854408813206e-03
    42   -1.096614071543e-02
    43    3.096258064156e-02
    44    2.081864706167e-03
    45    1.101342478219e-02
    46    7.746900951514e-03
    47   -4.789129773451e-03
    48    3.164873182890e-02
Sym=X
Ene= 0.858047
Spin=Alpha
Occup=0
     1    1.398956079219e-02
     2   -1.074262620509e+00
     3    1.465735754380e-01
     4    5.649236780671e-02
     5    3.402155827975e-04
     6   -3.361093043293e-05
     7    1.114102076470e-04
     8   -2.236566728335e-04
     9   -4.128087788702e-01
    10   -4.338665147291e-01
    11   -4.606529966119e-02
    12    9.372706687962e-01
    13    9.852281153919e-01
    14    1.046049752874e-01
    15   -1.899181268771e-03
    16    2.562629296611e-03
    17   -2.293046265833e-02
    18    2.294127667063e-01
    19    1.287566520775e-02
    20   -1.415492222875e-02
    21    1.073894098659e+00
    22    4.783835299048e-02
    23    1.480897874643e-01
    24    2.136000194513e-02
    25    3.486114756730e-05
    26   -1.084878936860e-04
    27    2.296716318014e-04
    28   -4.127812261053e-01
    29   -4.338482985448e-01
    30   -4.598978213663e-02
    31    9.371593315135e-01
    32    9.851489555141e-01
    33    1.044300395332e-01
    34    1.892460450605e-03
    35   -2.564934970915e-03
    36    2.292883443871e-02
    37   -2.294236757880e-01
    38   -1.287931140399e-02
    39    1.416155899094e-02
    40   -1.073828684413e+00
    41    4.783481800059e-02
    42    1.480867672477e-01
    43    2.134751282103e-02
    44   -1.398417205762e-02
    45    1.074186855353e+00
    46    1.465677351593e-01
    47    5.648991687822e-02
    48    3.398806417272e-04
Sym=X
Ene= 0.923227
Spin=Alpha
Occup=0
     1   -1.136167824923e-01
     2    1.237395286664e+00
     3   -1.794207841352e-01
     4    7.020737001047e-03
     5   -1.416159347627e-02
     6    5.634950786941e-06
     7    3.903591067075e-04
     8   -3.964141262563e-04
     9    4.761350421435e-01
    10    5.006786512528e-01
    11    5.318206556089e-02
    12   -1.440655676975e+00
    13   -1.515517190462e+00
    14   -1.608806515957e-01
    15   -7.498824662968e-04
    16   -1.043967610401e-02
    17    1.897230505996e-03
    18   -1.151713374731e-01
    19   -5.531585128242e-03
    20    1.134324270489e-01
    21   -1.237148923827e+00
    22    1.566878737369e-02
    23   -1.792678858941e-01
    24   -4.104932718461e-03
    25    6.355609656479e-06
    26    4.187610555612e-04
    27   -4.009869629518e-04
    28   -4.761899934317e-01
    29   -5.006763877925e-01
    30   -5.315911461964e-02
    31    1.440787650438e+00
    32    1.515499076841e+00
    33    1.608155205795e-01
    34   -7.518876245577e-04
    35   -1.045162600755e-02
    36    1.860246524074e-03
    37   -1.151832632811e-01
    38   -5.556339652713e-03
    39    1.134202377453e-01
    40   -1.237154764238e+00
    41   -1.567659265583e-02
    42    1.792640196959e-01
    43    4.084640146025e-03
    44   -1.136355142107e-01
    45    1.237546018046e+00
    46    1.794369265238e-01
    47   -7.009967810797e-03
    48    1.416604657292e-02
Sym=X
Ene= 0.968270
Spin=Alpha
Occup=0
     1   -5.830075373940e-02
     2    8.895431333823e-01
     3   -8.622424717887e-02
     4   -9.689670359477e-02
     5    2.634456612218e-03
     6    2.714134685492e-02
     7    2.448840771464e-01
     8    5.338739916333e-01
     9    4.842797076904e-01
    10   -4.594920482332e-01
    11   -1.023280874424e-02
    12   -1.473965876461e+00
    13    1.400955030297e+00
    14    8.897600172501e-03
    15   -6.012617341044e-02
    16    1.158534850078e-02
    17   -3.145995963758e-02
    18    1.269560797800e-02
    19   -2.952976091576e-01
    20   -5.852888634221e-02
    21    8.903953525246e-01
    22    9.102719589860e-02
    23    8.975065246723e-02
    24    2.243221193872e-02
    25   -2.713949678665e-02
    26   -2.448046421353e-01
    27   -5.339890508962e-01
    28    4.842361715938e-01
    29   -4.595277790951e-01
    30   -1.017154801143e-02
    31   -1.473834299824e+00
    32    1.401094902394e+00
    33    8.727866971189e-03
    34    6.011152167902e-02
    35   -1.158127874844e-02
    36    3.145649823677e-02
    37   -1.270967089664e-02
    38    2.952888417605e-01
    39    5.854457700139e-02
    40   -8.904741984254e-01
    41    9.102314328161e-02
    42    8.976607088895e-02
    43    2.241431299699e-02
    44    5.830497159756e-02
    45   -8.894061721284e-01
    46   -8.620519815286e-02
    47   -9.689463353364e-02
    48    2.623360225885e-03
[5D]

======= END OF MOLDEN-FORMATTED INPUT FILE =======


        *************************************************************
        *                                                           *
        *  Thank you very much for using Q-Chem.  Have a nice day.  *
        *                                                           *
        *************************************************************


