                  Welcome to Q-Chem
     A Quantum Leap Into The Future Of Chemistry


 Q-Chem 5.4 (devel), Q-Chem, Inc., Pleasanton, CA (2021)

 E. Epifanovsky,  A. T. B. Gilbert,  Xintian Feng,  Joonho Lee,  Yuezhi Mao,  
 N. Mardirossian,  P. Pokhilko,  A. White,  M. Wormit,  M. P. Coons,  
 A. L. Dempwolff,  Zhengting Gan,  D. Hait,  P. R. Horn,  L. D. Jacobson,  
 I. Kaliman,  J. Kussmann,  A. W. Lange,  Ka Un Lao,  D. S. Levine,  Jie Liu,  
 S. C. McKenzie,  A. F. Morrison,  K. Nanda,  F. Plasser,  D. R. Rehn,  
 M. L. Vidal,  Zhi-Qiang You,  Ying Zhu,  B. Alam,  B. Albrecht,  
 A. Aldossary,  E. Alguire,  J. H. Andersen,  D. Barton,  K. Begam,  A. Behn,  
 Y. A. Bernard,  E. J. Berquist,  H. Burton,  A. Carreras,  K. Carter-Fenk,  
 R. Chakraborty,  A. D. Chien,  K. D. Closser,  V. Cofer-Shabica,  
 S. Dasgupta,  Jia Deng,  M. de Wergifosse,  M. Diedenhofen,  Hainam Do,  
 S. Ehlert,  Po-Tung Fang,  S. Fatehi,  Qingguo Feng,  T. Friedhoff,  
 J. Gayvert,  Qinghui Ge,  G. Gidofalvi,  M. Goldey,  J. Gomes,  
 C. Gonzalez-Espinoza,  S. Gulania,  A. Gunina,  M. W. D. Hanson-Heine,  
 P. H. P. Harbach,  A. W. Hauser,  M. F. Herbst,  M. Hernandez Vera,  
 M. Hodecker,  Z. C. Holden,  S. Houck,  Xunkun Huang,  Kerwin Hui,  
 B. C. Huynh,  M. Ivanov,  Hyunjun Ji,  Hanjie Jiang,  B. Kaduk,  S. Kaehler,  
 K. Khistyaev,  Jaehoon Kim,  P. Klunzinger,  Z. Koczor-Benda,  
 Joong Hoon Koh,  D. Kosenkov,  L. Koulias,  T. Kowalczyk,  C. M. Krauter,  
 K. Kue,  A. Kunitsa,  T. Kus,  A. Landau,  K. V. Lawler,  D. Lefrancois,  
 S. Lehtola,  Rain Li,  Yi-Pei Li,  Jiashu Liang,  M. Liebenthal,  
 Hung-Hsuan Lin,  You-Sheng Lin,  Fenglai Liu,  Kuan-Yu Liu,  
 M. Loipersberger,  A. Luenser,  A. Manjanath,  P. Manohar,  E. Mansoor,  
 S. F. Manzer,  Shan-Ping Mao,  A. V. Marenich,  T. Markovich,  S. Mason,  
 S. A. Maurer,  P. F. McLaughlin,  M. F. S. J. Menger,  J.-M. Mewes,  
 S. A. Mewes,  P. Morgante,  J. W. Mullinax,  K. J. Oosterbaan,  G. Paran,  
 Alexander C. Paul,  Suranjan K. Paul,  F. Pavosevic,  Zheng Pei,  S. Prager,  
 E. I. Proynov,  E. Ramos,  B. Rana,  A. E. Rask,  A. Rettig,  R. M. Richard,  
 F. Rob,  E. Rossomme,  T. Scheele,  M. Scheurer,  M. Schneider,  
 N. Sergueev,  S. M. Sharada,  W. Skomorowski,  D. W. Small,  C. J. Stein,  
 Yu-Chuan Su,  E. J. Sundstrom,  Zhen Tao,  J. Thirman,  T. Tsuchimochi,  
 N. M. Tubman,  S. P. Veccham,  O. Vydrov,  J. Wenzel,  J. Witte,  A. Yamada,  
 Kun Yao,  S. Yeganeh,  S. R. Yost,  A. Zech,  Igor Ying Zhang,  Xing Zhang,  
 Yu Zhang,  D. Zuev,  A. Aspuru-Guzik,  A. T. Bell,  N. A. Besley,  
 K. B. Bravaya,  B. R. Brooks,  D. Casanova,  Jeng-Da Chai,  S. Coriani,  
 C. J. Cramer,  A. E. DePrince, III,  R. A. DiStasio Jr.,  A. Dreuw,  
 B. D. Dunietz,  T. R. Furlani,  W. A. Goddard III,  S. Grimme,  
 S. Hammes-Schiffer,  T. Head-Gordon,  W. J. Hehre,  Chao-Ping Hsu,  
 T.-C. Jagau,  Yousung Jung,  A. Klamt,  Jing Kong,  D. S. Lambrecht,  
 WanZhen Liang,  N. J. Mayhall,  C. W. McCurdy,  J. B. Neaton,  
 C. Ochsenfeld,  J. A. Parkhill,  R. Peverati,  V. A. Rassolov,  Yihan Shao,  
 L. V. Slipchenko,  T. Stauch,  R. P. Steele,  J. E. Subotnik,  
 A. J. W. Thom,  A. Tkatchenko,  D. G. Truhlar,  T. Van Voorhis,  
 T. A. Wesolowski,  K. B. Whaley,  H. L. Woodcock III,  P. M. Zimmerman,  
 S. Faraji,  P. M. W. Gill,  M. Head-Gordon,  J. M. Herbert,  A. I. Krylov

 Additional authors for Version 5.4.1: 
 S. Kotaru,  Shaozhi Li,  Xiangyuan Li,  F. Matz,  A. Molle,  Haisheng Ren,  
 Yingli Su,  Hung-Yi Tsai,  C. Utku,  Fang Wang

 Contributors to earlier versions of Q-Chem not listed above: 
 R. D. Adamson,  B. Austin,  R. Baer,  J. Baker,  G. J. O. Beran,  
 K. Brandhorst,  S. T. Brown,  E. F. C. Byrd,  A. K. Chakraborty,  
 G. K. L. Chan,  Chun-Min Chang,  Yunqing Chen,  C.-L. Cheng,  
 Siu Hung Chien,  D. M. Chipman,  D. L. Crittenden,  H. Dachsel,  
 R. J. Doerksen,  A. D. Dutoi,  R. G. Edgar,  J. Fosso-Tande,  
 L. Fusti-Molnar,  D. Ghosh,  A. Ghysels,  A. Golubeva-Zadorozhnaya,  
 J. Gonthier,  M. S. Gordon,  S. R. Gwaltney,  G. Hawkins,  J. E. Herr,  
 A. Heyden,  S. Hirata,  E. G. Hohenstein,  G. Kedziora,  F. J. Keil,  
 C. Kelley,  Jihan Kim,  R. A. King,  R. Z. Khaliullin,  P. P. Korambath,  
 W. Kurlancheek,  A. Laurent,  A. M. Lee,  M. S. Lee,  S. V. Levchenko,  
 Ching Yeh Lin,  D. Liotard,  E. Livshits,  R. C. Lochan,  I. Lotan,  
 L. A. Martinez-Martinez,  P. E. Maslen,  N. Nair,  D. P. O'Neill,  
 D. Neuhauser,  E. Neuscamman,  C. M. Oana,  R. Olivares-Amaya,  R. Olson,  
 T. M. Perrine,  B. Peters,  P. A. Pieniazek,  A. Prociuk,  Y. M. Rhee,  
 J. Ritchie,  M. A. Rohrdanz,  E. Rosta,  N. J. Russ,  H. F. Schaefer III,  
 M. W. Schmidt,  N. E. Schultz,  S. Sharma,  N. Shenvi,  C. D. Sherrill,  
 A. C. Simmonett,  A. Sodt,  T. Stein,  D. Stuck,  K. S. Thanthiriwatte,  
 V. Vanovschi,  L. Vogt,  Tao Wang,  A. Warshel,  M. A. Watson,  
 C. F. Williams,  Q. Wu,  X. Xu,  Jun Yang,  W. Zhang,  Yan Zhao

 Please cite Q-Chem as follows:
 Y. Shao et al., Mol. Phys. 113, 184-215 (2015)
 DOI: 10.1080/00268976.2014.952696

 Q-Chem 5.4.1 for Intel X86 EM64T Linux

 Parts of Q-Chem use Armadillo 9.800.1 (Horizon Scraper).
 http://arma.sourceforge.net/

 Q-Chem begins on Mon Mar 20 18:30:54 2023  

 Host: cpu186.baobab
0

     Scratch files written to /scratch/fum/qchem78250//
 Processing $rem in /home/share/wesolowski/qc5.aug2021.FDE/config/preferences:
 Processing $rem in /home/fum/.qchemrc:

 Checking the input file for inconsistencies... 	...done.

--------------------------------------------------------------
User input:
--------------------------------------------------------------
$comment
generated from CCJob.Templates
$end

$rem
sym_ignore = true
method = adc(2)
ee_states = 10
basis = cc-pVDZ
mem_static = 1024
mem_total = 40000
adc_davidson_maxiter = 900
adc_davidson_conv = 6
adc_print = 3
adc_prop_es = true
adc_prop_es2es = true
adc_prop_tpa = true
molden_format = True
state_analysis = true
print_orbitals = 15
gen_scfman = false
fde_export_density = true
fde_details = 3
$end

$molecule
0 1
H -0.01966349548861429 -0.2444231457489861 0.025161942936492036
C -1.0778913067988172 -0.5244645753027062 -0.0023118203969720572
H -1.303157660815639 -1.595436432341613 -0.03790745614692898
C -2.044737800798704 0.3937969583972843 0.006661399903042136
H -1.8234628880156154 1.4600836811584106 0.12171132635308048
H -3.0992524349886947 0.11896343555089563 -0.10076767036358367                     
$end
--------------------------------------------------------------
 ----------------------------------------------------------------
             Standard Nuclear Orientation (Angstroms)
    I     Atom           X                Y                Z
 ----------------------------------------------------------------
    1      H      -0.0196634955    -0.2444231457     0.0251619429
    2      C      -1.0778913068    -0.5244645753    -0.0023118204
    3      H      -1.3031576608    -1.5954364323    -0.0379074561
    4      C      -2.0447378008     0.3937969584     0.0066613999
    5      H      -1.8234628880     1.4600836812     0.1217113264
    6      H      -3.0992524350     0.1189634356    -0.1007676704
 ----------------------------------------------------------------
 Nuclear Repulsion Energy =          33.20041837 hartrees
 There are        8 alpha and        8 beta electrons
 Requested basis set is cc-pVDZ
 There are 24 shells and 48 basis functions
 Total memory of 40000 MB is distributed as follows: 
   MEM_STATIC is set to 1024 MB
   QALLOC/CCMAN JOB total memory use is  38976 MB
 Warning: actual memory use might exceed 40000 MB

 Total QAlloc Memory Limit  40000 MB
 Mega-Array Size      1001 MB
 MEM_STATIC part      1024 MB

                       Distance Matrix (Angstroms)
             H (  1)   C (  2)   H (  3)   C (  4)   H (  5)
   C (  2)  1.095000
   H (  3)  1.864557  1.094985
   C (  4)  2.123345  1.333446  2.123435
   H (  5)  2.483618  2.123603  3.103611  1.095065
   H (  6)  3.103510  2.123580  2.483762  1.095023  1.864333

 A cutoff of  1.0D-11 yielded    300 shell pairs
 There are      1220 function pairs (      1329 Cartesian)
 Smallest overlap matrix eigenvalue = 4.81E-03

 Scale SEOQF with 1.000000e-01/1.000000e-01/1.000000e+00

 Standard Electronic Orientation quadrupole field applied
 Nucleus-field energy     =     0.0000000022 hartrees
 Guess from superposition of atomic densities
 Warning:  Energy on first SCF cycle will be non-variational
 SAD guess density has 16.000000 electrons
 A restricted Hartree-Fock SCF calculation will be
 performed using Pulay DIIS extrapolation
 SCF converges when DIIS error is below 1.0E-08
 using 10 threads for integral computing
 -------------------------------------------------------
 OpenMP Integral computing Module                
 Release: version 1.0, May 2013, Q-Chem Inc. Pittsburgh 
 -------------------------------------------------------
 ---------------------------------------
  Cycle       Energy         DIIS Error
 ---------------------------------------
    1     -78.3957502988      9.92E-02
    2     -78.0170142215      7.13E-03
    3     -78.0374706480      1.82E-03
    4     -78.0389473642      5.64E-04
    5     -78.0390650399      5.84E-05
    6     -78.0390669353      9.48E-06
    7     -78.0390670000      2.03E-06
    8     -78.0390670031      2.03E-07
    9     -78.0390670032      3.54E-08
   10     -78.0390670032      1.05E-08
   11     -78.0390670032      3.32E-09 Convergence criterion met
 ---------------------------------------
 SCF time:  CPU 2.07 s  wall 2.54 s
 SCF   energy in the final basis set = -78.03906700
 Total energy in the final basis set = -78.03906700
Exporting Density Matrix to file 'Densmat_SCF.txt'.
Export successful
================================================================================
|                                                                              |
|                                 A D C  M A N                                 |
|                                                                              |
 ------------------------------------------------------------------------------ 
|                                                                              |
| Components:                                                                  |
|                                                                              |
| - libvmm - 1.3-trunk                                                         |
|   Authors:                                                                   |
|   Evgeny Epifanovsky, Ilya Kaliman                                           |
|                                                                              |
| - libtensor - 2.5-trunk                                                      |
|   Authors:                                                                   |
|   Evgeny Epifanovsky, Michael Wormit, Dmitry Zuev, Sam Manzer,               |
|   Ilya Kaliman                                                               |
|                                                                              |
| - libwfa - 1.1-trunk                                                         |
|   Authors:                                                                   |
|   Felix Plasser, Stefanie Mewes (Baeppler), Benjamin Thomitzni,              |
|   Michael Wormit, Feng Chen, Anna I. Krylov, Pavel Pokhilko                  |
|                                                                              |
| - libadc - 1.1-trunk                                                         |
|   Authors:                                                                   |
|   Michael Wormit, Adrian L. Dempwolff, Philipp H. P. Harbach,                |
|   Caroline Krauter, Dirk Rehn, Matthias Schneider, Jan Wenzel                |
|                                                                              |
| - adcman - 2.6-trunk                                                         |
|   Authors:                                                                   |
|   Michael Wormit, Adrian L. Dempwolff, Philipp H. P. Harbach,                |
|   Caroline Krauter, Daniel Lefrancois, Jan-Michael Mewes, Dirk Rehn,         |
|   Matthias Schneider, Jan Wenzel, Andreas Dreuw                              |
|                                                                              |
| Authors of earlier versions of ADCMAN:                                       |
| Andreas Dreuw, Jan Hendrik Starcke, Dirk Rehn, Michael Wormit                |
|                                                                              |
================================================================================

 Created directory /scratch/fum/qchem78250/plots
  Import QC data ...  CPU 0.00 s  wall 0.00 s

 Alpha MOs, Restricted
 -- Occupied --                  
-11.239 -11.237  -1.030  -0.786  -0.635  -0.582  -0.500  -0.374
  1 A     2 A     3 A     4 A     5 A     6 A     7 A     8 A                  
 -- Virtual --                   
  0.167   0.203   0.231   0.236   0.303   0.462   0.580   0.610
  9 A    10 A    11 A    12 A    13 A    14 A    15 A    16 A                  
  0.689   0.704   0.775   0.807   0.859   0.927   0.970   1.006
 17 A    18 A    19 A    20 A    21 A    22 A    23 A    24 A                  
  1.130   1.223   1.237   1.280   1.290   1.594   1.727   1.743
 25 A    26 A    27 A    28 A    29 A    30 A    31 A    32 A                  
  1.809   1.850   1.852   1.902   1.966   1.972   2.224   2.248
 33 A    34 A    35 A    36 A    37 A    38 A    39 A    40 A                  
  2.352   2.422   2.491   2.621   2.680   2.794   3.095   3.364
 41 A    42 A    43 A    44 A    45 A    46 A    47 A    48 A                  

 Beta MOs, Restricted
 -- Occupied --                  
-11.239 -11.237  -1.030  -0.786  -0.635  -0.582  -0.500  -0.374
  1 A     2 A     3 A     4 A     5 A     6 A     7 A     8 A                  
 -- Virtual --                   
  0.167   0.203   0.231   0.236   0.303   0.462   0.580   0.610
  9 A    10 A    11 A    12 A    13 A    14 A    15 A    16 A                  
  0.689   0.704   0.775   0.807   0.859   0.927   0.970   1.006
 17 A    18 A    19 A    20 A    21 A    22 A    23 A    24 A                  
  1.130   1.223   1.237   1.280   1.290   1.594   1.727   1.743
 25 A    26 A    27 A    28 A    29 A    30 A    31 A    32 A                  
  1.809   1.850   1.852   1.902   1.966   1.972   2.224   2.248
 33 A    34 A    35 A    36 A    37 A    38 A    39 A    40 A                  
  2.352   2.422   2.491   2.621   2.680   2.794   3.095   3.364
 41 A    42 A    43 A    44 A    45 A    46 A    47 A    48 A                  
  Import AO data ...  CPU 0.00 s  wall 0.00 s
  Using point group: C1
  Irreducible representations in point group: A
  Molecular orbitals: 
  Occupied MOs:
  Block   0:   1 (  A) A   2 (  A) A   3 (  A) A   4 (  A) A   5 (  A) A
                  -11.24      -11.24       -1.03     -0.7855     -0.6348
               6 (  A) A   7 (  A) A   8 (  A) A
                 -0.5821     -0.4999     -0.3738
  Block   1:   1 (  A) B   2 (  A) B   3 (  A) B   4 (  A) B   5 (  A) B
                  -11.24      -11.24       -1.03     -0.7855     -0.6348
               6 (  A) B   7 (  A) B   8 (  A) B
                 -0.5821     -0.4999     -0.3738
  Virtual MOs:
  Block   0:   9 (  A) A  10 (  A) A  11 (  A) A  12 (  A) A  13 (  A) A
                  0.1674      0.2026      0.2312      0.2363      0.3028
              14 (  A) A  15 (  A) A  16 (  A) A  17 (  A) A  18 (  A) A
                  0.4624      0.5798      0.6095      0.6888      0.7045
              19 (  A) A  20 (  A) A  21 (  A) A  22 (  A) A
                  0.7753      0.8071      0.8585      0.9275
  Block   1:  23 (  A) A  24 (  A) A  25 (  A) A  26 (  A) A  27 (  A) A
                  0.9701       1.006        1.13       1.223       1.237
              28 (  A) A  29 (  A) A  30 (  A) A  31 (  A) A  32 (  A) A
                    1.28        1.29       1.594       1.727       1.743
              33 (  A) A  34 (  A) A  35 (  A) A  36 (  A) A
                   1.809        1.85       1.852       1.902
  Block   2:  37 (  A) A  38 (  A) A  39 (  A) A  40 (  A) A  41 (  A) A
                   1.966       1.972       2.224       2.248       2.352
              42 (  A) A  43 (  A) A  44 (  A) A  45 (  A) A  46 (  A) A
                   2.422       2.491       2.621        2.68       2.794
              47 (  A) A  48 (  A) A
                   3.095       3.364
  Block   3:   9 (  A) B  10 (  A) B  11 (  A) B  12 (  A) B  13 (  A) B
                  0.1674      0.2026      0.2312      0.2363      0.3028
              14 (  A) B  15 (  A) B  16 (  A) B  17 (  A) B  18 (  A) B
                  0.4624      0.5798      0.6095      0.6888      0.7045
              19 (  A) B  20 (  A) B  21 (  A) B  22 (  A) B
                  0.7753      0.8071      0.8585      0.9275
  Block   4:  23 (  A) B  24 (  A) B  25 (  A) B  26 (  A) B  27 (  A) B
                  0.9701       1.006        1.13       1.223       1.237
              28 (  A) B  29 (  A) B  30 (  A) B  31 (  A) B  32 (  A) B
                    1.28        1.29       1.594       1.727       1.743
              33 (  A) B  34 (  A) B  35 (  A) B  36 (  A) B
                   1.809        1.85       1.852       1.902
  Block   5:  37 (  A) B  38 (  A) B  39 (  A) B  40 (  A) B  41 (  A) B
                   1.966       1.972       2.224       2.248       2.352
              42 (  A) B  43 (  A) B  44 (  A) B  45 (  A) B  46 (  A) B
                   2.422       2.491       2.621        2.68       2.794
              47 (  A) B  48 (  A) B
                   3.095       3.364
  Import MO data ...  CPU 0.06 s  wall 0.02 s
  Import HF data ...  CPU 0.41 s  wall 0.13 s
  Import 2e integrals ...  CPU 1.06 s  wall 0.19 s

--------------------------------------------------------------------------------
                                   HF Summary                                   
--------------------------------------------------------------------------------
  Energy:                                                  -78.0390670032 a.u.
  Dip. moment [a.u.]:                  [  -0.000028,    0.000032,   -0.000142]
  Total dipole [Debye]:                                               0.000376
  <r^2> [a.u.]:                        [ 175.827604,   35.302994,   11.699333]
  Total <r^2> [a.u.]:                                               222.829930
--------------------------------------------------------------------------------
  HF properties ...  CPU 0.03 s  wall 0.01 s
  MP(1) calculation ...  CPU 0.01 s  wall 0.01 s
  N^6 prerequesite intermediates ...  CPU 0.94 s  wall 0.14 s
  Difference density matrix of state mp2_gs printed to ASCII file 'State_mp2_gs_Difference.txt'
Exporting MP density matrix to file 'Densmat_MP.txt'.
Export successful
  Total density matrix of state mp2_gs printed to ASCII file 'State_mp2_gs_Total.txt'
Exporting MP density matrix to file 'Densmat_MP.txt'.
Export successful

--------------------------------------------------------------------------------
                                 MP(2) Summary                                  
--------------------------------------------------------------------------------
  MP energy contribution:                                   -0.2805708958 a.u.
  Total energy:                                            -78.3196378990 a.u.
  Dip. moment [a.u.]:                  [  -0.000022,    0.000032,   -0.000139]
  Total dipole [Debye]:                                               0.000368
  <r^2> [a.u.]:                        [ 175.867368,   35.338299,   11.526922]
  Total <r^2> [a.u.]:                                               222.732590

  Density matrix analysis:
  ------------------------
  NOs
    Occupation of frontier NOs:
       0.0455   1.9380
    Number of electrons: 16.000000
    Number of unpaired electrons: n_u =  0.40759, n_u,nl =  0.04588
    NO participation ratio (PR_NO): 13.894734
  
  
  Mulliken Population Analysis
  Atom      Charge (e)              h+              e-           Del q
  --------------------------------------------------------------------
   1 H        0.055320        0.013894       -0.011318        0.002576
   2 C       -0.110571        0.094719       -0.099867       -0.005148
   3 H        0.055322        0.013894       -0.011318        0.002576
   4 C       -0.110699        0.094716       -0.099875       -0.005160
   5 H        0.055318        0.013895       -0.011318        0.002578
   6 H        0.055309        0.013896       -0.011318        0.002578
  --------------------------------------------------------------------
  Sum:       -0.000000        0.245014       -0.245014        0.000000
  
  Multipole moment analysis of the density matrix
    Molecular charge:                      -0.000000
    Number of electrons:                   16.000000
      Center of electronic charge [Ang]: [ -1.561331,  -0.065302,   0.002148]
    Total nuclear charge:                  16.000000
      Center of nuclear charge [Ang]:    [ -1.561332,  -0.065301,   0.002143]
    Dipole moment [D]:                     0.000368
      Cartesian components [D]:          [ -0.000057,   0.000080,  -0.000355]
    RMS size of the density [Ang]:         1.206728
      Cartesian components [Ang]:        [  0.800148,   0.783721,   0.449152]
  
  Exciton analysis of the difference density matrix
    <r_h> [Ang]:                  [ -1.561331,  -0.065295,   0.002171]
    <r_e> [Ang]:                  [ -1.561343,  -0.065294,   0.002167]
    |<r_e - r_h>| [Ang]:            0.000014
    Hole size [Ang]:                1.402042
      Cartesian components [Ang]: [  0.853287,   0.840524,   0.728795]
    Electron size [Ang]:            1.361775
      Cartesian components [Ang]: [  0.879492,   0.864194,   0.578008]
--------------------------------------------------------------------------------
  MP(2) calculation ...  CPU 0.35 s  wall 0.23 s
  Start ADC(2)-s ...  CPU 0.02 s  wall 0.01 s
  ADC(2) intermediates ...  CPU 0.10 s  wall 0.03 s
  Starting Davidson for singlet states of irrep A ... 
--------------------------------------------------------------------------------
   It NVec Conv  Avg. Norm  Max. Norm  Conv. states           Remark
--------------------------------------------------------------------------------
        10    0  1.329e-01  4.689e-01  0.4110 n n n n n n n n Guess.
    1   20    0  2.324e-02  1.125e-01  0.3201 n n n n n n n n 
    2   30    0  5.963e-03  2.460e-02  0.3162 n n n n n n n n 
    3   40    0  1.943e-03  1.049e-02  0.3159 n n n n n n n n 
    4   50    0  5.356e-04  3.462e-03  0.3159 n n n n n n n n 
    5   20    0  2.802e-04  1.662e-03  0.3159 n n n n n n n n Subspace collapsed.
    6   30    0  1.271e-04  7.808e-04  0.3159 n n n n n n n n 
    7   40    0  6.078e-05  3.826e-04  0.3159 n n n n n n n n 
    8   50    0  4.276e-05  3.375e-04  0.3159 n n n n n n n n 
    9   20    0  3.514e-05  3.215e-04  0.3159 n n n n n n n n Subspace collapsed.
   10   30    0  2.256e-05  2.093e-04  0.3159 n n n n n n n n 
   11   40    4  1.675e-05  1.610e-04  0.3159 y y y y n n n n 
   12   50    4  4.484e-06  3.764e-05  0.3159 y y y y n n n n 
   13   20    5  2.214e-06  1.844e-05  0.3159 y y y y n y n n Subspace collapsed.
   14   30    6  1.980e-06  1.760e-05  0.3159 y y y y y y n n 
   15   40    6  1.651e-06  1.503e-05  0.3159 y y y y y y n n 
   16   50    6  8.929e-07  6.732e-06  0.3159 y y y y y y n n 
   17   20    7  5.037e-07  3.741e-06  0.3159 y y y y y y n y Subspace collapsed.
   18   30    7  4.666e-07  3.566e-06  0.3159 y y y y y y n y 
   19   40    7  3.685e-07  2.875e-06  0.3159 y y y y y y n y 
   20   50    7  3.561e-07  3.060e-06  0.3159 y y y y y y n y 
   21   20    9  1.377e-07  1.184e-06  0.3159 y y y y y y y y Subspace collapsed.
   22   30    9  1.850e-07  1.671e-06  0.3159 y y y y y y y y 
   23   32    9  1.803e-07  1.629e-06  0.3159 y y y y y y y y 
   24   34    9  1.706e-07  1.540e-06  0.3159 y y y y y y y y 
   25   41    9  1.784e-07  1.648e-06  0.3159 y y y y y y y y 
   26   48    9  2.022e-07  1.947e-06  0.3159 y y y y y y y y 
   27   50    9  1.551e-07  1.501e-06  0.3159 y y y y y y y y 
   28   16   10  7.016e-08  6.765e-07  0.3159 y y y y y y y y Converged.
--------------------------------------------------------------------------------
  Davidson Summary: 
 ------------------------------------------------------------
  State  0: excitation energy =   0.3159 a.u.   (converged)
  State  1: excitation energy =   0.3319 a.u.   (converged)
  State  2: excitation energy =   0.3351 a.u.   (converged)
  State  3: excitation energy =   0.3581 a.u.   (converged)
  State  4: excitation energy =   0.3725 a.u.   (converged)
  State  5: excitation energy =   0.3859 a.u.   (converged)
  State  6: excitation energy =   0.4207 a.u.   (converged)
  State  7: excitation energy =   0.4428 a.u.   (converged)
  State  8: excitation energy =   0.4529 a.u.   (converged)
  State  9: excitation energy =   0.4590 a.u.   (converged)
 ------------------------------------------------------------

  Singlet states of irrep A ...  CPU 189.96 s  wall 60.75 s
  TDMs ...  CPU 2.41 s  wall 0.87 s
  SDMs ...  CPU 5.19 s  wall 1.58 s
  Starting TPA DIIS iterations ... 
------------------------------------ 
   It     Res. Norm  Remark
------------------------------------
                       Guess.
    1     4.322e+00  
    2     5.701e+00  
    3     1.062e+00  
    4     2.596e-01  
    5     6.454e-02  
    6     2.846e-02  
    7     8.253e-03  
    8     2.031e-03  
    9     6.247e-04  
   10     3.536e-04  
   11     9.407e-05  
   12     3.686e-05  
   13     9.916e-06  
   14     2.603e-06  
   15     1.010e-06  
   16     3.604e-07  Converged.
   ... Converged in 16 steps (norm: 3.60371e-07)
------------------------------------
  Starting TPA DIIS iterations ... 
------------------------------------ 
   It     Res. Norm  Remark
------------------------------------
                       Guess.
    1     4.116e+00  
    2     5.419e+00  
    3     1.014e+00  
    4     2.574e-01  
    5     6.423e-02  
    6     2.833e-02  
    7     8.087e-03  
    8     1.987e-03  
    9     6.119e-04  
   10     3.372e-04  
   11     8.788e-05  
   12     3.587e-05  
   13     9.421e-06  
   14     2.457e-06  
   15     1.009e-06  
   16     3.698e-07  Converged.
   ... Converged in 16 steps (norm: 3.69848e-07)
------------------------------------
  Starting TPA DIIS iterations ... 
------------------------------------ 
   It     Res. Norm  Remark
------------------------------------
                       Guess.
    1     6.792e-01  
    2     4.731e-01  
    3     1.650e-01  
    4     6.114e-02  
    5     1.824e-02  
    6     6.478e-03  
    7     1.084e-03  
    8     4.511e-04  
    9     1.300e-04  
   10     3.138e-05  
   11     7.311e-06  
   12     2.742e-06  
   13     1.595e-06  
   14     4.696e-07  Converged.
   ... Converged in 14 steps (norm: 4.69555e-07)
------------------------------------
  Starting TPA DIIS iterations ... 
------------------------------------ 
   It     Res. Norm  Remark
------------------------------------
                       Guess.
    1     4.713e+00  
    2     6.403e+00  
    3     1.173e+00  
    4     3.004e-01  
    5     7.613e-02  
    6     3.407e-02  
    7     9.830e-03  
    8     2.494e-03  
    9     7.948e-04  
   10     4.569e-04  
   11     1.271e-04  
   12     4.830e-05  
   13     1.319e-05  
   14     3.546e-06  
   15     1.336e-06  
   16     4.747e-07  Converged.
   ... Converged in 16 steps (norm: 4.74702e-07)
------------------------------------
  Starting TPA DIIS iterations ... 
------------------------------------ 
   It     Res. Norm  Remark
------------------------------------
                       Guess.
    1     4.487e+00  
    2     6.085e+00  
    3     1.120e+00  
    4     2.975e-01  
    5     7.577e-02  
    6     3.393e-02  
    7     9.632e-03  
    8     2.436e-03  
    9     7.743e-04  
   10     4.357e-04  
   11     1.190e-04  
   12     4.720e-05  
   13     1.252e-05  
   14     3.334e-06  
   15     1.338e-06  
   16     4.851e-07  Converged.
   ... Converged in 16 steps (norm: 4.85072e-07)
------------------------------------
  Starting TPA DIIS iterations ... 
------------------------------------ 
   It     Res. Norm  Remark
------------------------------------
                       Guess.
    1     6.956e-01  
    2     4.964e-01  
    3     1.781e-01  
    4     7.250e-02  
    5     2.018e-02  
    6     7.306e-03  
    7     1.281e-03  
    8     5.663e-04  
    9     1.684e-04  
   10     3.861e-05  
   11     9.000e-06  
   12     3.498e-06  
   13     2.206e-06  
   14     6.080e-07  Converged.
   ... Converged in 14 steps (norm: 6.08044e-07)
------------------------------------
  Starting TPA DIIS iterations ... 
------------------------------------ 
   It     Res. Norm  Remark
------------------------------------
                       Guess.
    1     4.798e+00  
    2     6.558e+00  
    3     1.197e+00  
    4     3.097e-01  
    5     7.874e-02  
    6     3.534e-02  
    7     1.019e-02  
    8     2.601e-03  
    9     8.355e-04  
   10     4.814e-04  
   11     1.351e-04  
   12     5.100e-05  
   13     1.396e-05  
   14     3.771e-06  
   15     1.415e-06  
   16     5.024e-07  Converged.
   ... Converged in 16 steps (norm: 5.02415e-07)
------------------------------------
  Starting TPA DIIS iterations ... 
------------------------------------ 
   It     Res. Norm  Remark
------------------------------------
                       Guess.
    1     4.568e+00  
    2     6.232e+00  
    3     1.143e+00  
    4     3.066e-01  
    5     7.837e-02  
    6     3.521e-02  
    7     9.981e-03  
    8     2.540e-03  
    9     8.131e-04  
   10     4.591e-04  
   11     1.266e-04  
   12     4.988e-05  
   13     1.325e-05  
   14     3.546e-06  
   15     1.417e-06  
   16     5.129e-07  Converged.
   ... Converged in 16 steps (norm: 5.12894e-07)
------------------------------------
  Starting TPA DIIS iterations ... 
------------------------------------ 
   It     Res. Norm  Remark
------------------------------------
                       Guess.
    1     6.990e-01  
    2     5.013e-01  
    3     1.809e-01  
    4     7.511e-02  
    5     2.060e-02  
    6     7.492e-03  
    7     1.326e-03  
    8     5.934e-04  
    9     1.774e-04  
   10     4.005e-05  
   11     9.392e-06  
   12     3.678e-06  
   13     2.356e-06  
   14     6.409e-07  Converged.
   ... Converged in 14 steps (norm: 6.40947e-07)
------------------------------------
  Starting TPA DIIS iterations ... 
------------------------------------ 
   It     Res. Norm  Remark
------------------------------------
                       Guess.
    1     5.491e+00  
    2     7.852e+00  
    3     1.393e+00  
    4     3.888e-01  
    5     1.012e-01  
    6     4.645e-02  
    7     1.326e-02  
    8     3.563e-03  
    9     1.222e-03  
   10     7.081e-04  
   11     2.108e-04  
   12     7.569e-05  
   13     2.081e-05  
   14     5.822e-06  
   15     2.181e-06  
   16     7.750e-07  Converged.
   ... Converged in 16 steps (norm: 7.75036e-07)
------------------------------------
  Starting TPA DIIS iterations ... 
------------------------------------ 
   It     Res. Norm  Remark
------------------------------------
                       Guess.
    1     5.225e+00  
    2     7.461e+00  
    3     1.329e+00  
    4     3.842e-01  
    5     1.008e-01  
    6     4.631e-02  
    7     1.299e-02  
    8     3.469e-03  
    9     1.180e-03  
   10     6.756e-04  
   11     1.985e-04  
   12     7.449e-05  
   13     1.969e-05  
   14     5.536e-06  
   15     2.183e-06  
   16     7.849e-07  Converged.
   ... Converged in 16 steps (norm: 7.84894e-07)
------------------------------------
  Starting TPA DIIS iterations ... 
------------------------------------ 
   It     Res. Norm  Remark
------------------------------------
                       Guess.
    1     7.242e-01  
    2     5.394e-01  
    3     2.032e-01  
    4     9.804e-02  
    5     2.399e-02  
    6     9.090e-03  
    7     1.729e-03  
    8     8.360e-04  
    9     2.564e-04  
   10     4.966e-05  
   11     1.291e-05  
   12     5.359e-06  
   13     3.827e-06  
   14     9.457e-07  Converged.
   ... Converged in 14 steps (norm: 9.45675e-07)
------------------------------------
  Starting TPA DIIS iterations ... 
------------------------------------ 
   It     Res. Norm  Remark
------------------------------------
                       Guess.
    1     6.012e+00  
    2     8.857e+00  
    3     1.540e+00  
    4     4.529e-01  
    5     1.194e-01  
    6     5.556e-02  
    7     1.575e-02  
    8     4.386e-03  
    9     1.577e-03  
   10     9.106e-04  
   11     2.799e-04  
   12     9.753e-05  
   13     2.588e-05  
   14     7.594e-06  
   15     2.905e-06  
   16     1.050e-06  
   17     3.510e-07  Converged.
   ... Converged in 17 steps (norm: 3.50987e-07)
------------------------------------
  Starting TPA DIIS iterations ... 
------------------------------------ 
   It     Res. Norm  Remark
------------------------------------
                       Guess.
    1     5.719e+00  
    2     8.416e+00  
    3     1.468e+00  
    4     4.468e-01  
    5     1.189e-01  
    6     5.543e-02  
    7     1.542e-02  
    8     4.264e-03  
    9     1.517e-03  
   10     8.690e-04  
   11     2.648e-04  
   12     9.627e-05  
   13     2.448e-05  
   14     7.349e-06  
   15     2.900e-06  
   16     1.056e-06  
   17     3.411e-07  Converged.
   ... Converged in 17 steps (norm: 3.41075e-07)
------------------------------------
  Starting TPA DIIS iterations ... 
------------------------------------ 
   It     Res. Norm  Remark
------------------------------------
                       Guess.
    1     7.409e-01  
    2     5.661e-01  
    3     2.194e-01  
    4     1.171e-01  
    5     2.658e-02  
    6     1.038e-02  
    7     2.072e-03  
    8     1.033e-03  
    9     3.186e-04  
   10     5.496e-05  
   11     1.597e-05  
   12     6.885e-06  
   13     5.215e-06  
   14     1.218e-06  
   15     6.086e-07  Converged.
   ... Converged in 15 steps (norm: 6.08572e-07)
------------------------------------
  Starting TPA DIIS iterations ... 
------------------------------------ 
   It     Res. Norm  Remark
------------------------------------
                       Guess.
    1     6.573e+00  
    2     9.970e+00  
    3     1.696e+00  
    4     5.258e-01  
    5     1.401e-01  
    6     6.610e-02  
    7     1.860e-02  
    8     5.368e-03  
    9     2.027e-03  
   10     1.160e-03  
   11     3.661e-04  
   12     1.246e-04  
   13     3.008e-05  
   14     9.860e-06  
   15     3.799e-06  
   16     1.429e-06  
   17     4.924e-07  Converged.
   ... Converged in 17 steps (norm: 4.92386e-07)
------------------------------------
  Starting TPA DIIS iterations ... 
------------------------------------ 
   It     Res. Norm  Remark
------------------------------------
                       Guess.
    1     6.252e+00  
    2     9.473e+00  
    3     1.616e+00  
    4     5.180e-01  
    5     1.395e-01  
    6     6.596e-02  
    7     1.821e-02  
    8     5.210e-03  
    9     1.943e-03  
   10     1.107e-03  
   11     3.479e-04  
   12     1.231e-04  
   13     2.868e-05  
   14     9.699e-06  
   15     3.793e-06  
   16     1.422e-06  
   17     4.724e-07  Converged.
   ... Converged in 17 steps (norm: 4.72427e-07)
------------------------------------
  Starting TPA DIIS iterations ... 
------------------------------------ 
   It     Res. Norm  Remark
------------------------------------
                       Guess.
    1     7.572e-01  
    2     5.933e-01  
    3     2.363e-01  
    4     1.390e-01  
    5     2.945e-02  
    6     1.186e-02  
    7     2.479e-03  
    8     1.244e-03  
    9     3.856e-04  
   10     5.998e-05  
   11     1.966e-05  
   12     8.794e-06  
   13     6.977e-06  
   14     1.555e-06  
   15     8.462e-07  Converged.
   ... Converged in 15 steps (norm: 8.46188e-07)
------------------------------------
  Starting TPA DIIS iterations ... 
------------------------------------ 
   It     Res. Norm  Remark
------------------------------------
                       Guess.
    1     8.503e+00  
    2     1.401e+01  
    3     2.226e+00  
    4     8.030e-01  
    5     2.192e-01  
    6     1.073e-01  
    7     2.955e-02  
    8     9.461e-03  
    9     4.105e-03  
   10     2.257e-03  
   11     7.543e-04  
   12     2.498e-04  
   13     5.725e-05  
   14     2.316e-05  
   15     9.784e-06  
   16     3.479e-06  
   17     2.038e-06  
   18     5.353e-07  Converged.
   ... Converged in 18 steps (norm: 5.35301e-07)
------------------------------------
  Starting TPA DIIS iterations ... 
------------------------------------ 
   It     Res. Norm  Remark
------------------------------------
                       Guess.
    1     8.084e+00  
    2     1.331e+01  
    3     2.120e+00  
    4     7.877e-01  
    5     2.183e-01  
    6     1.072e-01  
    7     2.890e-02  
    8     9.146e-03  
    9     3.911e-03  
   10     2.158e-03  
   11     7.252e-04  
   12     2.453e-04  
   13     5.467e-05  
   14     2.257e-05  
   15     9.210e-06  
   16     3.264e-06  
   17     1.818e-06  
   18     4.406e-07  Converged.
   ... Converged in 18 steps (norm: 4.40642e-07)
------------------------------------
  Starting TPA DIIS iterations ... 
------------------------------------ 
   It     Res. Norm  Remark
------------------------------------
                       Guess.
    1     8.034e-01  
    2     6.777e-01  
    3     2.912e-01  
    4     2.217e-01  
    5     4.000e-02  
    6     1.744e-02  
    7     4.141e-03  
    8     1.848e-03  
    9     6.022e-04  
   10     8.092e-05  
   11     3.541e-05  
   12     1.754e-05  
   13     1.498e-05  
   14     3.099e-06  
   15     2.142e-06  
   16     8.417e-07  Converged.
   ... Converged in 16 steps (norm: 8.41692e-07)
------------------------------------
  Starting TPA DIIS iterations ... 
------------------------------------ 
   It     Res. Norm  Remark
------------------------------------
                       Guess.
    1     1.025e+01  
    2     1.792e+01  
    3     2.694e+00  
    4     1.081e+00  
    5     2.995e-01  
    6     1.504e-01  
    7     4.085e-02  
    8     1.405e-02  
    9     6.670e-03  
   10     3.558e-03  
   11     1.232e-03  
   12     4.041e-04  
   13     1.317e-04  
   14     4.117e-05  
   15     1.892e-05  
   16     8.131e-06  
   17     2.518e-06  
   18     7.169e-07  Converged.
   ... Converged in 18 steps (norm: 7.1691e-07)
------------------------------------
  Starting TPA DIIS iterations ... 
------------------------------------ 
   It     Res. Norm  Remark
------------------------------------
                       Guess.
    1     9.741e+00  
    2     1.702e+01  
    3     2.564e+00  
    4     1.057e+00  
    5     2.984e-01  
    6     1.504e-01  
    7     3.991e-02  
    8     1.355e-02  
    9     6.347e-03  
   10     3.407e-03  
   11     1.192e-03  
   12     3.963e-04  
   13     1.262e-04  
   14     4.024e-05  
   15     1.785e-05  
   16     7.537e-06  
   17     2.450e-06  
   18     6.888e-07  Converged.
   ... Converged in 18 steps (norm: 6.8882e-07)
------------------------------------
  Starting TPA DIIS iterations ... 
------------------------------------ 
   It     Res. Norm  Remark
------------------------------------
                       Guess.
    1     8.361e-01  
    2     7.452e-01  
    3     3.373e-01  
    4     2.986e-01  
    5     5.025e-02  
    6     2.283e-02  
    7     5.908e-03  
    8     2.170e-03  
    9     7.822e-04  
   10     1.076e-04  
   11     5.339e-05  
   12     2.836e-05  
   13     2.458e-05  
   14     5.102e-06  
   15     4.093e-06  
   16     1.641e-06  
   17     1.027e-06  
   18     3.014e-07  Converged.
   ... Converged in 18 steps (norm: 3.01429e-07)
------------------------------------
  Starting TPA DIIS iterations ... 
------------------------------------ 
   It     Res. Norm  Remark
------------------------------------
                       Guess.
    1     1.124e+01  
    2     2.024e+01  
    3     2.955e+00  
    4     1.248e+00  
    5     3.484e-01  
    6     1.771e-01  
    7     4.782e-02  
    8     1.700e-02  
    9     8.397e-03  
   10     4.423e-03  
   11     1.557e-03  
   12     5.052e-04  
   13     1.805e-04  
   14     5.492e-05  
   15     2.440e-05  
   16     1.062e-05  
   17     2.431e-06  
   18     8.524e-07  Converged.
   ... Converged in 18 steps (norm: 8.52365e-07)
------------------------------------
  Starting TPA DIIS iterations ... 
------------------------------------ 
   It     Res. Norm  Remark
------------------------------------
                       Guess.
    1     1.068e+01  
    2     1.922e+01  
    3     2.812e+00  
    4     1.219e+00  
    5     3.471e-01  
    6     1.771e-01  
    7     4.669e-02  
    8     1.639e-02  
    9     7.993e-03  
   10     4.237e-03  
   11     1.512e-03  
   12     4.971e-04  
   13     1.748e-04  
   14     5.354e-05  
   15     2.313e-05  
   16     1.005e-05  
   17     2.334e-06  
   18     8.312e-07  Converged.
   ... Converged in 18 steps (norm: 8.31237e-07)
------------------------------------
  Starting TPA DIIS iterations ... 
------------------------------------ 
   It     Res. Norm  Remark
------------------------------------
                       Guess.
    1     8.522e-01  
    2     7.809e-01  
    3     3.623e-01  
    4     3.402e-01  
    5     5.629e-02  
    6     2.590e-02  
    7     6.986e-03  
    8     2.281e-03  
    9     8.807e-04  
   10     1.251e-04  
   11     6.509e-05  
   12     3.574e-05  
   13     3.099e-05  
   14     6.543e-06  
   15     5.589e-06  
   16     2.229e-06  
   17     1.378e-06  
   18     4.018e-07  Converged.
   ... Converged in 18 steps (norm: 4.01814e-07)
------------------------------------
  Starting TPA DIIS iterations ... 
------------------------------------ 
   It     Res. Norm  Remark
------------------------------------
                       Guess.
    1     1.193e+01  
    2     2.188e+01  
    3     3.134e+00  
    4     1.366e+00  
    5     3.835e-01  
    6     1.964e-01  
    7     5.287e-02  
    8     1.918e-02  
    9     9.701e-03  
   10     5.073e-03  
   11     1.805e-03  
   12     5.797e-04  
   13     2.151e-04  
   14     6.614e-05  
   15     2.845e-05  
   16     1.209e-05  
   17     3.028e-06  
   18     1.427e-06  
   19     1.488e-06  
   20     5.335e-07  Converged.
   ... Converged in 20 steps (norm: 5.33544e-07)
------------------------------------
  Starting TPA DIIS iterations ... 
------------------------------------ 
   It     Res. Norm  Remark
------------------------------------
                       Guess.
    1     1.134e+01  
    2     2.079e+01  
    3     2.982e+00  
    4     1.333e+00  
    5     3.821e-01  
    6     1.964e-01  
    7     5.160e-02  
    8     1.848e-02  
    9     9.236e-03  
   10     4.861e-03  
   11     1.755e-03  
   12     5.723e-04  
   13     2.097e-04  
   14     6.435e-05  
   15     2.703e-05  
   16     1.160e-05  
   17     2.777e-06  
   18     1.192e-06  
   19     1.264e-06  
   20     4.211e-07  Converged.
   ... Converged in 20 steps (norm: 4.21124e-07)
------------------------------------
  Starting TPA DIIS iterations ... 
------------------------------------ 
   It     Res. Norm  Remark
------------------------------------
                       Guess.
    1     8.625e-01  
    2     8.047e-01  
    3     3.791e-01  
    4     3.675e-01  
    5     6.054e-02  
    6     2.798e-02  
    7     7.753e-03  
    8     2.339e-03  
    9     9.478e-04  
   10     1.380e-04  
   11     7.381e-05  
   12     4.137e-05  
   13     3.584e-05  
   14     7.684e-06  
   15     6.807e-06  
   16     2.691e-06  
   17     1.652e-06  
   18     4.788e-07  Converged.
   ... Converged in 18 steps (norm: 4.78792e-07)
------------------------------------
  Two-photon absorbption ...  CPU 180.90 s  wall 49.17 s
  Transition density matrix of state singlet_A_1 printed to ASCII file 'State_singlet_A_1_Transition.txt'
  Transition density matrix of state singlet_A_2 printed to ASCII file 'State_singlet_A_2_Transition.txt'
  Transition density matrix of state singlet_A_3 printed to ASCII file 'State_singlet_A_3_Transition.txt'
  Transition density matrix of state singlet_A_4 printed to ASCII file 'State_singlet_A_4_Transition.txt'
  Transition density matrix of state singlet_A_5 printed to ASCII file 'State_singlet_A_5_Transition.txt'
  Transition density matrix of state singlet_A_6 printed to ASCII file 'State_singlet_A_6_Transition.txt'
  Transition density matrix of state singlet_A_7 printed to ASCII file 'State_singlet_A_7_Transition.txt'
  Transition density matrix of state singlet_A_8 printed to ASCII file 'State_singlet_A_8_Transition.txt'
  Transition density matrix of state singlet_A_9 printed to ASCII file 'State_singlet_A_9_Transition.txt'
  Transition density matrix of state singlet_A_10 printed to ASCII file 'State_singlet_A_10_Transition.txt'
  Transition properties ...  CPU 0.38 s  wall 0.56 s
  Difference density matrix of state singlet_A_1 printed to ASCII file 'State_singlet_A_1_Difference.txt'
  Total density matrix of state singlet_A_1 printed to ASCII file 'State_singlet_A_1_Total.txt'
  Difference density matrix of state singlet_A_2 printed to ASCII file 'State_singlet_A_2_Difference.txt'
  Total density matrix of state singlet_A_2 printed to ASCII file 'State_singlet_A_2_Total.txt'
  Difference density matrix of state singlet_A_3 printed to ASCII file 'State_singlet_A_3_Difference.txt'
  Total density matrix of state singlet_A_3 printed to ASCII file 'State_singlet_A_3_Total.txt'
  Difference density matrix of state singlet_A_4 printed to ASCII file 'State_singlet_A_4_Difference.txt'
  Total density matrix of state singlet_A_4 printed to ASCII file 'State_singlet_A_4_Total.txt'
  Difference density matrix of state singlet_A_5 printed to ASCII file 'State_singlet_A_5_Difference.txt'
  Total density matrix of state singlet_A_5 printed to ASCII file 'State_singlet_A_5_Total.txt'
  Difference density matrix of state singlet_A_6 printed to ASCII file 'State_singlet_A_6_Difference.txt'
  Total density matrix of state singlet_A_6 printed to ASCII file 'State_singlet_A_6_Total.txt'
  Difference density matrix of state singlet_A_7 printed to ASCII file 'State_singlet_A_7_Difference.txt'
  Total density matrix of state singlet_A_7 printed to ASCII file 'State_singlet_A_7_Total.txt'
  Difference density matrix of state singlet_A_8 printed to ASCII file 'State_singlet_A_8_Difference.txt'
  Total density matrix of state singlet_A_8 printed to ASCII file 'State_singlet_A_8_Total.txt'
  Difference density matrix of state singlet_A_9 printed to ASCII file 'State_singlet_A_9_Difference.txt'
  Total density matrix of state singlet_A_9 printed to ASCII file 'State_singlet_A_9_Total.txt'
  Difference density matrix of state singlet_A_10 printed to ASCII file 'State_singlet_A_10_Difference.txt'
  Total density matrix of state singlet_A_10 printed to ASCII file 'State_singlet_A_10_Total.txt'
  Properties ...  CPU 1.09 s  wall 1.13 s
  ISR TDMS ...  CPU 36.19 s  wall 11.40 s
  ISR transition properties ...  CPU 0.55 s  wall 0.26 s
  Sum-over-states TPA ...  CPU 0.00 s  wall 0.00 s

--------------------------------------------------------------------------------
                   State-averaged natural transition orbitals
--------------------------------------------------------------------------------
--------------------------------------------------------------------------------
  SA-NTO decomposition ...  CPU 0.01 s  wall 0.03 s

--------------------------------------------------------------------------------
                             Excited State Summary
--------------------------------------------------------------------------------
--------------------------------------------------------------------------------

  Excited state 1 (singlet, A)                                     [converged]
  ----------------------------------------------------------------------------
  Term symbol:  2 (1) A                                     R^2 =  3.34412e-13

  Total energy:                                            -78.0037624357 a.u.
  Excitation energy:                                               8.595408 eV

  Osc. strength:                                                      0.321308
  Trans. dip. moment [a.u.]:           [   0.895607,   -0.850658,   -0.008291]
  <i|r^2|0> [a.u.]:                    [   5.316305,   -0.168691,   -0.072640]
  Two-photon absorption cross-section (SoS) [a.u.]:                   0.009008
  Two-photon absorption matrix (SoS) [a.u.]:
                                       |   -0.001943   -0.002474    0.023007 |
                                       |   -0.002474   -0.002828    0.023900 |
                                       |    0.023007    0.023900    0.005194 |
  Two-photon absorption cross-section [a.u.]:                         1.177235
  Two-photon absorption matrix [a.u.]:
                                       |   -0.025373   -0.029144    0.261479 |
                                       |   -0.029144   -0.033774    0.274449 |
                                       |    0.261479    0.274449    0.058638 |

  Dip. moment [a.u.]:                  [  -0.000133,    0.000144,   -0.000215]
  Total dipole [Debye]:                                               0.000738
  <r^2> [a.u.]:                        [ 176.123166,   35.536193,   12.287509]
  Total <r^2> [a.u.]:                                               223.946868

  V1^2 = 0.9674, V2^2 = 0.0326

  Important amplitudes:
      occ i     occ j     vir a      vir b          v   
    -----------------------------------------------------
     8 (A) A              9 (A) A                -0.6173
     7 (A) A              9 (A) A                 0.2905
     6 (A) A             14 (A) A                 0.0530
     4 (A) A             10 (A) A                 0.0530
     7 (A) A             16 (A) A                -0.0494
     5 (A) A             13 (A) A                 0.0450
     6 (A) A             23 (A) A                 0.0424
     7 (A) A             20 (A) A                 0.0332
     8 (A) A             20 (A) A                -0.0328
     6 (A) A             19 (A) A                -0.0261
     3 (A) A             12 (A) A                -0.0247
     7 (A) A             11 (A) A                -0.0226
     5 (A) A             22 (A) A                 0.0190
     8 (A) A   8 (A) B   17 (A) A   20 (A) B      0.0166
     4 (A) A             24 (A) A                 0.0165
     3 (A) A             27 (A) A                 0.0164
     5 (A) A   8 (A) B    9 (A) A    9 (A) B      0.0163
     7 (A) A             21 (A) A                 0.0150
     6 (A) A             27 (A) A                -0.0143
     3 (A) A             14 (A) A                -0.0125
     8 (A) A   8 (A) B    9 (A) A   28 (A) B     -0.0122
     8 (A) A             11 (A) A                 0.0118
     6 (A) A             12 (A) A                -0.0118
     3 (A) A   4 (A) B    9 (A) A    9 (A) B     -0.0113
     3 (A) A             19 (A) A                 0.0108
     8 (A) A   8 (A) B   18 (A) A   19 (A) B     -0.0099
     5 (A) A             26 (A) A                -0.0088
     7 (A) A             32 (A) A                 0.0085
     8 (A) A   8 (A) B    9 (A) A   26 (A) B     -0.0084
     3 (A) A             23 (A) A                -0.0072
     7 (A) A             36 (A) A                -0.0071
     8 (A) A   8 (A) B   25 (A) A   29 (A) B     -0.0068
     5 (A) A   7 (A) B    9 (A) A   16 (A) B     -0.0067
     6 (A) A             34 (A) A                -0.0065
     4 (A) A   7 (A) B    9 (A) A   19 (A) B     -0.0064
     6 (A) A             40 (A) A                -0.0060
     5 (A) A   8 (A) B   11 (A) A   20 (A) B     -0.0055
     7 (A) A   8 (A) B   13 (A) A   20 (A) B      0.0054
     7 (A) A   8 (A) B   22 (A) A   20 (A) B      0.0053
     3 (A) A   6 (A) B    9 (A) A   28 (A) B      0.0053
    -----------------------------------------------------

  Density matrix analysis:
  ------------------------
  NOs
    Occupation of frontier NOs:
       0.9624   1.0156
    Number of electrons: 16.000000
    Number of unpaired electrons: n_u =  2.32583, n_u,nl =  2.03408
    NO participation ratio (PR_NO):  2.839826
  
  
  Mulliken Population Analysis
  Atom      Charge (e)              h+              e-           Del q
  --------------------------------------------------------------------
   1 H        0.087827        0.044048       -0.011541        0.032507
   2 C       -0.175604        0.431759       -0.496792       -0.065033
   3 H        0.087825        0.044042       -0.011540        0.032502
   4 C       -0.175747        0.431773       -0.496821       -0.065048
   5 H        0.087845        0.044063       -0.011536        0.032527
   6 H        0.087855        0.044081       -0.011536        0.032545
  --------------------------------------------------------------------
  Sum:       -0.000000        1.039766       -1.039766       -0.000000
  
  Multipole moment analysis of the density matrix
    Molecular charge:                      -0.000000
    Number of electrons:                   16.000000
      Center of electronic charge [Ang]: [ -1.561328,  -0.065306,   0.002151]
    Total nuclear charge:                  16.000000
      Center of nuclear charge [Ang]:    [ -1.561332,  -0.065301,   0.002143]
    Dipole moment [D]:                     0.000738
      Cartesian components [D]:          [ -0.000338,   0.000365,  -0.000545]
    RMS size of the density [Ang]:         1.215507
      Cartesian components [Ang]:        [  0.802948,   0.785927,   0.463733]
  
  Exciton analysis of the difference density matrix
    <r_h> [Ang]:                  [ -1.561385,  -0.065263,   0.002194]
    <r_e> [Ang]:                  [ -1.561329,  -0.065320,   0.002233]
    |<r_e - r_h>| [Ang]:            0.000089
    Hole size [Ang]:                1.341054
      Cartesian components [Ang]: [  0.808232,   0.793916,   0.717554]
    Electron size [Ang]:            1.457951
      Cartesian components [Ang]: [  0.849885,   0.826796,   0.848365]

  Transition density matrix analysis:
  -----------------------------------
  
  CT numbers (Mulliken)
    omega =     0.9460
    <Phe> =    -0.1311
  
  Exciton analysis of the transition density matrix
    Trans. dipole moment [D]:             1.569824
      Cartesian components [D]:         [  1.138203,  -1.081079,  -0.010537]
    <r_h> [Ang]:                        [ -1.561391,  -0.065251,   0.002177]
    <r_e> [Ang]:                        [ -1.561327,  -0.065320,   0.002245]
    |<r_e - r_h>| [Ang]:                  0.000116
    Hole size [Ang]:                      1.298558
      Cartesian components [Ang]:       [  0.765315,   0.752869,   0.730572]
    Electron size [Ang]:                  1.471169
      Cartesian components [Ang]:       [  0.855270,   0.830850,   0.861707]
    RMS electron-hole separation [Ang]:   1.972761
      Cartesian components [Ang]:       [  1.163218,   1.134451,   1.118807]
    Covariance(r_h, r_e) [Ang^2]:        -0.020597
    Correlation coefficient:             -0.010781
    Center-of-mass size [Ang]:            0.975884
      Cartesian components [Ang]:       [  0.565975,   0.553911,   0.570267]

  Decomposition into state-averaged NTOs
    H- 0 -> L+ 0: -0.6118 ( 74.9%)
    H- 1 -> L+ 0:  0.2779 ( 15.4%)
    H- 2 -> L+ 5: -0.0717 (  1.0%)
                   omega =  94.6%
  ----------------------------------------------------------------------------


  Excited state 2 (singlet, A)                                     [converged]
  ----------------------------------------------------------------------------
  Term symbol:  3 (1) A                                     R^2 =  6.82702e-13

  Total energy:                                            -77.9877201249 a.u.
  Excitation energy:                                               9.031942 eV

  Osc. strength:                                                      0.100244
  Trans. dip. moment [a.u.]:           [  -0.488105,    0.463413,    0.004812]
  <i|r^2|0> [a.u.]:                    [  -2.822062,    0.191730,   -0.135639]
  Two-photon absorption cross-section (SoS) [a.u.]:                   8.074155
  Two-photon absorption matrix (SoS) [a.u.]:
                                       |    0.064225    0.076277   -0.684409 |
                                       |    0.076277    0.088908   -0.719180 |
                                       |   -0.684409   -0.719180   -0.153626 |
  Two-photon absorption cross-section [a.u.]:                         0.158865
  Two-photon absorption matrix [a.u.]:
                                       |    0.008651    0.010851   -0.096208 |
                                       |    0.010851    0.012781   -0.100664 |
                                       |   -0.096208   -0.100664   -0.021543 |

  Dip. moment [a.u.]:                  [  -0.001066,   -0.000262,   -0.000321]
  Total dipole [Debye]:                                               0.002907
  <r^2> [a.u.]:                        [ 175.652616,   35.080027,   12.805721]
  Total <r^2> [a.u.]:                                               223.538364

  V1^2 = 0.9579, V2^2 = 0.0421

  Important amplitudes:
      occ i     occ j     vir a      vir b          v   
    -----------------------------------------------------
     7 (A) A              9 (A) A                 0.5950
     8 (A) A              9 (A) A                 0.2793
     8 (A) A             11 (A) A                 0.1892
     7 (A) A             20 (A) A                 0.0670
     8 (A) A             16 (A) A                -0.0361
     6 (A) A             14 (A) A                -0.0291
     4 (A) A             10 (A) A                -0.0285
     5 (A) A   8 (A) B    9 (A) A    9 (A) B      0.0266
     7 (A) A             16 (A) A                 0.0254
     5 (A) A             13 (A) A                -0.0251
     8 (A) A             21 (A) A                -0.0228
     6 (A) A             23 (A) A                -0.0220
     6 (A) A             19 (A) A                 0.0141
     3 (A) A             12 (A) A                 0.0132
     8 (A) A             20 (A) A                 0.0125
     5 (A) A             28 (A) A                -0.0119
     4 (A) A   7 (A) B    9 (A) A   19 (A) B     -0.0118
     5 (A) A   7 (A) B    9 (A) A   16 (A) B     -0.0114
     5 (A) A             22 (A) A                -0.0100
     7 (A) A   8 (A) B   20 (A) A   17 (A) B     -0.0094
     4 (A) A             24 (A) A                -0.0085
     3 (A) A             27 (A) A                -0.0084
     5 (A) A   8 (A) B    9 (A) A   20 (A) B      0.0084
     4 (A) A   6 (A) B    9 (A) A   16 (A) B     -0.0078
     5 (A) A   6 (A) A    9 (A) A   23 (A) A      0.0077
     5 (A) A   6 (A) A    9 (A) A   14 (A) A      0.0076
     6 (A) A   7 (A) B    9 (A) A   18 (A) B      0.0074
     5 (A) A   6 (A) B    9 (A) A   19 (A) B     -0.0074
     8 (A) A   8 (A) B   17 (A) A   20 (A) B     -0.0074
     4 (A) A   5 (A) A    9 (A) A   10 (A) A     -0.0073
     6 (A) A             27 (A) A                 0.0072
     5 (A) A   6 (A) B    9 (A) A   23 (A) B      0.0069
     5 (A) A   7 (A) A    9 (A) A   16 (A) A     -0.0068
     3 (A) A   7 (A) B    9 (A) A   18 (A) B      0.0068
     7 (A) A   8 (A) B   17 (A) A   20 (A) B     -0.0068
     7 (A) A   8 (A) B   19 (A) A   18 (A) B      0.0067
     4 (A) A   8 (A) B    9 (A) A   25 (A) B     -0.0065
     3 (A) A             14 (A) A                 0.0065
     7 (A) A   8 (A) A    9 (A) A   28 (A) A     -0.0064
     6 (A) A             12 (A) A                 0.0064
    -----------------------------------------------------

  Density matrix analysis:
  ------------------------
  NOs
    Occupation of frontier NOs:
       0.9271   1.0708
    Number of electrons: 16.000000
    Number of unpaired electrons: n_u =  2.34912, n_u,nl =  2.07146
    NO participation ratio (PR_NO):  3.157165
  
  
  Mulliken Population Analysis
  Atom      Charge (e)              h+              e-           Del q
  --------------------------------------------------------------------
   1 H        0.121075        0.096770       -0.031015        0.065755
   2 C       -0.242443        0.313256       -0.445128       -0.131872
   3 H        0.121331        0.096712       -0.030703        0.066009
   4 C       -0.242554        0.313386       -0.445241       -0.131856
   5 H        0.121184        0.096859       -0.030993        0.065866
   6 H        0.121407        0.096816       -0.030718        0.066098
  --------------------------------------------------------------------
  Sum:       -0.000000        1.013798       -1.013798       -0.000000
  
  Multipole moment analysis of the density matrix
    Molecular charge:                      -0.000000
    Number of electrons:                   16.000000
      Center of electronic charge [Ang]: [ -1.561297,  -0.065292,   0.002154]
    Total nuclear charge:                  16.000000
      Center of nuclear charge [Ang]:    [ -1.561332,  -0.065301,   0.002143]
    Dipole moment [D]:                     0.002907
      Cartesian components [D]:          [ -0.002709,  -0.000667,  -0.000815]
    RMS size of the density [Ang]:         1.212602
      Cartesian components [Ang]:        [  0.797864,   0.780833,   0.473411]
  
  Exciton analysis of the difference density matrix
    <r_h> [Ang]:                  [ -1.561505,  -0.064987,   0.002162]
    <r_e> [Ang]:                  [ -1.560960,  -0.064833,   0.002257]
    |<r_e - r_h>| [Ang]:            0.000574
    Hole size [Ang]:                1.450901
      Cartesian components [Ang]: [  0.948239,   0.935361,   0.575376]
    Electron size [Ang]:            1.526239
      Cartesian components [Ang]: [  0.917355,   0.896427,   0.827214]

  Transition density matrix analysis:
  -----------------------------------
  
  CT numbers (Mulliken)
    omega =     0.9279
    <Phe> =    -0.0381
  
  Exciton analysis of the transition density matrix
    Trans. dipole moment [D]:             0.855384
      Cartesian components [D]:         [ -0.620320,   0.588939,   0.006115]
    <r_h> [Ang]:                        [ -1.561563,  -0.064976,   0.002146]
    <r_e> [Ang]:                        [ -1.560923,  -0.064845,   0.002271]
    |<r_e - r_h>| [Ang]:                  0.000665
    Hole size [Ang]:                      1.449129
      Cartesian components [Ang]:       [  0.948023,   0.935513,   0.570999]
    Electron size [Ang]:                  1.527570
      Cartesian components [Ang]:       [  0.916205,   0.894675,   0.832824]
    RMS electron-hole separation [Ang]:   2.092793
      Cartesian components [Ang]:       [  1.309950,   1.286205,   1.004733]
    Covariance(r_h, r_e) [Ang^2]:         0.026831
    Correlation coefficient:              0.012121
    Center-of-mass size [Ang]:            1.059140
      Cartesian components [Ang]:       [  0.663399,   0.651332,   0.507391]

  Decomposition into state-averaged NTOs
    H- 1 -> L+ 0:  0.5922 ( 70.1%)
    H- 0 -> L+ 0:  0.2605 ( 13.6%)
    H- 0 -> L+ 2:  0.1957 (  7.7%)
                   omega =  92.8%
  ----------------------------------------------------------------------------


  Excited state 3 (singlet, A)                                     [converged]
  ----------------------------------------------------------------------------
  Term symbol:  4 (1) A                                     R^2 =  9.67222e-13

  Total energy:                                            -77.9845172668 a.u.
  Excitation energy:                                               9.119096 eV

  Osc. strength:                                                      0.022735
  Trans. dip. moment [a.u.]:           [   0.014699,    0.019790,   -0.318048]
  <i|r^2|0> [a.u.]:                    [   0.428792,   -0.336498,    0.002052]
  Two-photon absorption cross-section (SoS) [a.u.]:                  41.598438
  Two-photon absorption matrix (SoS) [a.u.]:
                                       |    2.271515    0.116063    0.115907 |
                                       |    0.116063   -2.269699   -0.131284 |
                                       |    0.115907   -0.131284   -0.003618 |
  Two-photon absorption cross-section [a.u.]:                        21.857788
  Two-photon absorption matrix [a.u.]:
                                       |    1.646040    0.084328    0.084141 |
                                       |    0.084328   -1.645805   -0.094692 |
                                       |    0.084141   -0.094692   -0.002394 |

  Dip. moment [a.u.]:                  [   0.000167,   -0.000044,    0.000191]
  Total dipole [Debye]:                                               0.000654
  <r^2> [a.u.]:                        [ 181.367605,   40.988308,   11.104289]
  Total <r^2> [a.u.]:                                               233.460202

  V1^2 = 0.9579, V2^2 = 0.0421

  Important amplitudes:
      occ i     occ j     vir a      vir b          v   
    -----------------------------------------------------
     8 (A) A             10 (A) A                 0.6885
     8 (A) A             24 (A) A                 0.0508
     8 (A) A             18 (A) A                -0.0332
     4 (A) A              9 (A) A                -0.0246
     8 (A) A   8 (A) B    9 (A) A   12 (A) B      0.0222
     8 (A) A   8 (A) B   10 (A) A   17 (A) B      0.0171
     5 (A) A   8 (A) B   11 (A) A   10 (A) B     -0.0168
     7 (A) A             10 (A) A                -0.0159
     8 (A) A             15 (A) A                 0.0149
     7 (A) A   8 (A) B   13 (A) A   10 (A) B      0.0143
     4 (A) A   8 (A) B   12 (A) A   10 (A) B     -0.0112
     6 (A) A   8 (A) A   10 (A) A   15 (A) A      0.0111
     6 (A) A   8 (A) B   15 (A) A   10 (A) B     -0.0108
     7 (A) A   8 (A) B   22 (A) A   10 (A) B      0.0108
     4 (A) A   8 (A) A   10 (A) A   12 (A) A      0.0108
     7 (A) A   8 (A) A   10 (A) A   22 (A) A     -0.0099
     7 (A) A   8 (A) A   10 (A) A   13 (A) A     -0.0098
     5 (A) A   8 (A) A   10 (A) A   11 (A) A      0.0098
     5 (A) A   8 (A) B   21 (A) A   10 (A) B      0.0093
     6 (A) A   8 (A) B   10 (A) A   10 (A) B      0.0089
     6 (A) A   8 (A) A   10 (A) A   18 (A) A      0.0086
     7 (A) A   8 (A) A   12 (A) A   16 (A) A      0.0083
     3 (A) A   4 (A) B   10 (A) A    9 (A) B      0.0079
     5 (A) A   8 (A) A   10 (A) A   21 (A) A     -0.0079
     8 (A) A   8 (A) B    9 (A) A   23 (A) B     -0.0075
     4 (A) A   8 (A) B   19 (A) A   10 (A) B      0.0075
     3 (A) A   8 (A) A   10 (A) A   24 (A) A     -0.0071
     7 (A) A   8 (A) B   16 (A) A   12 (A) B     -0.0071
     3 (A) A   8 (A) B   10 (A) A   10 (A) B      0.0071
     5 (A) A   8 (A) B   10 (A) A   11 (A) B     -0.0070
     8 (A) A   8 (A) B    9 (A) A   19 (A) B     -0.0069
     3 (A) A   8 (A) B   10 (A) A   18 (A) B     -0.0067
     6 (A) A   8 (A) B   18 (A) A   10 (A) B     -0.0065
     8 (A) A   8 (A) B   10 (A) A   28 (A) B      0.0061
     7 (A) A   8 (A) B   12 (A) A   11 (A) B      0.0059
     5 (A) A   8 (A) A   10 (A) A   16 (A) A     -0.0058
     3 (A) A   5 (A) B   10 (A) A   25 (A) B     -0.0056
     4 (A) A   8 (A) A   10 (A) A   23 (A) A     -0.0055
     6 (A) A   8 (A) A   11 (A) A   16 (A) A      0.0055
     4 (A) A             20 (A) A                -0.0053
    -----------------------------------------------------

  Density matrix analysis:
  ------------------------
  NOs
    Occupation of frontier NOs:
       0.9813   0.9846
    Number of electrons: 16.000000
    Number of unpaired electrons: n_u =  2.28979, n_u,nl =  2.02527
    NO participation ratio (PR_NO):  2.703670
  
  
  Mulliken Population Analysis
  Atom      Charge (e)              h+              e-           Del q
  --------------------------------------------------------------------
   1 H       -0.153792        0.055059       -0.264171       -0.209112
   2 C        0.307685        0.535948       -0.117692        0.418256
   3 H       -0.153834        0.055071       -0.264228       -0.209156
   4 C        0.307591        0.535939       -0.117649        0.418290
   5 H       -0.153793        0.055066       -0.264177       -0.209111
   6 H       -0.153858        0.055077       -0.264244       -0.209167
  --------------------------------------------------------------------
  Sum:       -0.000000        1.292160       -1.292160        0.000000
  
  Multipole moment analysis of the density matrix
    Molecular charge:                      -0.000000
    Number of electrons:                   16.000000
      Center of electronic charge [Ang]: [ -1.561337,  -0.065300,   0.002137]
    Total nuclear charge:                  16.000000
      Center of nuclear charge [Ang]:    [ -1.561332,  -0.065301,   0.002143]
    Dipole moment [D]:                     0.000654
      Cartesian components [D]:          [  0.000423,  -0.000112,   0.000485]
    RMS size of the density [Ang]:         1.282157
      Cartesian components [Ang]:        [  0.858185,   0.844455,   0.440840]
  
  Exciton analysis of the difference density matrix
    <r_h> [Ang]:                  [ -1.561341,  -0.065316,   0.002184]
    <r_e> [Ang]:                  [ -1.561419,  -0.065285,   0.002049]
    |<r_e - r_h>| [Ang]:            0.000159
    Hole size [Ang]:                1.414926
      Cartesian components [Ang]: [  0.839313,   0.825474,   0.784960]
    Electron size [Ang]:            2.080047
      Cartesian components [Ang]: [  1.377018,   1.380523,   0.724274]

  Transition density matrix analysis:
  -----------------------------------
  
  CT numbers (Mulliken)
    omega =     0.9250
    <Phe> =    -0.0110
  
  Exciton analysis of the transition density matrix
    Trans. dipole moment [D]:             0.405410
      Cartesian components [D]:         [  0.018681,   0.025151,  -0.404198]
    <r_h> [Ang]:                        [ -1.561332,  -0.065361,   0.002219]
    <r_e> [Ang]:                        [ -1.561453,  -0.065297,   0.002010]
    |<r_e - r_h>| [Ang]:                  0.000250
    Hole size [Ang]:                      1.216523
      Cartesian components [Ang]:       [  0.642155,   0.629667,   0.819198]
    Electron size [Ang]:                  2.301661
      Cartesian components [Ang]:       [  1.522840,   1.529015,   0.800447]
    RMS electron-hole separation [Ang]:   2.592477
      Cartesian components [Ang]:       [  1.644402,   1.645816,   1.143752]
    Covariance(r_h, r_e) [Ang^2]:         0.028316
    Correlation coefficient:              0.010113
    Center-of-mass size [Ang]:            1.307115
      Cartesian components [Ang]:       [  0.830474,   0.830666,   0.573461]

  Decomposition into state-averaged NTOs
    H- 0 -> L+ 1: -0.6794 ( 92.3%)
                   omega =  92.5%
  ----------------------------------------------------------------------------


  Excited state 4 (singlet, A)                                     [converged]
  ----------------------------------------------------------------------------
  Term symbol:  5 (1) A                                     R^2 =  4.81716e-13

  Total energy:                                            -77.9614989275 a.u.
  Excitation energy:                                               9.745457 eV

  Osc. strength:                                                      0.032478
  Trans. dip. moment [a.u.]:           [   0.267430,   -0.253978,   -0.002566]
  <i|r^2|0> [a.u.]:                    [   1.589587,   -0.047650,   -0.026423]
  Two-photon absorption cross-section (SoS) [a.u.]:                 125.399816
  Two-photon absorption matrix (SoS) [a.u.]:
                                       |    0.262057    0.301017   -2.696160 |
                                       |    0.301017    0.343634   -2.835252 |
                                       |   -2.696160   -2.835252   -0.605068 |
  Two-photon absorption cross-section [a.u.]:                        75.137456
  Two-photon absorption matrix [a.u.]:
                                       |    0.203289    0.233056   -2.086905 |
                                       |    0.233056    0.265424   -2.194792 |
                                       |   -2.086905   -2.194792   -0.468390 |

  Dip. moment [a.u.]:                  [   0.000636,    0.000677,    0.000214]
  Total dipole [Debye]:                                               0.002423
  <r^2> [a.u.]:                        [ 181.278361,   40.787810,   10.898731]
  Total <r^2> [a.u.]:                                               232.964903

  V1^2 = 0.9633, V2^2 = 0.0367

  Important amplitudes:
      occ i     occ j     vir a      vir b          v   
    -----------------------------------------------------
     8 (A) A             11 (A) A                 0.6589
     7 (A) A              9 (A) A                -0.1783
     8 (A) A             21 (A) A                -0.0764
     8 (A) A              9 (A) A                -0.0682
     8 (A) A             16 (A) A                -0.0636
     7 (A) A             20 (A) A                -0.0167
     8 (A) A   8 (A) B    9 (A) A   13 (A) B      0.0161
     5 (A) A   8 (A) B   11 (A) A   11 (A) B     -0.0152
     4 (A) A             10 (A) A                 0.0137
     8 (A) A   8 (A) B   11 (A) A   17 (A) B      0.0135
     5 (A) A             13 (A) A                 0.0126
     7 (A) A   8 (A) B   13 (A) A   11 (A) B      0.0124
     6 (A) A             14 (A) A                 0.0124
     7 (A) A             16 (A) A                -0.0121
     4 (A) A   8 (A) B   12 (A) A   11 (A) B     -0.0108
     5 (A) A   8 (A) A   11 (A) A   21 (A) A     -0.0108
     8 (A) A   8 (A) B    9 (A) A   22 (A) B      0.0106
     7 (A) A   8 (A) A   11 (A) A   22 (A) A     -0.0094
     6 (A) A   8 (A) B   10 (A) A   11 (A) B      0.0089
     6 (A) A   8 (A) B   15 (A) A   11 (A) B     -0.0088
     7 (A) A   8 (A) B   22 (A) A   11 (A) B      0.0086
     3 (A) A   4 (A) B   11 (A) A    9 (A) B      0.0083
     6 (A) A   8 (A) A   11 (A) A   15 (A) A      0.0078
     3 (A) A   8 (A) B   11 (A) A   18 (A) B     -0.0078
     7 (A) A   8 (A) A   13 (A) A   16 (A) A      0.0077
     5 (A) A   8 (A) B    9 (A) A    9 (A) B     -0.0077
     6 (A) A             23 (A) A                 0.0075
     7 (A) A   8 (A) A   11 (A) A   13 (A) A     -0.0074
     4 (A) A   8 (A) B   19 (A) A   11 (A) B      0.0068
     5 (A) A   8 (A) B   21 (A) A   11 (A) B      0.0068
     7 (A) A             11 (A) A                -0.0065
     4 (A) A   8 (A) A   11 (A) A   12 (A) A      0.0061
     6 (A) A             19 (A) A                -0.0059
     6 (A) A   8 (A) A   11 (A) A   18 (A) A      0.0059
     6 (A) A   8 (A) B   18 (A) A   11 (A) B     -0.0057
     3 (A) A   8 (A) B   11 (A) A   30 (A) B     -0.0055
     7 (A) A   8 (A) B   16 (A) A   13 (A) B     -0.0055
     5 (A) A   8 (A) B   10 (A) A   10 (A) B     -0.0054
     6 (A) A   8 (A) B   11 (A) A   10 (A) B      0.0053
     3 (A) A   5 (A) B   11 (A) A   25 (A) B     -0.0053
    -----------------------------------------------------

  Density matrix analysis:
  ------------------------
  NOs
    Occupation of frontier NOs:
       0.9204   1.0478
    Number of electrons: 16.000000
    Number of unpaired electrons: n_u =  2.32386, n_u,nl =  2.06343
    NO participation ratio (PR_NO):  3.041299
  
  
  Mulliken Population Analysis
  Atom      Charge (e)              h+              e-           Del q
  --------------------------------------------------------------------
   1 H       -0.115506        0.047580       -0.218405       -0.170826
   2 C        0.231560        0.485639       -0.143508        0.342131
   3 H       -0.116006        0.047571       -0.218900       -0.171329
   4 C        0.231379        0.485649       -0.143571        0.342078
   5 H       -0.115720        0.047579       -0.218617       -0.171038
   6 H       -0.115707        0.047592       -0.218608       -0.171016
  --------------------------------------------------------------------
  Sum:       -0.000000        1.161609       -1.161609        0.000000
  
  Multipole moment analysis of the density matrix
    Molecular charge:                      0.000000
    Number of electrons:                   16.000000
      Center of electronic charge [Ang]: [ -1.561353,  -0.065324,   0.002136]
    Total nuclear charge:                  16.000000
      Center of nuclear charge [Ang]:    [ -1.561332,  -0.065301,   0.002143]
    Dipole moment [D]:                     0.002423
      Cartesian components [D]:          [  0.001616,   0.001721,   0.000544]
    RMS size of the density [Ang]:         1.278752
      Cartesian components [Ang]:        [  0.857246,   0.842373,   0.436741]
  
  Exciton analysis of the difference density matrix
    <r_h> [Ang]:                  [ -1.561364,  -0.065317,   0.002189]
    <r_e> [Ang]:                  [ -1.561664,  -0.065611,   0.002028]
    |<r_e - r_h>| [Ang]:            0.000450
    Hole size [Ang]:                1.400020
      Cartesian components [Ang]: [  0.825663,   0.812377,   0.786372]
    Electron size [Ang]:            2.103754
      Cartesian components [Ang]: [  1.408974,   1.404859,   0.683333]

  Transition density matrix analysis:
  -----------------------------------
  
  CT numbers (Mulliken)
    omega =     0.9298
    <Phe> =    -0.0192
  
  Exciton analysis of the transition density matrix
    Trans. dipole moment [D]:             0.468727
      Cartesian components [D]:         [  0.339870,  -0.322773,  -0.003261]
    <r_h> [Ang]:                        [ -1.561340,  -0.065301,   0.002212]
    <r_e> [Ang]:                        [ -1.561732,  -0.065652,   0.002010]
    |<r_e - r_h>| [Ang]:                  0.000563
    Hole size [Ang]:                      1.236861
      Cartesian components [Ang]:       [  0.673412,   0.661002,   0.799637]
    Electron size [Ang]:                  2.224688
      Cartesian components [Ang]:       [  1.489601,   1.486448,   0.721663]
    RMS electron-hole separation [Ang]:   2.532176
      Cartesian components [Ang]:       [  1.624343,   1.616990,   1.076461]
    Covariance(r_h, r_e) [Ang^2]:         0.033574
    Correlation coefficient:              0.012201
    Center-of-mass size [Ang]:            1.279278
      Cartesian components [Ang]:       [  0.822542,   0.818267,   0.538902]

  Decomposition into state-averaged NTOs
    H- 0 -> L+ 2:  0.6523 ( 85.1%)
    H- 1 -> L+ 0: -0.1770 (  6.3%)
    H- 0 -> L+ 0: -0.0801 (  1.3%)
                   omega =  93.0%
  ----------------------------------------------------------------------------


  Excited state 5 (singlet, A)                                     [converged]
  ----------------------------------------------------------------------------
  Term symbol:  6 (1) A                                     R^2 =  1.71743e-11

  Total energy:                                            -77.9471136107 a.u.
  Excitation energy:                                              10.136901 eV

  Osc. strength:                                                      0.001002
  Trans. dip. moment [a.u.]:           [   0.043750,    0.045766,    0.004935]
  <i|r^2|0> [a.u.]:                    [   0.338025,   -0.083990,    0.015467]
  Two-photon absorption cross-section (SoS) [a.u.]:                 219.161032
  Two-photon absorption matrix (SoS) [a.u.]:
                                       |    0.365097    0.055442   -3.786290 |
[...]
    16   -2.799054626897e-05
    17   -2.704438958125e-04
    18    1.593603314471e-04
    19   -3.042887520893e-03
    20    1.157790577737e-02
    21    9.270708851983e-01
    22   -5.029951696984e-04
    23    1.375435225852e-02
    24    1.559771405789e-04
    25    7.038389872850e-02
    26   -5.234812618361e-02
    27   -1.382504153810e+00
    28    9.993379883122e-02
    29   -9.495507804453e-02
    30   -9.491841181866e-04
    31    3.848046514205e-01
    32   -3.656180828645e-01
    33   -3.649187416551e-03
    34    1.471073882880e-02
    35   -2.810623785268e-03
    36   -3.183778505944e-03
    37    1.118951756463e-04
    38   -2.726085496891e-03
    39    1.157395526194e-02
    40    9.275400115152e-01
    41    5.569082991888e-04
    42   -1.367760616738e-02
    43   -1.453988254962e-03
    44    1.155749947009e-02
    45    9.272906447127e-01
    46    1.369887984629e-02
    47    1.342544683127e-04
    48    1.319989947283e-03
Sym=X
Ene= 0.231151
Spin=Alpha
Occup=0
     1   -2.930228114775e-02
     2   -1.166287880444e+00
     3    1.298075804065e-02
     4    3.521702221888e-03
     5   -4.284518836538e-04
     6    6.692290563785e-05
     7   -6.925503765511e-05
     8   -1.151128000430e-03
     9    1.550720208809e-01
    10    1.634498920711e-01
    11   -5.533200079509e-03
    12    5.328933358394e-01
    13    5.619785205530e-01
    14   -3.122786806790e-02
    15    3.150268058642e-05
    16   -1.162855674878e-03
    17    1.105509600900e-03
    18   -1.185418457085e-03
    19   -5.819095566007e-05
    20    2.933398693326e-02
    21    1.167939182439e+00
    22    2.856323831965e-03
    23    1.317105297922e-02
    24   -3.311508424809e-04
    25   -4.874715334258e-05
    26    5.617994412264e-05
    27    6.644585266031e-04
    28    1.529412428953e-01
    29    1.606824032477e-01
    30    3.990612482454e-02
    31    5.241261612179e-01
    32    5.506290532105e-01
    33    1.491925392640e-01
    34    7.106846835596e-06
    35   -1.023717517002e-03
    36    9.633342451861e-04
    37    1.400980313327e-03
    38    8.795528996939e-05
    39   -2.933352447591e-02
    40   -1.167230919817e+00
    41    2.731918691867e-03
    42    1.301230417145e-02
    43    2.181987303116e-03
    44    2.930061370861e-02
    45    1.166185929616e+00
    46    1.286297272501e-02
    47    3.368298934001e-03
    48    2.085109609789e-03
Sym=X
Ene= 0.236288
Spin=Alpha
Occup=0
     1    1.963793610798e-02
     2    1.071868727680e+00
     3   -1.583726749235e-02
     4   -9.188653301621e-03
     5   -9.341832246386e-04
     6    8.714969247667e-02
     7   -8.245193219888e-02
     8   -1.542174003817e+00
     9   -5.903738247093e-02
    10    5.586849694070e-02
    11    6.257524622917e-04
    12   -2.427677055481e-01
    13    2.299409709483e-01
    14    2.569355797148e-03
    15    2.124501007732e-02
    16   -1.724719718685e-03
    17   -2.067642209770e-03
    18    6.304026636802e-04
    19   -1.248928142608e-02
    20    1.961627754309e-02
    21    1.070537026349e+00
    22    8.364092170604e-03
    23    1.626762540899e-02
    24    1.013922335476e-03
    25   -8.713033543374e-02
    26    8.241255387091e-02
    27    1.541900180520e+00
    28   -5.904703091497e-02
    29    5.588495824576e-02
    30    4.764621929385e-04
    31   -2.429170905843e-01
    32    2.299228193980e-01
    33    1.950277208226e-03
    34   -2.094635624548e-02
    35    3.252435276226e-03
    36    3.646814321570e-03
    37   -5.978866974811e-04
    38    1.231470160356e-02
    39   -1.960824376965e-02
    40   -1.070158866350e+00
    41    8.337140268960e-03
    42    1.621285090577e-02
    43    1.751866984564e-03
    44   -1.963961064896e-02
    45   -1.071874726809e+00
    46   -1.580122414266e-02
    47   -9.147652686345e-03
    48   -1.691467408667e-03
Sym=X
Ene= 0.302781
Spin=Alpha
Occup=0
     1    2.111263635937e-02
     2   -1.654654935550e+00
     3    2.348489539065e-02
     4   -3.505123416683e-04
     5    2.280472623612e-04
     6   -6.546109136361e-06
     7    2.484554931170e-07
     8    1.955734986461e-04
     9    1.360662183410e-01
    10    1.432460551933e-01
    11    3.047907212463e-03
    12    1.124681291748e+00
    13    1.183601678994e+00
    14    8.548845783977e-02
    15   -2.636341747011e-05
    16    1.109564065216e-03
    17   -1.393182382025e-03
    18    3.399000093654e-02
    19    1.745606106814e-03
    20   -2.112316531428e-02
    21    1.654589533744e+00
    22   -1.558566501890e-03
    23    2.342890938960e-02
    24    4.668652132581e-04
    25    5.075500110187e-06
    26    5.414824317431e-06
    27   -2.009000576169e-04
    28   -1.349370131568e-01
    29   -1.418287456239e-01
    30   -2.720143452791e-02
    31   -1.120941686352e+00
    32   -1.178508259882e+00
    33   -1.650898363004e-01
    34   -3.708769941193e-05
    35    2.357317963982e-03
    36   -2.540167343637e-03
    37    3.384318165458e-02
    38    1.720621549240e-03
    39   -2.106373406613e-02
    40    1.654675521214e+00
    41    1.647346878665e-03
    42   -2.332654372214e-02
    43   -2.203129854151e-03
    44    2.107240317014e-02
    45   -1.654599115825e+00
    46   -2.339685389333e-02
    47    4.646584223931e-04
    48   -1.975617144305e-03
Sym=X
Ene= 0.462396
Spin=Alpha
Occup=0
     1   -1.150842909879e-01
     2   -6.953167484021e-01
     3   -1.498116079153e-02
     4   -1.037091334716e-02
     5   -2.074742204715e-05
     6    6.250527842461e-02
     7    1.651398767169e-02
     8   -3.640452678148e+00
     9    1.040627220247e-01
    10   -9.881003615997e-02
    11   -1.028012826588e-03
    12    2.430573990981e+00
    13   -2.308391887363e+00
    14   -2.273159860720e-02
    15    5.366031565623e-02
    16    3.284106090595e-04
    17   -7.574818234505e-04
    18   -1.025989545151e-03
    19    1.986253034703e-02
    20   -1.150098613697e-01
    21   -6.955186392390e-01
    22    9.596457626446e-03
    23    1.549574627896e-02
    24    6.782344187142e-05
    25   -6.251749215670e-02
    26   -1.643990392645e-02
    27    3.640568933671e+00
    28    1.041697761262e-01
    29   -9.894135438295e-02
    30   -9.608122274002e-04
    31    2.430264341179e+00
    32   -2.308132494262e+00
    33   -2.242074447184e-02
    34   -5.221154041969e-02
    35    6.826825996050e-03
    36    8.287836398826e-03
    37    1.146118353198e-03
    38   -2.072965836342e-02
    39    1.147224702351e-01
    40    6.956324879491e-01
    41    9.448865440134e-03
    42    1.532189271086e-02
    43    2.706776591325e-03
    44    1.147267828010e-01
    45    6.957107767416e-01
    46   -1.484466719961e-02
    47   -1.020097852875e-02
    48   -2.654346945466e-03
Sym=X
Ene= 0.579778
Spin=Alpha
Occup=0
     1    2.380811064534e-01
     2    4.648314626412e-02
     3   -2.206901782122e-02
     4    2.698421554010e-02
     5    4.330114767872e-04
     6   -6.214068238001e-03
     7   -1.692481189664e-01
     8   -4.176037388789e-01
     9    3.055969060567e-01
    10   -2.901742183195e-01
    11   -2.830197314228e-03
    12   -7.467075003251e-01
    13    7.089656421987e-01
    14    7.022101963336e-03
    15   -2.013793837508e-03
    16    3.483408512536e-03
    17    3.111149839556e-03
    18   -3.026459794798e-03
    19    5.981914103163e-02
    20    2.378357560542e-01
    21    4.672175209966e-02
    22   -2.810593241363e-02
    23    2.067255844867e-02
    24    4.453556409692e-05
    25   -6.294793658926e-03
    26   -1.692937776710e-01
    27   -4.138844193506e-01
    28   -3.054258774954e-01
    29    2.900787827691e-01
    30    2.841193061460e-03
    31    7.491659883371e-01
    32   -7.114936820001e-01
    33   -6.986475535421e-03
    34   -1.946264440038e-03
    35    3.814368707016e-03
    36    3.462692444183e-03
    37   -3.062288381870e-03
    38    5.977905710339e-02
    39    2.379297738566e-01
    40    4.761956920960e-02
    41    2.811404135365e-02
    42   -2.069778379862e-02
    43    2.451270633573e-04
    44    2.377757987975e-01
    45    4.774191694685e-02
    46    2.212787451229e-02
    47   -2.702143466411e-02
    48   -7.099624489076e-04
Sym=X
Ene= 0.609516
Spin=Alpha
Occup=0
     1    5.193115135479e-01
     2   -2.457903358644e-01
     3    5.958624847074e-02
     4   -3.716366694363e-02
     5    2.065699901013e-03
     6   -8.430811930819e-06
     7   -3.419331325102e-09
     8    2.349789212023e-05
     9    3.495917454361e-02
    10    3.681227297816e-02
    11    1.069089776224e-02
    12   -2.620827950368e-01
    13   -2.767823231203e-01
    14    2.014838110756e-02
    15   -9.501951615232e-05
    16    6.438134754394e-03
    17   -7.571021987601e-03
    18    1.489882434812e-01
    19    7.626642574475e-03
    20   -5.195920689086e-01
    21    2.457407456917e-01
    22   -4.013330682193e-02
    23    5.757286448972e-02
    24    3.018154693646e-03
    25    1.731182391752e-06
    26   -2.671598689726e-05
    27    4.083202049696e-04
    28    3.569510321824e-02
    29    3.754774033256e-02
    30   -2.790215813433e-03
    31   -2.577647516055e-01
    32   -2.705543280555e-01
    33   -7.818592855022e-02
    34    1.396348304092e-04
    35   -8.782710126563e-03
    36    9.695523350645e-03
    37   -1.488373451231e-01
    38   -7.604199488411e-03
    39    5.196619106751e-01
    40   -2.462924821399e-01
    41   -3.999380295947e-02
    42    5.776579906771e-02
    43    1.045402583451e-04
    44   -5.197112057361e-01
    45    2.461964509055e-01
    46    5.973078055888e-02
    47   -3.694567338438e-02
    48   -8.127156442801e-04
Sym=X
Ene= 0.688768
Spin=Alpha
Occup=0
     1   -4.670542753905e-03
     2    2.144943423802e-02
     3   -1.258423930672e-03
     4   -2.404440247150e-03
     5   -1.883719010819e-02
     6   -7.747413304266e-06
     7   -1.544554130617e-04
     8    1.771742807217e-04
     9    1.109235476723e-02
    10    1.821318155329e-02
    11   -6.722704537648e-01
    12   -2.074785700129e-03
    13   -7.973225446059e-03
    14    6.155110964285e-01
    15   -1.268530645338e-03
    16    8.223900939488e-02
    17   -7.796111765134e-02
    18   -1.619652316723e-02
    19   -1.612817151558e-03
    20    4.477058270686e-03
    21   -2.117248567625e-02
    22   -2.509861962217e-03
    23   -1.127729438456e-03
    24   -1.882663021847e-02
    25   -1.070210924158e-05
    26   -1.190729179938e-04
    27    3.400172787872e-05
    28    5.325839676937e-02
    29    6.271969526216e-02
    30   -6.675516658078e-01
    31   -5.696937841152e-02
    32   -6.580571095490e-02
    33    6.093575488056e-01
    34    1.387203637691e-03
    35   -8.302150386762e-02
    36    7.881743919260e-02
    37    1.209774415497e-03
    38    8.079974444935e-04
    39    4.424266588682e-03
    40   -2.129161041540e-02
    41    4.278974390117e-03
    42    3.375262726017e-03
    43   -1.821683736613e-02
    44   -4.730564528658e-03
    45    2.135257246023e-02
    46    3.034177108907e-03
    47    4.648429756009e-03
    48   -1.820397314752e-02
Sym=X
Ene= 0.704493
Spin=Alpha
Occup=0
     1   -4.883526715050e-01
     2    1.655816800737e-01
     3   -7.826878876941e-02
     4   -4.445663060775e-02
     5   -3.292333841669e-03
     6   -4.594715242818e-02
     7   -2.998449648262e-01
     8    4.614292345116e-01
     9    1.962175903868e-01
    10   -1.863423886526e-01
    11   -1.638394127904e-03
    12   -5.943664749153e-02
    13    5.656059673394e-02
    14    2.717794883704e-04
    15    1.921021869628e-01
    16   -1.233841830474e-02
    17   -1.548446478718e-02
    18    3.861883914526e-03
    19   -7.744538593812e-02
    20   -4.882656447633e-01
    21    1.656028640942e-01
    22    4.039082669693e-02
    23    8.042478232117e-02
    24    3.649875888230e-03
    25   -4.590361167035e-02
    26   -2.997993456700e-01
    27    4.585746618638e-01
    28   -1.961851653922e-01
    29    1.863543901476e-01
    30    2.024169489966e-03
    31    5.764181356270e-02
    32   -5.485887420186e-02
    33   -6.834761210059e-04
    34    1.890007438562e-01
    35   -2.848702341292e-02
    36   -3.247737611100e-02
    37    3.631338354495e-03
    38   -7.553403550581e-02
    39   -4.883577936566e-01
    40    1.652169477350e-01
    41   -4.008319612469e-02
    42   -8.006086506464e-02
    43   -9.902698317744e-03
    44   -4.882471643057e-01
    45    1.649515968180e-01
    46    7.795814729732e-02
    47    4.406369907456e-02
    48    9.568754231194e-03
Sym=X
Ene= 0.775283
Spin=Alpha
Occup=0
     1   -5.386301617890e-01
     2    4.835384291117e-01
     3   -1.075796686692e-01
     4   -2.663360491093e-02
     5   -2.134834877481e-03
     6   -8.888762847334e-02
     7    2.265374825585e-01
     8    5.722424766915e-01
     9   -1.032839248510e-01
    10    9.804159599397e-02
    11    1.091448960712e-03
    12   -2.998382445194e-01
    13    2.849425122407e-01
    14    2.462946988300e-03
    15    2.049827225561e-01
    16   -3.038588395349e-03
    17   -6.663904161830e-03
    18    4.264158447432e-04
    19   -9.120945070764e-03
    20   -5.385206449670e-01
    21    4.835894912053e-01
    22    2.107206683642e-02
    23    1.087930615893e-01
    24    2.944709236272e-03
    25    8.888868183694e-02
    26   -2.266745633772e-01
    27   -5.725872248674e-01
    28   -1.033425289715e-01
    29    9.815891580045e-02
    30    7.965406049385e-04
    31   -2.995025655547e-01
    32    2.845141179598e-01
    33    3.132043094709e-03
    34   -1.994197777741e-01
    35    3.168920021487e-02
    36    3.665872164144e-02
    37    4.548231787643e-05
    38    5.889775675533e-03
    39    5.387231886087e-01
    40   -4.835138532371e-01
    41    2.066285828871e-02
    42    1.081968170270e-01
    43    1.216501551602e-02
    44    5.388115886667e-01
    45   -4.834608627216e-01
    46   -1.071279225362e-01
    47   -2.608301068827e-02
    48   -1.136341645595e-02
Sym=X
Ene= 0.807063
Spin=Alpha
Occup=0
     1   -1.374236051474e-03
     2    5.949689414269e-02
     3   -7.442205644806e-03
     4   -6.145011000439e-03
     5    3.109854443879e-02
     6    1.650473684731e-05
     7   -8.557204406685e-06
     8    8.995781681095e-06
     9    2.540457989874e-03
    10   -4.983718708937e-03
    11    7.657065356062e-01
    12   -1.104349591809e-02
    13   -6.390374350082e-04
    14   -1.124672493661e+00
    15   -1.101735597922e-03
    16    6.466489110836e-02
    17   -6.119877273865e-02
    18   -2.259674161858e-02
    19   -1.784061572701e-03
    20    1.557529843274e-03
    21   -5.977272987886e-02
    22   -5.419682430856e-03
    23   -8.130713350952e-03
    24    3.106613157304e-02
    25   -1.884251320055e-05
    26    6.933776685734e-05
    27   -3.704213107144e-05
    28    7.571693509588e-02
    29    8.699505755805e-02
    30   -7.570081571552e-01
    31   -1.184873245646e-01
    32   -1.356475142333e-01
    33    1.110214428151e+00
    34   -1.009458626027e-03
    35    6.626220221039e-02
    36   -6.302655885460e-02
    37    8.804203964400e-03
    38   -1.402408084281e-04
    39   -1.547829720097e-03
    40    5.976995331837e-02
    41   -2.382951536004e-03
    42   -4.301510601261e-03
    43   -3.217140699207e-02
    44    1.365342621255e-03
    45   -5.953104082522e-02
    46   -4.424113947158e-03
    47   -2.315846214229e-03
    48   -3.215523966914e-02
Sym=X
Ene= 0.858544
Spin=Alpha
Occup=0
     1    1.393717367990e-02
     2   -1.073285292379e+00
     3    1.461513351300e-01
     4    5.635206236246e-02
     5    5.763064872595e-03
     6   -9.182704986764e-07
     7   -4.849945075396e-05
     8    4.556259432566e-05
     9   -4.133159430392e-01
    10   -4.354233761503e-01
    11    2.010248065572e-02
    12    9.413776127053e-01
    13    9.917021048167e-01
    14   -3.970294712651e-02
    15   -2.018597035957e-04
    16    1.177425596318e-02
    17   -1.334531348090e-02
    18    2.290665570375e-01
    19    1.172788560435e-02
    20   -1.392085546998e-02
    21    1.073202082980e+00
    22    4.878417925471e-02
    23    1.487888167907e-01
    24    6.703501606494e-03
    25   -6.210553700199e-06
    26   -5.082838947408e-05
    27   -2.338573333472e-06
    28   -4.071917837790e-01
    29   -4.276419576218e-01
    30   -1.116507460472e-01
    31    9.280071817042e-01
    32    9.745909835609e-01
    33    2.482748211709e-01
    34    2.312024557250e-04
    35   -1.165418775150e-02
    36    1.320850791758e-02
    37   -2.291671434001e-01
    38   -1.170720263105e-02
    39    1.389266154871e-02
    40   -1.073350857259e+00
    41    4.828363418536e-02
    42    1.482929924785e-01
    43    1.592197233376e-02
    44   -1.395082656755e-02
    45    1.073452555942e+00
    46    1.457771096236e-01
    47    5.571116924584e-02
    48    1.501639367801e-02
Sym=X
Ene= 0.927477
Spin=Alpha
Occup=0
     1   -1.427252089325e-01
     2    1.228916643053e+00
     3   -1.828274200120e-01
     4    5.276717535945e-03
     5   -1.873537189877e-03
     6    5.246504628571e-06
     7    2.207834264543e-05
     8    1.719728411136e-04
     9    4.747590769675e-01
    10    4.993803753417e-01
    11    3.331357491473e-02
    12   -1.381586993821e+00
    13   -1.453273415817e+00
    14   -9.881964230402e-02
    15   -3.705634987614e-05
    16    3.350816367447e-03
    17   -1.947983885270e-03
    18   -1.263317768526e-01
    19   -6.647874124635e-03
    20    1.426601548271e-01
    21   -1.228546874821e+00
    22    1.473383037148e-02
    23   -1.822358660455e-01
    24   -3.742032267664e-03
    25   -7.603625609946e-06
    26   -1.064176558637e-04
    27   -1.112773629483e-05
    28   -4.725733495500e-01
    29   -4.970830880420e-01
    30   -7.238331417906e-02
    31    1.375289413354e+00
    32    1.446695883211e+00
    33    2.087625918584e-01
    34    2.813209620061e-04
    35   -1.616997663652e-02
    36    1.645445096785e-02
    37   -1.241919946204e-01
    38   -6.182277157919e-03
    39    1.427196135031e-01
    40   -1.228553026134e+00
    41   -1.536748448385e-02
    42    1.814262756000e-01
    43    1.677007006620e-02
    44   -1.426903980441e-01
    45    1.228093663425e+00
    46    1.820874663253e-01
    47   -6.193031804403e-03
    48    1.496342230893e-02
Sym=X
Ene= 0.970129
Spin=Alpha
Occup=0
     1   -5.984476063820e-02
     2    8.937899018589e-01
     3   -8.756932848119e-02
     4   -9.663818858121e-02
     5   -8.380828328050e-03
     6    2.714805019836e-02
     7    2.542188364472e-01
     8    5.070026617449e-01
     9    4.829321739114e-01
    10   -4.588619648808e-01
    11   -4.601484572769e-03
    12   -1.468821255196e+00
    13    1.395810443222e+00
    14    1.397011468943e-02
    15   -5.821302685709e-02
    16   -1.317722915990e-02
    17   -1.001653921380e-02
    18    1.521864990409e-02
    19   -2.962192265433e-01
    20   -5.985378485831e-02
    21    8.945327640917e-01
    22    9.205573334463e-02
    23    9.245877299402e-02
    24    8.395057363137e-03
    25   -2.714380323120e-02
    26   -2.537508989076e-01
    27   -5.077439108443e-01
    28    4.831253617204e-01
    29   -4.586455442320e-01
    30   -4.411423086193e-03
    31   -1.469737809767e+00
    32    1.395055539328e+00
    33    1.341381330529e-02
    34    5.785753059922e-02
    35    1.157093724773e-02
    36    8.301368702104e-03
    37   -1.516073700855e-02
    38    2.962953879967e-01
    39    5.991430744999e-02
    40   -8.936397768602e-01
    41    9.188000096441e-02
    42    9.215111249175e-02
    43    1.160504348609e-02
    44    5.987895545883e-02
    45   -8.943024742458e-01
    46   -8.749419596066e-02
    47   -9.639642826932e-02
    48   -1.167023285450e-02
[5D]

======= END OF MOLDEN-FORMATTED INPUT FILE =======


        *************************************************************
        *                                                           *
        *  Thank you very much for using Q-Chem.  Have a nice day.  *
        *                                                           *
        *************************************************************


