                  Welcome to Q-Chem
     A Quantum Leap Into The Future Of Chemistry


 Q-Chem 5.4 (devel), Q-Chem, Inc., Pleasanton, CA (2021)

 E. Epifanovsky,  A. T. B. Gilbert,  Xintian Feng,  Joonho Lee,  Yuezhi Mao,  
 N. Mardirossian,  P. Pokhilko,  A. White,  M. Wormit,  M. P. Coons,  
 A. L. Dempwolff,  Zhengting Gan,  D. Hait,  P. R. Horn,  L. D. Jacobson,  
 I. Kaliman,  J. Kussmann,  A. W. Lange,  Ka Un Lao,  D. S. Levine,  Jie Liu,  
 S. C. McKenzie,  A. F. Morrison,  K. Nanda,  F. Plasser,  D. R. Rehn,  
 M. L. Vidal,  Zhi-Qiang You,  Ying Zhu,  B. Alam,  B. Albrecht,  
 A. Aldossary,  E. Alguire,  J. H. Andersen,  D. Barton,  K. Begam,  A. Behn,  
 Y. A. Bernard,  E. J. Berquist,  H. Burton,  A. Carreras,  K. Carter-Fenk,  
 R. Chakraborty,  A. D. Chien,  K. D. Closser,  V. Cofer-Shabica,  
 S. Dasgupta,  Jia Deng,  M. de Wergifosse,  M. Diedenhofen,  Hainam Do,  
 S. Ehlert,  Po-Tung Fang,  S. Fatehi,  Qingguo Feng,  T. Friedhoff,  
 J. Gayvert,  Qinghui Ge,  G. Gidofalvi,  M. Goldey,  J. Gomes,  
 C. Gonzalez-Espinoza,  S. Gulania,  A. Gunina,  M. W. D. Hanson-Heine,  
 P. H. P. Harbach,  A. W. Hauser,  M. F. Herbst,  M. Hernandez Vera,  
 M. Hodecker,  Z. C. Holden,  S. Houck,  Xunkun Huang,  Kerwin Hui,  
 B. C. Huynh,  M. Ivanov,  Hyunjun Ji,  Hanjie Jiang,  B. Kaduk,  S. Kaehler,  
 K. Khistyaev,  Jaehoon Kim,  P. Klunzinger,  Z. Koczor-Benda,  
 Joong Hoon Koh,  D. Kosenkov,  L. Koulias,  T. Kowalczyk,  C. M. Krauter,  
 K. Kue,  A. Kunitsa,  T. Kus,  A. Landau,  K. V. Lawler,  D. Lefrancois,  
 S. Lehtola,  Rain Li,  Yi-Pei Li,  Jiashu Liang,  M. Liebenthal,  
 Hung-Hsuan Lin,  You-Sheng Lin,  Fenglai Liu,  Kuan-Yu Liu,  
 M. Loipersberger,  A. Luenser,  A. Manjanath,  P. Manohar,  E. Mansoor,  
 S. F. Manzer,  Shan-Ping Mao,  A. V. Marenich,  T. Markovich,  S. Mason,  
 S. A. Maurer,  P. F. McLaughlin,  M. F. S. J. Menger,  J.-M. Mewes,  
 S. A. Mewes,  P. Morgante,  J. W. Mullinax,  K. J. Oosterbaan,  G. Paran,  
 Alexander C. Paul,  Suranjan K. Paul,  F. Pavosevic,  Zheng Pei,  S. Prager,  
 E. I. Proynov,  E. Ramos,  B. Rana,  A. E. Rask,  A. Rettig,  R. M. Richard,  
 F. Rob,  E. Rossomme,  T. Scheele,  M. Scheurer,  M. Schneider,  
 N. Sergueev,  S. M. Sharada,  W. Skomorowski,  D. W. Small,  C. J. Stein,  
 Yu-Chuan Su,  E. J. Sundstrom,  Zhen Tao,  J. Thirman,  T. Tsuchimochi,  
 N. M. Tubman,  S. P. Veccham,  O. Vydrov,  J. Wenzel,  J. Witte,  A. Yamada,  
 Kun Yao,  S. Yeganeh,  S. R. Yost,  A. Zech,  Igor Ying Zhang,  Xing Zhang,  
 Yu Zhang,  D. Zuev,  A. Aspuru-Guzik,  A. T. Bell,  N. A. Besley,  
 K. B. Bravaya,  B. R. Brooks,  D. Casanova,  Jeng-Da Chai,  S. Coriani,  
 C. J. Cramer,  A. E. DePrince, III,  R. A. DiStasio Jr.,  A. Dreuw,  
 B. D. Dunietz,  T. R. Furlani,  W. A. Goddard III,  S. Grimme,  
 S. Hammes-Schiffer,  T. Head-Gordon,  W. J. Hehre,  Chao-Ping Hsu,  
 T.-C. Jagau,  Yousung Jung,  A. Klamt,  Jing Kong,  D. S. Lambrecht,  
 WanZhen Liang,  N. J. Mayhall,  C. W. McCurdy,  J. B. Neaton,  
 C. Ochsenfeld,  J. A. Parkhill,  R. Peverati,  V. A. Rassolov,  Yihan Shao,  
 L. V. Slipchenko,  T. Stauch,  R. P. Steele,  J. E. Subotnik,  
 A. J. W. Thom,  A. Tkatchenko,  D. G. Truhlar,  T. Van Voorhis,  
 T. A. Wesolowski,  K. B. Whaley,  H. L. Woodcock III,  P. M. Zimmerman,  
 S. Faraji,  P. M. W. Gill,  M. Head-Gordon,  J. M. Herbert,  A. I. Krylov

 Additional authors for Version 5.4.1: 
 S. Kotaru,  Shaozhi Li,  Xiangyuan Li,  F. Matz,  A. Molle,  Haisheng Ren,  
 Yingli Su,  Hung-Yi Tsai,  C. Utku,  Fang Wang

 Contributors to earlier versions of Q-Chem not listed above: 
 R. D. Adamson,  B. Austin,  R. Baer,  J. Baker,  G. J. O. Beran,  
 K. Brandhorst,  S. T. Brown,  E. F. C. Byrd,  A. K. Chakraborty,  
 G. K. L. Chan,  Chun-Min Chang,  Yunqing Chen,  C.-L. Cheng,  
 Siu Hung Chien,  D. M. Chipman,  D. L. Crittenden,  H. Dachsel,  
 R. J. Doerksen,  A. D. Dutoi,  R. G. Edgar,  J. Fosso-Tande,  
 L. Fusti-Molnar,  D. Ghosh,  A. Ghysels,  A. Golubeva-Zadorozhnaya,  
 J. Gonthier,  M. S. Gordon,  S. R. Gwaltney,  G. Hawkins,  J. E. Herr,  
 A. Heyden,  S. Hirata,  E. G. Hohenstein,  G. Kedziora,  F. J. Keil,  
 C. Kelley,  Jihan Kim,  R. A. King,  R. Z. Khaliullin,  P. P. Korambath,  
 W. Kurlancheek,  A. Laurent,  A. M. Lee,  M. S. Lee,  S. V. Levchenko,  
 Ching Yeh Lin,  D. Liotard,  E. Livshits,  R. C. Lochan,  I. Lotan,  
 L. A. Martinez-Martinez,  P. E. Maslen,  N. Nair,  D. P. O'Neill,  
 D. Neuhauser,  E. Neuscamman,  C. M. Oana,  R. Olivares-Amaya,  R. Olson,  
 T. M. Perrine,  B. Peters,  P. A. Pieniazek,  A. Prociuk,  Y. M. Rhee,  
 J. Ritchie,  M. A. Rohrdanz,  E. Rosta,  N. J. Russ,  H. F. Schaefer III,  
 M. W. Schmidt,  N. E. Schultz,  S. Sharma,  N. Shenvi,  C. D. Sherrill,  
 A. C. Simmonett,  A. Sodt,  T. Stein,  D. Stuck,  K. S. Thanthiriwatte,  
 V. Vanovschi,  L. Vogt,  Tao Wang,  A. Warshel,  M. A. Watson,  
 C. F. Williams,  Q. Wu,  X. Xu,  Jun Yang,  W. Zhang,  Yan Zhao

 Please cite Q-Chem as follows:
 Y. Shao et al., Mol. Phys. 113, 184-215 (2015)
 DOI: 10.1080/00268976.2014.952696

 Q-Chem 5.4.1 for Intel X86 EM64T Linux

 Parts of Q-Chem use Armadillo 9.800.1 (Horizon Scraper).
 http://arma.sourceforge.net/

 Q-Chem begins on Mon Mar 20 18:11:32 2023  

 Host: cpu186.baobab
0

     Scratch files written to /scratch/fum/qchem69904//
 Processing $rem in /home/share/wesolowski/qc5.aug2021.FDE/config/preferences:
 Processing $rem in /home/fum/.qchemrc:

 Checking the input file for inconsistencies... 	...done.

--------------------------------------------------------------
User input:
--------------------------------------------------------------
$comment
generated from CCJob.Templates
$end

$rem
sym_ignore = true
method = adc(2)
ee_states = 10
basis = cc-pVDZ
mem_static = 1024
mem_total = 40000
adc_davidson_maxiter = 900
adc_davidson_conv = 6
adc_print = 3
adc_prop_es = true
adc_prop_es2es = true
adc_prop_tpa = true
molden_format = True
state_analysis = true
print_orbitals = 15
gen_scfman = false
fde_export_density = true
fde_details = 3
$end

$molecule
0 1
H -0.02928029674934769 -0.2421833051876011 0.07023450605910189
C -1.1080319512765906 -0.48888065001824643 -0.009058861395149356
H -1.3147400627120094 -1.5812537904480315 -0.08650537980927689
C -2.059607563006716 0.445468966072773 -0.0008024412016459596
H -1.821002007824809 1.4759505633023429 0.086643404701603
H -3.106433555887554 0.13687863844180553 -0.06999758936675199                     
$end
--------------------------------------------------------------
 ----------------------------------------------------------------
             Standard Nuclear Orientation (Angstroms)
    I     Atom           X                Y                Z
 ----------------------------------------------------------------
    1      H      -0.0292802967    -0.2421833052     0.0702345061
    2      C      -1.1080319513    -0.4888806500    -0.0090588614
    3      H      -1.3147400627    -1.5812537904    -0.0865053798
    4      C      -2.0596075630     0.4454689661    -0.0008024412
    5      H      -1.8210020078     1.4759505633     0.0866434047
    6      H      -3.1064335559     0.1368786384    -0.0699975894
 ----------------------------------------------------------------
 Nuclear Repulsion Energy =          33.20854049 hartrees
 There are        8 alpha and        8 beta electrons
 Requested basis set is cc-pVDZ
 There are 24 shells and 48 basis functions
 Total memory of 40000 MB is distributed as follows: 
   MEM_STATIC is set to 1024 MB
   QALLOC/CCMAN JOB total memory use is  38976 MB
 Warning: actual memory use might exceed 40000 MB

 Total QAlloc Memory Limit  40000 MB
 Mega-Array Size      1001 MB
 MEM_STATIC part      1024 MB

                       Distance Matrix (Angstroms)
             H (  1)   C (  2)   H (  3)   C (  4)   H (  5)
   C (  2)  1.109438
   H (  3)  1.862816  1.114453
   C (  4)  2.144794  1.333632  2.160967
   H (  5)  2.482442  2.092378  3.103672  1.061354
   H (  6)  3.103583  2.094969  2.482422  1.093554  1.862789

 A cutoff of  1.0D-11 yielded    300 shell pairs
 There are      1220 function pairs (      1329 Cartesian)
 Smallest overlap matrix eigenvalue = 4.81E-03

 Scale SEOQF with 1.000000e-01/1.000000e-01/1.000000e+00

 Standard Electronic Orientation quadrupole field applied
 Nucleus-field energy     =     0.0000000022 hartrees
 Guess from superposition of atomic densities
 Warning:  Energy on first SCF cycle will be non-variational
 SAD guess density has 16.000000 electrons
 A restricted Hartree-Fock SCF calculation will be
 performed using Pulay DIIS extrapolation
 SCF converges when DIIS error is below 1.0E-08
 using 10 threads for integral computing
 -------------------------------------------------------
 OpenMP Integral computing Module                
 Release: version 1.0, May 2013, Q-Chem Inc. Pittsburgh 
 -------------------------------------------------------
 ---------------------------------------
  Cycle       Energy         DIIS Error
 ---------------------------------------
    1     -78.3968411192      9.93E-02
    2     -78.0158905876      7.14E-03
    3     -78.0363910218      1.84E-03
    4     -78.0378765678      5.81E-04
    5     -78.0380010536      7.35E-05
    6     -78.0380033874      2.29E-05
    7     -78.0380036415      8.19E-06
    8     -78.0380036732      2.23E-06
    9     -78.0380036780      6.65E-07
   10     -78.0380036784      8.13E-08
   11     -78.0380036784      5.92E-09 Convergence criterion met
 ---------------------------------------
 SCF time:  CPU 2.06 s  wall 3.12 s
 SCF   energy in the final basis set = -78.03800368
 Total energy in the final basis set = -78.03800368
Exporting Density Matrix to file 'Densmat_SCF.txt'.
Export successful
================================================================================
|                                                                              |
|                                 A D C  M A N                                 |
|                                                                              |
 ------------------------------------------------------------------------------ 
|                                                                              |
| Components:                                                                  |
|                                                                              |
| - libvmm - 1.3-trunk                                                         |
|   Authors:                                                                   |
|   Evgeny Epifanovsky, Ilya Kaliman                                           |
|                                                                              |
| - libtensor - 2.5-trunk                                                      |
|   Authors:                                                                   |
|   Evgeny Epifanovsky, Michael Wormit, Dmitry Zuev, Sam Manzer,               |
|   Ilya Kaliman                                                               |
|                                                                              |
| - libwfa - 1.1-trunk                                                         |
|   Authors:                                                                   |
|   Felix Plasser, Stefanie Mewes (Baeppler), Benjamin Thomitzni,              |
|   Michael Wormit, Feng Chen, Anna I. Krylov, Pavel Pokhilko                  |
|                                                                              |
| - libadc - 1.1-trunk                                                         |
|   Authors:                                                                   |
|   Michael Wormit, Adrian L. Dempwolff, Philipp H. P. Harbach,                |
|   Caroline Krauter, Dirk Rehn, Matthias Schneider, Jan Wenzel                |
|                                                                              |
| - adcman - 2.6-trunk                                                         |
|   Authors:                                                                   |
|   Michael Wormit, Adrian L. Dempwolff, Philipp H. P. Harbach,                |
|   Caroline Krauter, Daniel Lefrancois, Jan-Michael Mewes, Dirk Rehn,         |
|   Matthias Schneider, Jan Wenzel, Andreas Dreuw                              |
|                                                                              |
| Authors of earlier versions of ADCMAN:                                       |
| Andreas Dreuw, Jan Hendrik Starcke, Dirk Rehn, Michael Wormit                |
|                                                                              |
================================================================================

 Created directory /scratch/fum/qchem69904/plots
  Import QC data ...  CPU 0.00 s  wall 0.00 s

 Alpha MOs, Restricted
 -- Occupied --                  
-11.241 -11.235  -1.030  -0.786  -0.636  -0.582  -0.498  -0.375
  1 A     2 A     3 A     4 A     5 A     6 A     7 A     8 A                  
 -- Virtual --                   
  0.168   0.202   0.231   0.236   0.303   0.462   0.581   0.609
  9 A    10 A    11 A    12 A    13 A    14 A    15 A    16 A                  
  0.689   0.705   0.776   0.807   0.858   0.928   0.970   1.006
 17 A    18 A    19 A    20 A    21 A    22 A    23 A    24 A                  
  1.130   1.235   1.241   1.262   1.292   1.592   1.719   1.751
 25 A    26 A    27 A    28 A    29 A    30 A    31 A    32 A                  
  1.810   1.840   1.866   1.903   1.959   1.974   2.223   2.247
 33 A    34 A    35 A    36 A    37 A    38 A    39 A    40 A                  
  2.358   2.422   2.490   2.622   2.671   2.803   3.109   3.373
 41 A    42 A    43 A    44 A    45 A    46 A    47 A    48 A                  

 Beta MOs, Restricted
 -- Occupied --                  
-11.241 -11.235  -1.030  -0.786  -0.636  -0.582  -0.498  -0.375
  1 A     2 A     3 A     4 A     5 A     6 A     7 A     8 A                  
 -- Virtual --                   
  0.168   0.202   0.231   0.236   0.303   0.462   0.581   0.609
  9 A    10 A    11 A    12 A    13 A    14 A    15 A    16 A                  
  0.689   0.705   0.776   0.807   0.858   0.928   0.970   1.006
 17 A    18 A    19 A    20 A    21 A    22 A    23 A    24 A                  
  1.130   1.235   1.241   1.262   1.292   1.592   1.719   1.751
 25 A    26 A    27 A    28 A    29 A    30 A    31 A    32 A                  
  1.810   1.840   1.866   1.903   1.959   1.974   2.223   2.247
 33 A    34 A    35 A    36 A    37 A    38 A    39 A    40 A                  
  2.358   2.422   2.490   2.622   2.671   2.803   3.109   3.373
 41 A    42 A    43 A    44 A    45 A    46 A    47 A    48 A                  
  Import AO data ...  CPU 0.00 s  wall 0.00 s
  Using point group: C1
  Irreducible representations in point group: A
  Molecular orbitals: 
  Occupied MOs:
  Block   0:   1 (  A) A   2 (  A) A   3 (  A) A   4 (  A) A   5 (  A) A
                  -11.24      -11.23       -1.03     -0.7858     -0.6361
               6 (  A) A   7 (  A) A   8 (  A) A
                 -0.5822     -0.4983     -0.3745
  Block   1:   1 (  A) B   2 (  A) B   3 (  A) B   4 (  A) B   5 (  A) B
                  -11.24      -11.23       -1.03     -0.7858     -0.6361
               6 (  A) B   7 (  A) B   8 (  A) B
                 -0.5822     -0.4983     -0.3745
  Virtual MOs:
  Block   0:   9 (  A) A  10 (  A) A  11 (  A) A  12 (  A) A  13 (  A) A
                  0.1678      0.2024      0.2309      0.2364      0.3026
              14 (  A) A  15 (  A) A  16 (  A) A  17 (  A) A  18 (  A) A
                  0.4618      0.5806       0.609      0.6885      0.7045
              19 (  A) A  20 (  A) A  21 (  A) A  22 (  A) A
                  0.7759      0.8072      0.8582      0.9283
  Block   1:  23 (  A) A  24 (  A) A  25 (  A) A  26 (  A) A  27 (  A) A
                  0.9704       1.006        1.13       1.235       1.241
              28 (  A) A  29 (  A) A  30 (  A) A  31 (  A) A  32 (  A) A
                   1.262       1.292       1.592       1.719       1.751
              33 (  A) A  34 (  A) A  35 (  A) A  36 (  A) A
                    1.81        1.84       1.866       1.903
  Block   2:  37 (  A) A  38 (  A) A  39 (  A) A  40 (  A) A  41 (  A) A
                   1.959       1.974       2.223       2.247       2.358
              42 (  A) A  43 (  A) A  44 (  A) A  45 (  A) A  46 (  A) A
                   2.422        2.49       2.622       2.671       2.803
              47 (  A) A  48 (  A) A
                   3.109       3.373
  Block   3:   9 (  A) B  10 (  A) B  11 (  A) B  12 (  A) B  13 (  A) B
                  0.1678      0.2024      0.2309      0.2364      0.3026
              14 (  A) B  15 (  A) B  16 (  A) B  17 (  A) B  18 (  A) B
                  0.4618      0.5806       0.609      0.6885      0.7045
              19 (  A) B  20 (  A) B  21 (  A) B  22 (  A) B
                  0.7759      0.8072      0.8582      0.9283
  Block   4:  23 (  A) B  24 (  A) B  25 (  A) B  26 (  A) B  27 (  A) B
                  0.9704       1.006        1.13       1.235       1.241
              28 (  A) B  29 (  A) B  30 (  A) B  31 (  A) B  32 (  A) B
                   1.262       1.292       1.592       1.719       1.751
              33 (  A) B  34 (  A) B  35 (  A) B  36 (  A) B
                    1.81        1.84       1.866       1.903
  Block   5:  37 (  A) B  38 (  A) B  39 (  A) B  40 (  A) B  41 (  A) B
                   1.959       1.974       2.223       2.247       2.358
              42 (  A) B  43 (  A) B  44 (  A) B  45 (  A) B  46 (  A) B
                   2.422        2.49       2.622       2.671       2.803
              47 (  A) B  48 (  A) B
                   3.109       3.373
  Import MO data ...  CPU 0.02 s  wall 0.01 s
  Import HF data ...  CPU 0.32 s  wall 0.14 s
  Import 2e integrals ...  CPU 1.03 s  wall 0.19 s

--------------------------------------------------------------------------------
                                   HF Summary                                   
--------------------------------------------------------------------------------
  Energy:                                                  -78.0380036784 a.u.
  Dip. moment [a.u.]:                  [   0.003738,    0.001394,    0.007071]
  Total dipole [Debye]:                                               0.020636
  <r^2> [a.u.]:                        [ 178.858379,   35.425848,   11.694744]
  Total <r^2> [a.u.]:                                               225.978972
--------------------------------------------------------------------------------
  HF properties ...  CPU 0.03 s  wall 0.02 s
  MP(1) calculation ...  CPU 0.01 s  wall 0.01 s
  N^6 prerequesite intermediates ...  CPU 0.73 s  wall 0.14 s
  Difference density matrix of state mp2_gs printed to ASCII file 'State_mp2_gs_Difference.txt'
Exporting MP density matrix to file 'Densmat_MP.txt'.
Export successful
  Total density matrix of state mp2_gs printed to ASCII file 'State_mp2_gs_Total.txt'
Exporting MP density matrix to file 'Densmat_MP.txt'.
Export successful

--------------------------------------------------------------------------------
                                 MP(2) Summary                                  
--------------------------------------------------------------------------------
  MP energy contribution:                                   -0.2805694950 a.u.
  Total energy:                                            -78.3185731734 a.u.
  Dip. moment [a.u.]:                  [   0.002494,    0.001092,    0.006897]
  Total dipole [Debye]:                                               0.018846
  <r^2> [a.u.]:                        [ 178.884816,   35.466518,   11.522101]
  Total <r^2> [a.u.]:                                               225.873435

  Density matrix analysis:
  ------------------------
  NOs
    Occupation of frontier NOs:
       0.0455   1.9380
    Number of electrons: 16.000000
    Number of unpaired electrons: n_u =  0.40759, n_u,nl =  0.04589
    NO participation ratio (PR_NO): 13.893093
  
  
  Mulliken Population Analysis
  Atom      Charge (e)              h+              e-           Del q
  --------------------------------------------------------------------
   1 H        0.056036        0.013941       -0.011391        0.002550
   2 C       -0.136175        0.096351       -0.101486       -0.005135
   3 H        0.058519        0.013747       -0.011442        0.002305
   4 C       -0.082364        0.093083       -0.098334       -0.005251
   5 H        0.048868        0.014126       -0.011216        0.002910
   6 H        0.055116        0.013859       -0.011238        0.002621
  --------------------------------------------------------------------
  Sum:       -0.000000        0.245107       -0.245107        0.000000
  
  Multipole moment analysis of the density matrix
    Molecular charge:                      -0.000000
    Number of electrons:                   16.000000
      Center of electronic charge [Ang]: [ -1.579913,  -0.029478,  -0.003903]
    Total nuclear charge:                  16.000000
      Center of nuclear charge [Ang]:    [ -1.579831,  -0.029442,  -0.003675]
    Dipole moment [D]:                     0.018846
      Cartesian components [D]:          [  0.006338,   0.002774,   0.017530]
    RMS size of the density [Ang]:         1.206722
      Cartesian components [Ang]:        [  0.796666,   0.787311,   0.449046]
  
  Exciton analysis of the difference density matrix
    <r_h> [Ang]:                  [ -1.576398,  -0.037120,  -0.005278]
    <r_e> [Ang]:                  [ -1.573710,  -0.036467,  -0.004902]
    |<r_e - r_h>| [Ang]:            0.002791
    Hole size [Ang]:                1.402309
      Cartesian components [Ang]: [  0.853150,   0.841115,   0.728787]
    Electron size [Ang]:            1.361769
      Cartesian components [Ang]: [  0.875519,   0.868324,   0.577835]
--------------------------------------------------------------------------------
  MP(2) calculation ...  CPU 0.29 s  wall 0.21 s
  Start ADC(2)-s ...  CPU 0.02 s  wall 0.01 s
  ADC(2) intermediates ...  CPU 0.04 s  wall 0.01 s
  Starting Davidson for singlet states of irrep A ... 
--------------------------------------------------------------------------------
   It NVec Conv  Avg. Norm  Max. Norm  Conv. states           Remark
--------------------------------------------------------------------------------
        10    0  1.329e-01  4.687e-01  0.4115 n n n n n n n n Guess.
    1   20    0  2.460e-02  1.198e-01  0.3261 n n n n n n n n 
    2   30    0  6.536e-03  3.548e-02  0.3213 n n n n n n n n 
    3   40    0  2.403e-03  1.707e-02  0.3209 n n n n n n n n 
    4   50    0  7.584e-04  5.450e-03  0.3209 n n n n n n n n 
    5   20    0  4.933e-04  3.906e-03  0.3208 n n n n n n n n Subspace collapsed.
    6   30    0  6.477e-04  6.033e-03  0.3208 n n n n n n n n 
    7   40    0  5.496e-04  5.301e-03  0.3208 n n n n n n n n 
    8   50    0  3.434e-04  3.367e-03  0.3208 n n n n n n n n 
    9   20    0  1.846e-04  1.816e-03  0.3208 n n n n n n n n Subspace collapsed.
   10   30    1  1.049e-04  1.027e-03  0.3208 n y n n n n n n 
   11   40    3  5.698e-05  5.427e-04  0.3208 n y y y n n n n 
   12   50    6  3.498e-05  3.278e-04  0.3208 y y y y y y n n 
   13   20    6  3.035e-05  2.827e-04  0.3208 y y y y y y n n Subspace collapsed.
   14   30    6  4.345e-05  4.268e-04  0.3208 y y y y y y n n 
   15   40    6  4.347e-05  4.312e-04  0.3208 y y y y y y n n 
   16   50    6  3.348e-05  3.337e-04  0.3208 y y y y y y n n 
   17   20    6  1.437e-05  1.432e-04  0.3208 y y y y y y n n Subspace collapsed.
   18   30    6  9.424e-06  9.378e-05  0.3208 y y y y y y n n 
   19   40    7  5.472e-06  5.445e-05  0.3208 y y y y y y n y 
   20   50    7  3.594e-06  3.582e-05  0.3208 y y y y y y n y 
   21   20    7  3.053e-06  3.045e-05  0.3208 y y y y y y n y Subspace collapsed.
   22   30    8  5.359e-06  5.351e-05  0.3208 y y y y y y y y 
   23   40    8  5.070e-06  5.065e-05  0.3208 y y y y y y y y 
   24   42    8  5.083e-06  5.078e-05  0.3208 y y y y y y y y 
   25   50    8  3.668e-06  3.666e-05  0.3208 y y y y y y y y 
   26   16    9  2.112e-06  2.110e-05  0.3208 y y y y y y y y Subspace collapsed.
   27   22    9  1.830e-06  1.829e-05  0.3208 y y y y y y y y 
   28   22    9  1.830e-06  1.829e-05  0.3208 y y y y y y y y 
   29   32    9  1.126e-06  1.125e-05  0.3208 y y y y y y y y 
   30   37    9  7.354e-07  7.350e-06  0.3208 y y y y y y y y 
   31   41    9  6.852e-07  6.848e-06  0.3208 y y y y y y y y 
   32   45    9  8.250e-07  8.247e-06  0.3208 y y y y y y y y 
   33   49    9  7.579e-07  7.577e-06  0.3208 y y y y y y y y 
   34   50    9  7.184e-07  7.182e-06  0.3208 y y y y y y y y 
   35   14    9  3.494e-07  3.494e-06  0.3208 y y y y y y y y Subspace collapsed.
   36   18    9  2.449e-07  2.448e-06  0.3208 y y y y y y y y 
   37   22    9  1.599e-07  1.598e-06  0.3208 y y y y y y y y 
   38   26    9  1.665e-07  1.664e-06  0.3208 y y y y y y y y 
   39   30    9  1.517e-07  1.516e-06  0.3208 y y y y y y y y 
   40   34    9  1.422e-07  1.422e-06  0.3208 y y y y y y y y 
   41   38    9  1.320e-07  1.320e-06  0.3208 y y y y y y y y 
   42   42   10  8.210e-08  8.209e-07  0.3208 y y y y y y y y Converged.
--------------------------------------------------------------------------------
  Davidson Summary: 
 ------------------------------------------------------------
  State  0: excitation energy =   0.3208 a.u.   (converged)
  State  1: excitation energy =   0.3280 a.u.   (converged)
  State  2: excitation energy =   0.3356 a.u.   (converged)
  State  3: excitation energy =   0.3578 a.u.   (converged)
  State  4: excitation energy =   0.3732 a.u.   (converged)
  State  5: excitation energy =   0.3866 a.u.   (converged)
  State  6: excitation energy =   0.4189 a.u.   (converged)
  State  7: excitation energy =   0.4438 a.u.   (converged)
  State  8: excitation energy =   0.4536 a.u.   (converged)
  State  9: excitation energy =   0.4577 a.u.   (converged)
 ------------------------------------------------------------

  Singlet states of irrep A ...  CPU 244.13 s  wall 77.64 s
  TDMs ...  CPU 2.39 s  wall 0.87 s
  SDMs ...  CPU 4.96 s  wall 1.60 s
  Starting TPA DIIS iterations ... 
------------------------------------ 
   It     Res. Norm  Remark
------------------------------------
                       Guess.
    1     4.316e+00  
    2     5.733e+00  
    3     1.082e+00  
    4     2.682e-01  
    5     6.568e-02  
    6     2.844e-02  
    7     8.525e-03  
    8     1.617e-03  
    9     6.009e-04  
   10     1.005e-04  
   11     3.338e-05  
   12     5.219e-06  
   13     1.962e-06  
   14     5.204e-07  Converged.
   ... Converged in 14 steps (norm: 5.20412e-07)
------------------------------------
  Starting TPA DIIS iterations ... 
------------------------------------ 
   It     Res. Norm  Remark
------------------------------------
                       Guess.
    1     4.272e+00  
    2     5.651e+00  
    3     1.042e+00  
    4     2.565e-01  
    5     6.507e-02  
    6     2.724e-02  
    7     8.293e-03  
    8     1.521e-03  
    9     5.809e-04  
   10     9.548e-05  
   11     3.178e-05  
   12     5.078e-06  
   13     2.131e-06  
   14     5.985e-07  Converged.
   ... Converged in 14 steps (norm: 5.98519e-07)
------------------------------------
  Starting TPA DIIS iterations ... 
------------------------------------ 
   It     Res. Norm  Remark
------------------------------------
                       Guess.
    1     6.851e-01  
    2     4.782e-01  
    3     1.683e-01  
    4     5.267e-02  
    5     1.890e-02  
    6     7.110e-03  
    7     1.189e-03  
    8     4.437e-04  
    9     1.855e-04  
   10     3.413e-05  
   11     2.420e-05  
   12     8.698e-06  
   13     4.378e-06  
   14     1.888e-06  
   15     6.249e-07  Converged.
   ... Converged in 15 steps (norm: 6.2493e-07)
------------------------------------
  Starting TPA DIIS iterations ... 
------------------------------------ 
   It     Res. Norm  Remark
------------------------------------
                       Guess.
    1     4.484e+00  
    2     6.036e+00  
    3     1.130e+00  
    4     2.860e-01  
    5     7.064e-02  
    6     3.079e-02  
    7     9.216e-03  
    8     1.747e-03  
    9     6.522e-04  
   10     1.094e-04  
   11     3.662e-05  
   12     5.763e-06  
   13     2.196e-06  
   14     5.768e-07  Converged.
   ... Converged in 14 steps (norm: 5.76848e-07)
------------------------------------
  Starting TPA DIIS iterations ... 
------------------------------------ 
   It     Res. Norm  Remark
------------------------------------
                       Guess.
    1     4.439e+00  
    2     5.949e+00  
    3     1.089e+00  
    4     2.733e-01  
    5     6.999e-02  
    6     2.947e-02  
    7     8.962e-03  
    8     1.643e-03  
    9     6.308e-04  
   10     1.040e-04  
   11     3.489e-05  
   12     5.609e-06  
   13     2.403e-06  
   14     6.751e-07  Converged.
   ... Converged in 14 steps (norm: 6.75148e-07)
------------------------------------
  Starting TPA DIIS iterations ... 
------------------------------------ 
   It     Res. Norm  Remark
------------------------------------
                       Guess.
    1     6.924e-01  
    2     4.885e-01  
    3     1.741e-01  
    4     5.652e-02  
    5     1.988e-02  
    6     7.476e-03  
    7     1.280e-03  
    8     4.826e-04  
    9     2.033e-04  
   10     3.901e-05  
   11     2.689e-05  
   12     9.695e-06  
   13     5.032e-06  
   14     2.220e-06  
   15     7.187e-07  Converged.
   ... Converged in 15 steps (norm: 7.18727e-07)
------------------------------------
  Starting TPA DIIS iterations ... 
------------------------------------ 
   It     Res. Norm  Remark
------------------------------------
                       Guess.
    1     4.677e+00  
    2     6.386e+00  
    3     1.186e+00  
    4     3.070e-01  
    5     7.649e-02  
    6     3.357e-02  
    7     1.003e-02  
    8     1.901e-03  
    9     7.129e-04  
   10     1.200e-04  
   11     4.052e-05  
   12     6.419e-06  
   13     2.484e-06  
   14     6.457e-07  Converged.
   ... Converged in 14 steps (norm: 6.45711e-07)
------------------------------------
  Starting TPA DIIS iterations ... 
------------------------------------ 
   It     Res. Norm  Remark
------------------------------------
                       Guess.
    1     4.629e+00  
    2     6.294e+00  
    3     1.143e+00  
    4     2.932e-01  
    5     7.579e-02  
    6     3.212e-02  
    7     9.750e-03  
    8     1.787e-03  
    9     6.899e-04  
   10     1.141e-04  
   11     3.864e-05  
   12     6.247e-06  
   13     2.741e-06  
   14     7.723e-07  Converged.
   ... Converged in 14 steps (norm: 7.72278e-07)
------------------------------------
  Starting TPA DIIS iterations ... 
------------------------------------ 
   It     Res. Norm  Remark
------------------------------------
                       Guess.
    1     7.004e-01  
    2     4.999e-01  
    3     1.806e-01  
    4     6.113e-02  
    5     2.097e-02  
    6     7.902e-03  
    7     1.389e-03  
    8     5.286e-04  
    9     2.245e-04  
   10     4.521e-05  
   11     3.017e-05  
   12     1.094e-05  
   13     5.859e-06  
   14     2.652e-06  
   15     8.300e-07  Converged.
   ... Converged in 15 steps (norm: 8.30046e-07)
------------------------------------
  Starting TPA DIIS iterations ... 
------------------------------------ 
   It     Res. Norm  Remark
------------------------------------
                       Guess.
    1     5.322e+00  
    2     7.587e+00  
    3     1.371e+00  
    4     3.813e-01  
    5     9.724e-02  
    6     4.354e-02  
    7     1.293e-02  
    8     2.448e-03  
    9     9.309e-04  
   10     1.581e-04  
   11     5.491e-05  
   12     8.857e-06  
   13     3.611e-06  
   14     9.142e-07  Converged.
   ... Converged in 14 steps (norm: 9.14202e-07)
------------------------------------
  Starting TPA DIIS iterations ... 
------------------------------------ 
   It     Res. Norm  Remark
------------------------------------
                       Guess.
    1     5.266e+00  
    2     7.477e+00  
    3     1.321e+00  
    4     3.636e-01  
    5     9.636e-02  
    6     4.160e-02  
    7     1.255e-02  
    8     2.300e-03  
    9     9.025e-04  
   10     1.503e-04  
   11     5.255e-05  
   12     8.610e-06  
   13     4.091e-06  
   14     1.186e-06  
   15     7.568e-07  Converged.
   ... Converged in 15 steps (norm: 7.56834e-07)
------------------------------------
  Starting TPA DIIS iterations ... 
------------------------------------ 
   It     Res. Norm  Remark
------------------------------------
                       Guess.
    1     7.246e-01  
    2     5.360e-01  
    3     2.018e-01  
    4     7.806e-02  
    5     2.447e-02  
    6     9.396e-03  
    7     1.786e-03  
    8     6.883e-04  
    9     3.003e-04  
   10     7.036e-05  
   11     4.274e-05  
   12     1.597e-05  
   13     9.303e-06  
   14     4.498e-06  
   15     1.229e-06  
   16     4.981e-07  Converged.
   ... Converged in 16 steps (norm: 4.98115e-07)
------------------------------------
  Starting TPA DIIS iterations ... 
------------------------------------ 
   It     Res. Norm  Remark
------------------------------------
                       Guess.
    1     5.859e+00  
    2     8.623e+00  
    3     1.523e+00  
    4     4.481e-01  
    5     1.158e-01  
    6     5.261e-02  
    7     1.553e-02  
    8     2.939e-03  
    9     1.129e-03  
   10     1.927e-04  
   11     6.841e-05  
   12     1.115e-05  
   13     4.746e-06  
   14     1.193e-06  
   15     6.700e-07  Converged.
   ... Converged in 15 steps (norm: 6.70022e-07)
------------------------------------
  Starting TPA DIIS iterations ... 
------------------------------------ 
   It     Res. Norm  Remark
------------------------------------
                       Guess.
    1     5.797e+00  
    2     8.498e+00  
    3     1.469e+00  
    4     4.266e-01  
    5     1.148e-01  
    6     5.022e-02  
    7     1.507e-02  
    8     2.760e-03  
    9     1.096e-03  
   10     1.833e-04  
   11     6.570e-05  
   12     1.083e-05  
   13     5.489e-06  
   14     1.661e-06  
   15     1.076e-06  
   16     4.218e-07  Converged.
   ... Converged in 16 steps (norm: 4.21815e-07)
------------------------------------
  Starting TPA DIIS iterations ... 
------------------------------------ 
   It     Res. Norm  Remark
------------------------------------
                       Guess.
    1     7.424e-01  
    2     5.640e-01  
    3     2.189e-01  
    4     9.392e-02  
    5     2.729e-02  
    6     1.073e-02  
    7     2.158e-03  
    8     8.208e-04  
    9     3.679e-04  
   10     9.607e-05  
   11     5.519e-05  
   12     2.134e-05  
   13     1.316e-05  
   14     6.492e-06  
   15     1.616e-06  
   16     6.610e-07  Converged.
   ... Converged in 16 steps (norm: 6.61039e-07)
------------------------------------
  Starting TPA DIIS iterations ... 
------------------------------------ 
   It     Res. Norm  Remark
------------------------------------
                       Guess.
    1     6.400e+00  
    2     9.694e+00  
    3     1.676e+00  
    4     5.192e-01  
    5     1.357e-01  
    6     6.238e-02  
    7     1.831e-02  
    8     3.462e-03  
    9     1.343e-03  
   10     2.300e-04  
   11     8.322e-05  
   12     1.368e-05  
   13     6.065e-06  
   14     1.536e-06  
   15     8.919e-07  Converged.
   ... Converged in 15 steps (norm: 8.91889e-07)
------------------------------------
  Starting TPA DIIS iterations ... 
------------------------------------ 
   It     Res. Norm  Remark
------------------------------------
                       Guess.
    1     6.331e+00  
    2     9.553e+00  
    3     1.616e+00  
    4     4.936e-01  
    5     1.344e-01  
    6     5.949e-02  
    7     1.775e-02  
    8     3.251e-03  
    9     1.306e-03  
   10     2.189e-04  
   11     8.026e-05  
   12     1.326e-05  
   13     7.159e-06  
   14     2.286e-06  
   15     1.470e-06  
   16     5.992e-07  Converged.
   ... Converged in 16 steps (norm: 5.99204e-07)
------------------------------------
  Starting TPA DIIS iterations ... 
------------------------------------ 
   It     Res. Norm  Remark
------------------------------------
                       Guess.
    1     7.585e-01  
    2     5.906e-01  
    3     2.355e-01  
    4     1.114e-01  
    5     3.012e-02  
    6     1.214e-02  
    7     2.566e-03  
    8     9.462e-04  
    9     4.388e-04  
   10     1.258e-04  
   11     6.960e-05  
   12     2.792e-05  
   13     1.820e-05  
   14     8.878e-06  
   15     2.103e-06  
   16     8.564e-07  Converged.
   ... Converged in 16 steps (norm: 8.56429e-07)
------------------------------------
  Starting TPA DIIS iterations ... 
------------------------------------ 
   It     Res. Norm  Remark
------------------------------------
                       Guess.
    1     8.108e+00  
    2     1.325e+01  
    3     2.151e+00  
    4     7.660e-01  
    5     2.045e-01  
    6     9.702e-02  
    7     2.797e-02  
    8     5.282e-03  
    9     2.100e-03  
   10     3.613e-04  
   11     1.365e-04  
   12     2.282e-05  
   13     1.128e-05  
   14     3.115e-06  
   15     1.851e-06  
   16     7.407e-07  Converged.
   ... Converged in 16 steps (norm: 7.40691e-07)
------------------------------------
  Starting TPA DIIS iterations ... 
------------------------------------ 
   It     Res. Norm  Remark
------------------------------------
                       Guess.
    1     8.016e+00  
    2     1.305e+01  
    3     2.075e+00  
    4     7.254e-01  
    5     2.025e-01  
    6     9.233e-02  
    7     2.707e-02  
    8     4.963e-03  
    9     2.052e-03  
   10     3.443e-04  
   11     1.338e-04  
   12     2.194e-05  
   13     1.421e-05  
   14     5.442e-06  
   15     3.239e-06  
   16     1.401e-06  
   17     6.356e-07  Converged.
   ... Converged in 17 steps (norm: 6.35581e-07)
------------------------------------
  Starting TPA DIIS iterations ... 
------------------------------------ 
   It     Res. Norm  Remark
------------------------------------
                       Guess.
    1     8.008e-01  
    2     6.661e-01  
    3     2.850e-01  
    4     1.750e-01  
    5     3.944e-02  
    6     1.701e-02  
    7     4.056e-03  
    8     1.265e-03  
    9     6.763e-04  
   10     2.400e-04  
   11     1.275e-04  
   12     5.697e-05  
   13     4.337e-05  
   14     1.867e-05  
   15     4.614e-06  
   16     1.647e-06  
   17     5.434e-07  Converged.
   ... Converged in 17 steps (norm: 5.4343e-07)
------------------------------------
  Starting TPA DIIS iterations ... 
------------------------------------ 
   It     Res. Norm  Remark
------------------------------------
                       Guess.
    1     9.981e+00  
    2     1.742e+01  
    3     2.659e+00  
    4     1.067e+00  
    5     2.892e-01  
    6     1.407e-01  
    7     3.987e-02  
    8     7.532e-03  
    9     3.059e-03  
   10     5.249e-04  
   11     2.035e-04  
   12     3.459e-05  
   13     1.838e-05  
   14     5.753e-06  
   15     3.479e-06  
   16     1.474e-06  
   17     6.965e-07  Converged.
   ... Converged in 17 steps (norm: 6.96539e-07)
------------------------------------
  Starting TPA DIIS iterations ... 
------------------------------------ 
   It     Res. Norm  Remark
------------------------------------
                       Guess.
    1     9.864e+00  
    2     1.716e+01  
    3     2.565e+00  
    4     1.007e+00  
    5     2.862e-01  
    6     1.338e-01  
    7     3.855e-02  
    8     7.087e-03  
    9     3.002e-03  
   10     5.006e-04  
   11     2.032e-04  
   12     3.297e-05  
   13     2.499e-05  
   14     1.119e-05  
   15     6.272e-06  
   16     2.762e-06  
   17     1.075e-06  
   18     4.881e-07  Converged.
   ... Converged in 18 steps (norm: 4.88056e-07)
------------------------------------
  Starting TPA DIIS iterations ... 
------------------------------------ 
   It     Res. Norm  Remark
------------------------------------
                       Guess.
    1     8.370e-01  
    2     7.383e-01  
    3     3.350e-01  
    4     2.547e-01  
    5     5.053e-02  
    6     2.271e-02  
    7     5.950e-03  
    8     1.535e-03  
    9     9.557e-04  
   10     3.925e-04  
   11     2.113e-04  
   12     1.017e-04  
   13     8.367e-05  
   14     3.306e-05  
   15     9.359e-06  
   16     2.914e-06  
   17     8.524e-07  Converged.
   ... Converged in 17 steps (norm: 8.52433e-07)
------------------------------------
  Starting TPA DIIS iterations ... 
------------------------------------ 
   It     Res. Norm  Remark
------------------------------------
                       Guess.
    1     1.092e+01  
    2     1.960e+01  
    3     2.907e+00  
    4     1.226e+00  
    5     3.344e-01  
    6     1.645e-01  
    7     4.624e-02  
    8     8.741e-03  
    9     3.581e-03  
   10     6.127e-04  
   11     2.397e-04  
   12     4.118e-05  
   13     2.230e-05  
   14     7.398e-06  
   15     4.569e-06  
   16     1.960e-06  
   17     8.737e-07  Converged.
   ... Converged in 17 steps (norm: 8.73737e-07)
------------------------------------
  Starting TPA DIIS iterations ... 
------------------------------------ 
   It     Res. Norm  Remark
------------------------------------
                       Guess.
    1     1.078e+01  
    2     1.931e+01  
    3     2.805e+00  
    4     1.156e+00  
    5     3.310e-01  
    6     1.562e-01  
    7     4.469e-02  
    8     8.230e-03  
    9     3.522e-03  
   10     5.844e-04  
   11     2.414e-04  
   12     3.915e-05  
   13     3.146e-05  
   14     1.491e-05  
   15     8.308e-06  
   16     3.700e-06  
   17     1.342e-06  
   18     5.713e-07  Converged.
   ... Converged in 18 steps (norm: 5.71309e-07)
------------------------------------
  Starting TPA DIIS iterations ... 
------------------------------------ 
   It     Res. Norm  Remark
------------------------------------
                       Guess.
    1     8.523e-01  
    2     7.712e-01  
    3     3.586e-01  
    4     2.961e-01  
    5     5.633e-02  
    6     2.554e-02  
    7     6.960e-03  
    8     1.679e-03  
    9     1.102e-03  
   10     4.763e-04  
   11     2.603e-04  
   12     1.276e-04  
   13     1.054e-04  
   14     4.154e-05  
   15     1.252e-05  
   16     3.758e-06  
   17     1.083e-06  
   18     7.093e-07  Converged.
   ... Converged in 18 steps (norm: 7.09345e-07)
------------------------------------
  Starting TPA DIIS iterations ... 
------------------------------------ 
   It     Res. Norm  Remark
------------------------------------
                       Guess.
    1     1.134e+01  
    2     2.062e+01  
    3     3.020e+00  
    4     1.300e+00  
    5     3.558e-01  
    6     1.757e-01  
    7     4.924e-02  
    8     9.313e-03  
    9     3.829e-03  
   10     6.542e-04  
   11     2.570e-04  
   12     4.438e-05  
   13     2.416e-05  
   14     8.221e-06  
   15     5.131e-06  
   16     2.210e-06  
   17     9.655e-07  Converged.
   ... Converged in 17 steps (norm: 9.65495e-07)
------------------------------------
  Starting TPA DIIS iterations ... 
------------------------------------ 
   It     Res. Norm  Remark
------------------------------------
                       Guess.
    1     1.121e+01  
    2     2.031e+01  
    3     2.914e+00  
    4     1.225e+00  
    5     3.520e-01  
    6     1.669e-01  
    7     4.759e-02  
    8     8.772e-03  
    9     3.769e-03  
   10     6.240e-04  
   11     2.596e-04  
   12     4.217e-05  
   13     3.466e-05  
   14     1.680e-05  
   15     9.371e-06  
   16     4.201e-06  
   17     1.477e-06  
   18     6.076e-07  Converged.
   ... Converged in 18 steps (norm: 6.07562e-07)
------------------------------------
  Starting TPA DIIS iterations ... 
------------------------------------ 
   It     Res. Norm  Remark
------------------------------------
                       Guess.
    1     8.588e-01  
    2     7.857e-01  
    3     3.691e-01  
    4     3.150e-01  
    5     5.903e-02  
    6     2.682e-02  
    7     7.433e-03  
    8     1.752e-03  
    9     1.170e-03  
   10     5.160e-04  
   11     2.842e-04  
   12     1.401e-04  
   13     1.151e-04  
   14     4.570e-05  
   15     1.414e-05  
   16     4.204e-06  
   17     1.215e-06  
   18     8.222e-07  Converged.
   ... Converged in 18 steps (norm: 8.22239e-07)
------------------------------------
  Two-photon absorbption ...  CPU 174.93 s  wall 47.91 s
  Transition density matrix of state singlet_A_1 printed to ASCII file 'State_singlet_A_1_Transition.txt'
  Transition density matrix of state singlet_A_2 printed to ASCII file 'State_singlet_A_2_Transition.txt'
  Transition density matrix of state singlet_A_3 printed to ASCII file 'State_singlet_A_3_Transition.txt'
  Transition density matrix of state singlet_A_4 printed to ASCII file 'State_singlet_A_4_Transition.txt'
  Transition density matrix of state singlet_A_5 printed to ASCII file 'State_singlet_A_5_Transition.txt'
  Transition density matrix of state singlet_A_6 printed to ASCII file 'State_singlet_A_6_Transition.txt'
  Transition density matrix of state singlet_A_7 printed to ASCII file 'State_singlet_A_7_Transition.txt'
  Transition density matrix of state singlet_A_8 printed to ASCII file 'State_singlet_A_8_Transition.txt'
  Transition density matrix of state singlet_A_9 printed to ASCII file 'State_singlet_A_9_Transition.txt'
  Transition density matrix of state singlet_A_10 printed to ASCII file 'State_singlet_A_10_Transition.txt'
  Transition properties ...  CPU 0.58 s  wall 0.77 s
  Difference density matrix of state singlet_A_1 printed to ASCII file 'State_singlet_A_1_Difference.txt'
  Total density matrix of state singlet_A_1 printed to ASCII file 'State_singlet_A_1_Total.txt'
  Difference density matrix of state singlet_A_2 printed to ASCII file 'State_singlet_A_2_Difference.txt'
  Total density matrix of state singlet_A_2 printed to ASCII file 'State_singlet_A_2_Total.txt'
  Difference density matrix of state singlet_A_3 printed to ASCII file 'State_singlet_A_3_Difference.txt'
  Total density matrix of state singlet_A_3 printed to ASCII file 'State_singlet_A_3_Total.txt'
  Difference density matrix of state singlet_A_4 printed to ASCII file 'State_singlet_A_4_Difference.txt'
  Total density matrix of state singlet_A_4 printed to ASCII file 'State_singlet_A_4_Total.txt'
  Difference density matrix of state singlet_A_5 printed to ASCII file 'State_singlet_A_5_Difference.txt'
  Total density matrix of state singlet_A_5 printed to ASCII file 'State_singlet_A_5_Total.txt'
  Difference density matrix of state singlet_A_6 printed to ASCII file 'State_singlet_A_6_Difference.txt'
  Total density matrix of state singlet_A_6 printed to ASCII file 'State_singlet_A_6_Total.txt'
  Difference density matrix of state singlet_A_7 printed to ASCII file 'State_singlet_A_7_Difference.txt'
  Total density matrix of state singlet_A_7 printed to ASCII file 'State_singlet_A_7_Total.txt'
  Difference density matrix of state singlet_A_8 printed to ASCII file 'State_singlet_A_8_Difference.txt'
  Total density matrix of state singlet_A_8 printed to ASCII file 'State_singlet_A_8_Total.txt'
  Difference density matrix of state singlet_A_9 printed to ASCII file 'State_singlet_A_9_Difference.txt'
  Total density matrix of state singlet_A_9 printed to ASCII file 'State_singlet_A_9_Total.txt'
  Difference density matrix of state singlet_A_10 printed to ASCII file 'State_singlet_A_10_Difference.txt'
  Total density matrix of state singlet_A_10 printed to ASCII file 'State_singlet_A_10_Total.txt'
  Properties ...  CPU 0.72 s  wall 1.01 s
  ISR TDMS ...  CPU 32.58 s  wall 10.00 s
  ISR transition properties ...  CPU 1.04 s  wall 0.36 s
  Sum-over-states TPA ...  CPU 0.00 s  wall 0.00 s

--------------------------------------------------------------------------------
                   State-averaged natural transition orbitals
--------------------------------------------------------------------------------
--------------------------------------------------------------------------------
  SA-NTO decomposition ...  CPU 0.01 s  wall 0.04 s

--------------------------------------------------------------------------------
                             Excited State Summary
--------------------------------------------------------------------------------
--------------------------------------------------------------------------------

  Excited state 1 (singlet, A)                                     [converged]
  ----------------------------------------------------------------------------
  Term symbol:  2 (1) A                                     R^2 =  1.78809e-13

  Total energy:                                            -77.9977237996 a.u.
  Excitation energy:                                               8.730755 eV

  Osc. strength:                                                      0.445995
  Trans. dip. moment [a.u.]:           [  -1.038210,    1.003564,    0.006868]
  <i|r^2|0> [a.u.]:                    [  -6.211404,    0.130414,    0.003415]
  Two-photon absorption cross-section (SoS) [a.u.]:                   0.130530
  Two-photon absorption matrix (SoS) [a.u.]:
                                       |    0.031567    0.075240    0.013951 |
                                       |    0.075240    0.112859    0.007578 |
                                       |    0.013951    0.007578   -0.039209 |
  Two-photon absorption cross-section [a.u.]:                         0.087831
  Two-photon absorption matrix [a.u.]:
                                       |   -0.077971    0.028875    0.014140 |
                                       |    0.028875   -0.002433   -0.004988 |
                                       |    0.014140   -0.004988   -0.061139 |

  Dip. moment [a.u.]:                  [   0.000522,    0.001499,    0.008309]
  Total dipole [Debye]:                                               0.021502
  <r^2> [a.u.]:                        [ 179.595485,   36.177044,   11.932384]
  Total <r^2> [a.u.]:                                               227.704913

  V1^2 = 0.9713, V2^2 = 0.0287

  Important amplitudes:
      occ i     occ j     vir a      vir b          v   
    -----------------------------------------------------
     8 (A) A              9 (A) A                 0.6808
     6 (A) A             14 (A) A                 0.0615
     4 (A) A             10 (A) A                 0.0614
     7 (A) A             16 (A) A                -0.0571
     5 (A) A             13 (A) A                -0.0527
     6 (A) A             23 (A) A                 0.0479
     8 (A) A             20 (A) A                 0.0349
     6 (A) A             19 (A) A                 0.0297
     3 (A) A             12 (A) A                -0.0284
     5 (A) A             22 (A) A                 0.0212
     7 (A) A             11 (A) A                 0.0189
     4 (A) A             24 (A) A                 0.0187
     8 (A) A   8 (A) B   17 (A) A   20 (A) B     -0.0184
     3 (A) A             26 (A) A                -0.0171
     8 (A) A   8 (A) B    9 (A) A   28 (A) B     -0.0168
     7 (A) A             21 (A) A                 0.0156
     6 (A) A             26 (A) A                -0.0152
     3 (A) A             14 (A) A                 0.0143
     6 (A) A             12 (A) A                 0.0136
     3 (A) A   4 (A) B    9 (A) A    9 (A) B     -0.0129
     3 (A) A             19 (A) A                 0.0119
     8 (A) A   8 (A) B   18 (A) A   19 (A) B     -0.0109
     7 (A) A             32 (A) A                 0.0086
     7 (A) A             36 (A) A                -0.0084
     3 (A) A             23 (A) A                 0.0082
     8 (A) A   8 (A) B   25 (A) A   29 (A) B      0.0075
     3 (A) A             27 (A) A                 0.0074
     6 (A) A             22 (A) A                 0.0067
     6 (A) A             40 (A) A                -0.0066
     3 (A) A   6 (A) B    9 (A) A   28 (A) B     -0.0064
     5 (A) A   8 (A) B   11 (A) A    9 (A) B      0.0061
     7 (A) A   8 (A) B   13 (A) A   20 (A) B      0.0060
     5 (A) A   8 (A) B   11 (A) A   20 (A) B     -0.0060
     5 (A) A   7 (A) B    9 (A) A    9 (A) B     -0.0059
     6 (A) A   8 (A) A   19 (A) A   28 (A) A      0.0059
     5 (A) A   8 (A) B   16 (A) A    9 (A) B      0.0059
     5 (A) A             27 (A) A                -0.0059
     6 (A) A             27 (A) A                 0.0059
     6 (A) A             15 (A) A                 0.0058
     3 (A) A   5 (A) B    9 (A) A   25 (A) B     -0.0058
    -----------------------------------------------------

  Density matrix analysis:
  ------------------------
  NOs
    Occupation of frontier NOs:
       0.9489   1.0221
    Number of electrons: 16.000000
    Number of unpaired electrons: n_u =  2.31692, n_u,nl =  2.03337
    NO participation ratio (PR_NO):  2.875389
  
  
  Mulliken Population Analysis
  Atom      Charge (e)              h+              e-           Del q
  --------------------------------------------------------------------
   1 H        0.064155        0.020424       -0.012304        0.008120
   2 C       -0.154769        0.489900       -0.508494       -0.018594
   3 H        0.067162        0.020755       -0.012112        0.008643
   4 C       -0.095654        0.491357       -0.504647       -0.013290
   5 H        0.056485        0.020261       -0.012644        0.007617
   6 H        0.062621        0.020283       -0.012779        0.007505
  --------------------------------------------------------------------
  Sum:       -0.000000        1.062980       -1.062980        0.000000
  
  Multipole moment analysis of the density matrix
    Molecular charge:                      -0.000000
    Number of electrons:                   16.000000
      Center of electronic charge [Ang]: [ -1.579848,  -0.029492,  -0.003949]
    Total nuclear charge:                  16.000000
      Center of nuclear charge [Ang]:    [ -1.579831,  -0.029442,  -0.003675]
    Dipole moment [D]:                     0.021502
      Cartesian components [D]:          [  0.001326,   0.003811,   0.021120]
    RMS size of the density [Ang]:         1.220015
      Cartesian components [Ang]:        [  0.804563,   0.795169,   0.456971]
  
  Exciton analysis of the difference density matrix
    <r_h> [Ang]:                  [ -1.582893,  -0.023946,  -0.007052]
    <r_e> [Ang]:                  [ -1.581911,  -0.024149,  -0.007756]
    |<r_e - r_h>| [Ang]:            0.001224
    Hole size [Ang]:                1.287334
      Cartesian components [Ang]: [  0.726299,   0.719183,   0.782620]
    Electron size [Ang]:            1.463828
      Cartesian components [Ang]: [  0.847251,   0.839281,   0.848862]

  Transition density matrix analysis:
  -----------------------------------
  
  CT numbers (Mulliken)
    omega =     0.9531
    <Phe> =    -0.1602
  
  Exciton analysis of the transition density matrix
    Trans. dipole moment [D]:             1.835111
      Cartesian components [D]:         [ -1.319433,   1.275403,   0.008728]
    <r_h> [Ang]:                        [ -1.585327,  -0.020806,  -0.006349]
    <r_e> [Ang]:                        [ -1.581637,  -0.024616,  -0.008323]
    |<r_e - r_h>| [Ang]:                  0.005659
    Hole size [Ang]:                      1.214416
      Cartesian components [Ang]:       [  0.646392,   0.641204,   0.803642]
    Electron size [Ang]:                  1.486674
      Cartesian components [Ang]:       [  0.857318,   0.848560,   0.868995]
    RMS electron-hole separation [Ang]:   1.937051
      Cartesian components [Ang]:       [  1.096882,   1.086853,   1.169514]
    Covariance(r_h, r_e) [Ang^2]:        -0.033564
    Correlation coefficient:             -0.018591
    Center-of-mass size [Ang]:            0.951036
      Cartesian components [Ang]:       [  0.524999,   0.519894,   0.598795]

  Decomposition into state-averaged NTOs
    H- 0 -> L+ 0: -0.6696 ( 89.7%)
    H- 2 -> L+ 5:  0.0826 (  1.4%)
                   omega =  95.3%
  ----------------------------------------------------------------------------


  Excited state 2 (singlet, A)                                     [converged]
  ----------------------------------------------------------------------------
  Term symbol:  3 (1) A                                     R^2 =  5.57550e-13

  Total energy:                                            -77.9905854661 a.u.
  Excitation energy:                                               8.924999 eV

  Osc. strength:                                                      0.000278
  Trans. dip. moment [a.u.]:           [  -0.009329,   -0.001692,    0.034374]
  <i|r^2|0> [a.u.]:                    [  -0.138128,   -0.082527,    0.165435]
  Two-photon absorption cross-section (SoS) [a.u.]:                   4.719598
  Two-photon absorption matrix (SoS) [a.u.]:
                                       |   -0.069584   -0.061879    0.566482 |
                                       |   -0.061879   -0.064924    0.502959 |
                                       |    0.566482    0.502959    0.124064 |
  Two-photon absorption cross-section [a.u.]:                         0.264093
  Two-photon absorption matrix [a.u.]:
                                       |    0.000160    0.015297   -0.172239 |
                                       |    0.015297    0.016525   -0.050847 |
                                       |   -0.172239   -0.050847   -0.026943 |

  Dip. moment [a.u.]:                  [   0.170256,   -0.109010,    0.017087]
  Total dipole [Debye]:                                               0.515682
  <r^2> [a.u.]:                        [ 178.754498,   34.783862,   13.206198]
  Total <r^2> [a.u.]:                                               226.744559

  V1^2 = 0.9541, V2^2 = 0.0459

  Important amplitudes:
      occ i     occ j     vir a      vir b          v   
    -----------------------------------------------------
     7 (A) A              9 (A) A                 0.6661
     8 (A) A             11 (A) A                 0.1483
     7 (A) A             20 (A) A                 0.0753
     8 (A) A             10 (A) A                -0.0635
     5 (A) A   8 (A) B    9 (A) A    9 (A) B     -0.0308
     8 (A) A             16 (A) A                 0.0280
     8 (A) A             21 (A) A                 0.0177
     5 (A) A             28 (A) A                -0.0147
     4 (A) A   7 (A) B    9 (A) A   19 (A) B     -0.0134
     5 (A) A   7 (A) B    9 (A) A   16 (A) B     -0.0130
     7 (A) A   8 (A) B   20 (A) A   17 (A) B     -0.0105
     7 (A) A   8 (A) A    9 (A) A   28 (A) A      0.0097
     5 (A) A   8 (A) B    9 (A) A   20 (A) B     -0.0093
     4 (A) A   6 (A) B    9 (A) A   16 (A) B      0.0089
     5 (A) A   6 (A) A    9 (A) A   23 (A) A      0.0088
     5 (A) A   6 (A) A    9 (A) A   14 (A) A      0.0087
     6 (A) A              9 (A) A                -0.0087
     8 (A) A   7 (A) B    9 (A) A   28 (A) B     -0.0085
     6 (A) A   7 (A) B    9 (A) A   18 (A) B     -0.0084
     4 (A) A   5 (A) A    9 (A) A   10 (A) A     -0.0083
     5 (A) A   6 (A) B    9 (A) A   19 (A) B      0.0083
     3 (A) A   7 (A) B    9 (A) A   18 (A) B      0.0079
     5 (A) A   6 (A) B    9 (A) A   23 (A) B      0.0077
     5 (A) A   7 (A) A    9 (A) A   16 (A) A     -0.0077
     4 (A) A   8 (A) B    9 (A) A   25 (A) B     -0.0075
     7 (A) A   8 (A) B   17 (A) A   20 (A) B     -0.0074
     4 (A) A   7 (A) B   19 (A) A    9 (A) B     -0.0073
     5 (A) A   5 (A) B    9 (A) A   13 (A) B     -0.0071
     7 (A) A   8 (A) B   19 (A) A   18 (A) B     -0.0069
     4 (A) A   5 (A) B    9 (A) A   18 (A) B      0.0067
     5 (A) A   8 (A) A    9 (A) A   20 (A) A     -0.0067
     7 (A) A   8 (A) B   17 (A) A    9 (A) B     -0.0065
     7 (A) A   7 (A) B   20 (A) A   22 (A) B     -0.0064
     8 (A) A             13 (A) A                -0.0064
     5 (A) A   6 (A) B    9 (A) A   14 (A) B      0.0061
     5 (A) A   7 (A) B   11 (A) A   20 (A) B     -0.0061
     4 (A) A   7 (A) A    9 (A) A   19 (A) A     -0.0061
     4 (A) A   5 (A) B   10 (A) A    9 (A) B      0.0060
     6 (A) A   7 (A) B   18 (A) A    9 (A) B     -0.0058
     5 (A) A              9 (A) A                -0.0057
    -----------------------------------------------------

  Density matrix analysis:
  ------------------------
  NOs
    Occupation of frontier NOs:
       0.9493   1.0612
    Number of electrons: 16.000000
    Number of unpaired electrons: n_u =  2.35783, n_u,nl =  2.06933
    NO participation ratio (PR_NO):  3.080765
  
  
  Mulliken Population Analysis
  Atom      Charge (e)              h+              e-           Del q
  --------------------------------------------------------------------
   1 H        0.187427        0.147740       -0.016349        0.131391
   2 C       -0.327135        0.300673       -0.491633       -0.190960
   3 H        0.157349        0.133465       -0.034636        0.098829
   4 C       -0.281760        0.248215       -0.447611       -0.199396
   5 H        0.125579        0.093196       -0.016485        0.076711
   6 H        0.138540        0.122394       -0.038970        0.083424
  --------------------------------------------------------------------
  Sum:       -0.000000        1.045683       -1.045683       -0.000000
  
  Multipole moment analysis of the density matrix
    Molecular charge:                      -0.000000
    Number of electrons:                   16.000000
      Center of electronic charge [Ang]: [ -1.585462,  -0.025837,  -0.004240]
    Total nuclear charge:                  16.000000
      Center of nuclear charge [Ang]:    [ -1.579831,  -0.029442,  -0.003675]
    Dipole moment [D]:                     0.515682
      Cartesian components [D]:          [  0.432748,  -0.277077,   0.043430]
    RMS size of the density [Ang]:         1.205844
      Cartesian components [Ang]:        [  0.784113,   0.779815,   0.480743]
  
  Exciton analysis of the difference density matrix
    <r_h> [Ang]:                  [ -1.508471,  -0.124543,  -0.005246]
    <r_e> [Ang]:                  [ -1.593369,  -0.068825,  -0.010402]
    |<r_e - r_h>| [Ang]:            0.101679
    Hole size [Ang]:                1.492724
      Cartesian components [Ang]: [  1.041098,   0.964836,   0.461985]
    Electron size [Ang]:            1.486224
      Cartesian components [Ang]: [  0.886367,   0.871132,   0.815072]

  Transition density matrix analysis:
  -----------------------------------
  
  CT numbers (Mulliken)
    omega =     0.9213
    <Phe> =    -0.0114
  
  Exciton analysis of the transition density matrix
    Trans. dipole moment [D]:             0.045316
      Cartesian components [D]:         [ -0.011856,  -0.002150,   0.043684]
    <r_h> [Ang]:                        [ -1.495622,  -0.139051,  -0.004572]
    <r_e> [Ang]:                        [ -1.605440,  -0.059206,  -0.011484]
    |<r_e - r_h>| [Ang]:                  0.135952
    Hole size [Ang]:                      1.519619
      Cartesian components [Ang]:       [  1.067211,   0.982487,   0.452794]
    Electron size [Ang]:                  1.481679
      Cartesian components [Ang]:       [  0.873704,   0.861356,   0.830710]
    RMS electron-hole separation [Ang]:   2.107890
      Cartesian components [Ang]:       [  1.366170,   1.297358,   0.945326]
    Covariance(r_h, r_e) [Ang^2]:         0.039949
    Correlation coefficient:              0.017743
    Center-of-mass size [Ang]:            1.070574
      Cartesian components [Ang]:       [  0.698255,   0.659103,   0.473447]

  Decomposition into state-averaged NTOs
    H- 1 -> L+ 0:  0.6584 ( 86.7%)
    H- 0 -> L+ 2:  0.1468 (  4.3%)
                   omega =  92.1%
  ----------------------------------------------------------------------------


  Excited state 3 (singlet, A)                                     [converged]
  ----------------------------------------------------------------------------
  Term symbol:  4 (1) A                                     R^2 =  1.53859e-13

  Total energy:                                            -77.9829404745 a.u.
  Excitation energy:                                               9.133030 eV

  Osc. strength:                                                      0.022641
  Trans. dip. moment [a.u.]:           [  -0.015926,   -0.021289,    0.316986]
  <i|r^2|0> [a.u.]:                    [  -0.080649,    0.005145,   -0.010263]
  Two-photon absorption cross-section (SoS) [a.u.]:                   0.464279
  Two-photon absorption matrix (SoS) [a.u.]:
                                       |   -0.014176   -0.014261    0.044067 |
                                       |   -0.014261   -0.039667    0.230549 |
                                       |    0.044067    0.230549   -0.024733 |
  Two-photon absorption cross-section [a.u.]:                         0.339678
  Two-photon absorption matrix [a.u.]:
                                       |   -0.035472   -0.003131    0.042190 |
                                       |   -0.003131   -0.055126    0.190079 |
                                       |    0.042190    0.190079   -0.006743 |

  Dip. moment [a.u.]:                  [   0.024913,    0.369572,    0.016939]
  Total dipole [Debye]:                                               0.942473
  <r^2> [a.u.]:                        [ 184.477037,   41.103998,   11.095252]
  Total <r^2> [a.u.]:                                               236.676287

  V1^2 = 0.9579, V2^2 = 0.0421

  Important amplitudes:
      occ i     occ j     vir a      vir b          v   
    -----------------------------------------------------
     8 (A) A             10 (A) A                -0.6848
     7 (A) A              9 (A) A                -0.0692
     8 (A) A             24 (A) A                -0.0499
     8 (A) A             18 (A) A                 0.0333
     4 (A) A              9 (A) A                -0.0248
     8 (A) A   8 (A) B    9 (A) A   12 (A) B      0.0220
     8 (A) A             11 (A) A                 0.0194
     8 (A) A   8 (A) B   10 (A) A   17 (A) B     -0.0170
     5 (A) A   8 (A) B   11 (A) A   10 (A) B     -0.0166
     7 (A) A   8 (A) B   13 (A) A   10 (A) B      0.0142
     8 (A) A             15 (A) A                 0.0137
     6 (A) A   8 (A) A   10 (A) A   15 (A) A     -0.0112
     4 (A) A   8 (A) B   12 (A) A   10 (A) B      0.0111
     6 (A) A   8 (A) B   15 (A) A   10 (A) B      0.0109
     4 (A) A   8 (A) A   10 (A) A   12 (A) A     -0.0107
     7 (A) A   8 (A) B   22 (A) A   10 (A) B     -0.0106
     7 (A) A   8 (A) A   10 (A) A   13 (A) A     -0.0098
     7 (A) A   8 (A) A   10 (A) A   22 (A) A      0.0097
     5 (A) A   8 (A) A   10 (A) A   11 (A) A      0.0096
     6 (A) A   8 (A) B   10 (A) A   10 (A) B      0.0091
     5 (A) A   8 (A) B   21 (A) A   10 (A) B     -0.0091
     6 (A) A   8 (A) A   10 (A) A   18 (A) A      0.0085
     7 (A) A   8 (A) A   12 (A) A   16 (A) A     -0.0082
     3 (A) A   4 (A) B   10 (A) A    9 (A) B      0.0079
     5 (A) A   8 (A) A   10 (A) A   21 (A) A      0.0077
     7 (A) A             20 (A) A                -0.0075
     4 (A) A   8 (A) B   19 (A) A   10 (A) B     -0.0074
     8 (A) A   8 (A) B    9 (A) A   23 (A) B      0.0074
     8 (A) A   8 (A) B   10 (A) A   28 (A) B      0.0073
     8 (A) A             14 (A) A                -0.0072
     7 (A) A   8 (A) B   16 (A) A   12 (A) B      0.0071
     3 (A) A   8 (A) A   10 (A) A   24 (A) A      0.0071
     3 (A) A   8 (A) B   10 (A) A   10 (A) B     -0.0070
     5 (A) A   8 (A) B   10 (A) A   11 (A) B     -0.0070
     8 (A) A   8 (A) B    9 (A) A   19 (A) B     -0.0069
     8 (A) A             12 (A) A                -0.0067
     3 (A) A   8 (A) B   10 (A) A   18 (A) B      0.0067
     8 (A) A             21 (A) A                 0.0065
     6 (A) A   8 (A) B   18 (A) A   10 (A) B     -0.0064
     3 (A) A   6 (A) B   10 (A) A   28 (A) B      0.0061
    -----------------------------------------------------

  Density matrix analysis:
  ------------------------
  NOs
    Occupation of frontier NOs:
       0.9747   0.9911
    Number of electrons: 16.000000
    Number of unpaired electrons: n_u =  2.30921, n_u,nl =  2.02996
    NO participation ratio (PR_NO):  2.747975
  
  
  Mulliken Population Analysis
  Atom      Charge (e)              h+              e-           Del q
  --------------------------------------------------------------------
   1 H       -0.139410        0.056965       -0.252410       -0.195446
   2 C        0.288514        0.540324       -0.115636        0.424689
   3 H       -0.201687        0.054099       -0.314305       -0.260206
   4 C        0.315276        0.516495       -0.118855        0.397641
   5 H       -0.102726        0.054612       -0.206206       -0.151593
   6 H       -0.159968        0.054357       -0.269442       -0.215085
  --------------------------------------------------------------------
  Sum:       -0.000000        1.276853       -1.276853       -0.000000
  
  Multipole moment analysis of the density matrix
    Molecular charge:                      -0.000000
    Number of electrons:                   16.000000
      Center of electronic charge [Ang]: [ -1.580655,  -0.041665,  -0.004235]
    Total nuclear charge:                  16.000000
      Center of nuclear charge [Ang]:    [ -1.579831,  -0.029442,  -0.003675]
    Dipole moment [D]:                     0.942473
      Cartesian components [D]:          [  0.063323,   0.939357,   0.043056]
    RMS size of the density [Ang]:         1.281419
      Cartesian components [Ang]:        [  0.854522,   0.847147,   0.440646]
  
  Exciton analysis of the difference density matrix
    <r_h> [Ang]:                  [ -1.571739,  -0.040782,  -0.005988]
    <r_e> [Ang]:                  [ -1.581030,  -0.193494,  -0.010150]
    |<r_e - r_h>| [Ang]:            0.153051
    Hole size [Ang]:                1.415611
      Cartesian components [Ang]: [  0.837364,   0.827416,   0.786229]
    Electron size [Ang]:            2.075573
      Cartesian components [Ang]: [  1.377796,   1.373028,   0.724208]

  Transition density matrix analysis:
  -----------------------------------
  
  CT numbers (Mulliken)
    omega =     0.9248
    <Phe> =    -0.0112
  
  Exciton analysis of the transition density matrix
    Trans. dipole moment [D]:             0.404263
      Cartesian components [D]:         [ -0.020240,  -0.027056,   0.402849]
    <r_h> [Ang]:                        [ -1.578756,  -0.019707,  -0.006799]
    <r_e> [Ang]:                        [ -1.583455,  -0.245060,  -0.012071]
    |<r_e - r_h>| [Ang]:                  0.225464
    Hole size [Ang]:                      1.216505
      Cartesian components [Ang]:       [  0.639667,   0.632169,   0.819191]
    Electron size [Ang]:                  2.283590
      Cartesian components [Ang]:       [  1.517565,   1.507942,   0.798680]
    RMS electron-hole separation [Ang]:   2.586921
      Cartesian components [Ang]:       [  1.639271,   1.643050,   1.142513]
    Covariance(r_h, r_e) [Ang^2]:         0.026671
    Correlation coefficient:              0.009601
    Center-of-mass size [Ang]:            1.298847
      Cartesian components [Ang]:       [  0.827219,   0.821314,   0.572848]

  Decomposition into state-averaged NTOs
    H- 0 -> L+ 1: -0.6755 ( 91.3%)
                   omega =  92.5%
  ----------------------------------------------------------------------------


  Excited state 4 (singlet, A)                                     [converged]
  ----------------------------------------------------------------------------
  Term symbol:  5 (1) A                                     R^2 =  2.00966e-13

  Total energy:                                            -77.9607448530 a.u.
  Excitation energy:                                               9.737004 eV

  Osc. strength:                                                      0.000404
  Trans. dip. moment [a.u.]:           [  -0.003680,   -0.002304,    0.040921]
  <i|r^2|0> [a.u.]:                    [  -0.004744,    0.019886,   -0.035981]
  Two-photon absorption cross-section (SoS) [a.u.]:                 131.863997
  Two-photon absorption matrix (SoS) [a.u.]:
                                       |    0.330104    0.337920   -2.822757 |
                                       |    0.337920    0.357837   -2.836605 |
                                       |   -2.822757   -2.836605   -0.687047 |
  Two-photon absorption cross-section [a.u.]:                        78.957421
  Two-photon absorption matrix [a.u.]:
                                       |    0.275766    0.264697   -2.234145 |
                                       |    0.264697    0.250035   -2.144456 |
                                       |   -2.234145   -2.144456   -0.529592 |

  Dip. moment [a.u.]:                  [  -0.331716,   -0.183913,   -0.039223]
  Total dipole [Debye]:                                               0.969195
  <r^2> [a.u.]:                        [ 183.067188,   40.610312,   10.803971]
  Total <r^2> [a.u.]:                                               234.481471

  V1^2 = 0.9632, V2^2 = 0.0368

  Important amplitudes:
      occ i     occ j     vir a      vir b          v   
    -----------------------------------------------------
     8 (A) A             11 (A) A                -0.6687
     7 (A) A              9 (A) A                 0.1479
     8 (A) A             21 (A) A                -0.0773
     8 (A) A             16 (A) A                -0.0672
     8 (A) A             10 (A) A                -0.0342
     8 (A) A             13 (A) A                 0.0192
     8 (A) A   8 (A) B    9 (A) A   13 (A) B      0.0166
     5 (A) A   8 (A) B   11 (A) A   11 (A) B     -0.0156
     8 (A) A   8 (A) B   11 (A) A   17 (A) B     -0.0137
     7 (A) A             20 (A) A                 0.0134
     7 (A) A   8 (A) B   13 (A) A   11 (A) B      0.0127
     8 (A) A             12 (A) A                -0.0117
     4 (A) A   8 (A) B   12 (A) A   11 (A) B      0.0110
     8 (A) A   8 (A) B    9 (A) A   22 (A) B     -0.0108
     5 (A) A   8 (A) A   11 (A) A   21 (A) A      0.0108
     7 (A) A   8 (A) A   11 (A) A   22 (A) A      0.0093
     6 (A) A   8 (A) B   10 (A) A   11 (A) B      0.0090
     6 (A) A   8 (A) B   15 (A) A   11 (A) B      0.0090
     7 (A) A   8 (A) B   22 (A) A   11 (A) B     -0.0087
     3 (A) A   4 (A) B   11 (A) A    9 (A) B      0.0083
     6 (A) A   8 (A) A   11 (A) A   15 (A) A     -0.0080
     3 (A) A   8 (A) B   11 (A) A   18 (A) B      0.0079
     7 (A) A   8 (A) A   13 (A) A   16 (A) A     -0.0079
     7 (A) A   8 (A) A   11 (A) A   13 (A) A     -0.0075
     4 (A) A   8 (A) B   19 (A) A   11 (A) B     -0.0069
     5 (A) A   8 (A) B   21 (A) A   11 (A) B     -0.0068
     5 (A) A   8 (A) B    9 (A) A    9 (A) B     -0.0065
     4 (A) A   8 (A) A   11 (A) A   12 (A) A     -0.0062
     8 (A) A             24 (A) A                -0.0061
     3 (A) A   6 (A) B   11 (A) A   28 (A) B      0.0060
     6 (A) A   8 (A) A   11 (A) A   18 (A) A      0.0058
     6 (A) A   8 (A) B   18 (A) A   11 (A) B     -0.0057
     7 (A) A   8 (A) B   16 (A) A   13 (A) B      0.0056
     3 (A) A   8 (A) B   11 (A) A   30 (A) B      0.0056
     3 (A) A   5 (A) B   11 (A) A   25 (A) B      0.0054
     6 (A) A              9 (A) A                -0.0054
     3 (A) A   8 (A) A   11 (A) A   18 (A) A      0.0054
     8 (A) A   8 (A) B   20 (A) A   22 (A) B     -0.0054
     5 (A) A   8 (A) B   10 (A) A   10 (A) B     -0.0053
     7 (A) A   8 (A) B   12 (A) A   10 (A) B      0.0053
    -----------------------------------------------------

  Density matrix analysis:
  ------------------------
  NOs
    Occupation of frontier NOs:
       0.9422   1.0261
    Number of electrons: 16.000000
    Number of unpaired electrons: n_u =  2.32228, n_u,nl =  2.04879
    NO participation ratio (PR_NO):  2.913112
  
  
  Mulliken Population Analysis
  Atom      Charge (e)              h+              e-           Del q
  --------------------------------------------------------------------
   1 H       -0.196504        0.047433       -0.299972       -0.252540
   2 C        0.224630        0.504799       -0.143995        0.360804
   3 H       -0.062433        0.044907       -0.165860       -0.120953
   4 C        0.284678        0.490374       -0.123332        0.367042
   5 H       -0.159426        0.044891       -0.253185       -0.208294
   6 H       -0.090944        0.045606       -0.191666       -0.146060
  --------------------------------------------------------------------
  Sum:       -0.000000        1.178009       -1.178009        0.000000
  
  Multipole moment analysis of the density matrix
    Molecular charge:                      -0.000000
    Number of electrons:                   16.000000
      Center of electronic charge [Ang]: [ -1.568860,  -0.023360,  -0.002377]
    Total nuclear charge:                  16.000000
      Center of nuclear charge [Ang]:    [ -1.579831,  -0.029442,  -0.003675]
    Dipole moment [D]:                     0.969195
      Cartesian components [D]:          [ -0.843138,  -0.467460,  -0.099694]
    RMS size of the density [Ang]:         1.281394
      Cartesian components [Ang]:        [  0.861789,   0.842738,   0.434837]
  
  Exciton analysis of the difference density matrix
    <r_h> [Ang]:                  [ -1.566924,  -0.025959,  -0.005131]
    <r_e> [Ang]:                  [ -1.416792,   0.057147,   0.015587]
    |<r_e - r_h>| [Ang]:            0.172845
    Hole size [Ang]:                1.394184
      Cartesian components [Ang]: [  0.819920,   0.804581,   0.790019]
    Electron size [Ang]:            2.105976
      Cartesian components [Ang]: [  1.454105,   1.366568,   0.673204]

  Transition density matrix analysis:
  -----------------------------------
  
  CT numbers (Mulliken)
    omega =     0.9292
    <Phe> =    -0.0143
  
  Exciton analysis of the transition density matrix
    Trans. dipole moment [D]:             0.052298
      Cartesian components [D]:         [ -0.004677,  -0.002928,   0.052006]
    <r_h> [Ang]:                        [ -1.579841,  -0.027074,  -0.007157]
    <r_e> [Ang]:                        [ -1.382445,   0.069651,   0.019265]
    |<r_e - r_h>| [Ang]:                  0.221403
    Hole size [Ang]:                      1.227913
      Cartesian components [Ang]:       [  0.659751,   0.648502,   0.807431]
    Electron size [Ang]:                  2.239487
      Cartesian components [Ang]:       [  1.547603,   1.452521,   0.714429]
    RMS electron-hole separation [Ang]:   2.552662
      Cartesian components [Ang]:       [  1.685532,   1.585282,   1.077938]
    Covariance(r_h, r_e) [Ang^2]:         0.028003
    Correlation coefficient:              0.010183
    Center-of-mass size [Ang]:            1.282486
      Cartesian components [Ang]:       [  0.845376,   0.799528,   0.539318]

  Decomposition into state-averaged NTOs
    H- 0 -> L+ 2: -0.6615 ( 87.5%)
    H- 1 -> L+ 0:  0.1459 (  4.3%)
                   omega =  92.9%
  ----------------------------------------------------------------------------


  Excited state 5 (singlet, A)                                     [converged]
  ----------------------------------------------------------------------------
  Term symbol:  6 (1) A                                     R^2 =  5.12978e-13

  Total energy:                                            -77.9453512526 a.u.
  Excitation energy:                                              10.155885 eV

  Osc. strength:                                                      0.000331
  Trans. dip. moment [a.u.]:           [   0.001250,   -0.005064,    0.036096]
[...]
    16   -1.724908705045e-03
    17   -1.812104817708e-03
    18   -1.296161417341e-04
    19   -2.879694220884e-03
    20    1.647884893024e-02
    21    1.026317508011e+00
    22    3.174560217259e-04
    23    1.440775722267e-02
    24    9.075704326253e-04
    25    6.455216661990e-02
    26   -4.440764204031e-02
    27   -1.347038404837e+00
    28    1.056344181283e-01
    29   -8.227531186707e-02
    30   -1.009036067145e-03
    31    3.642097596792e-01
    32   -3.044472708401e-01
    33   -5.777067384349e-03
    34    1.444964887377e-02
    35   -1.288695475063e-03
    36   -2.071177944292e-03
    37    1.855131175208e-03
    38   -2.768417878355e-03
    39    8.091420911078e-03
    40    8.375597491086e-01
    41    1.567552200673e-03
    42   -1.353843553498e-02
    43   -8.950457895530e-04
    44    1.436534999209e-02
    45    9.007397471078e-01
    46    1.339396212824e-02
    47   -1.661610521849e-05
    48    6.389263715613e-04
Sym=X
Ene= 0.230939
Spin=Alpha
Occup=0
     1    3.010496058054e-02
     2    1.229419524181e+00
     3   -1.445813306114e-02
     4   -3.612584730504e-03
     5   -1.023258484658e-03
     6    7.305503452625e-03
     7   -4.567052100544e-03
     8   -1.664348104053e-01
     9   -1.695320816174e-01
    10   -1.577831052236e-01
    11   -1.965802856309e-02
    12   -5.411072315042e-01
    13   -5.103709152945e-01
    14   -6.322337972854e-02
    15    2.545385925516e-03
    16   -3.736602271634e-04
    17   -3.011013032344e-04
    18   -5.450162144768e-04
    19   -1.147590874168e-03
    20   -2.854015378546e-02
    21   -1.025775738330e+00
    22   -2.338829883172e-03
    23   -1.072259768281e-02
    24   -8.502020034005e-04
    25   -1.610596033715e-03
    26    1.093722596246e-03
    27    7.617004745691e-04
    28   -1.509197573633e-01
    29   -1.544976742914e-01
    30   -1.806002669464e-02
    31   -5.316345188806e-01
    32   -5.902993515959e-01
    33   -6.680140873816e-02
    34   -2.770202191743e-04
    35   -3.295969009980e-04
    36    9.653577527108e-05
    37   -3.542356966511e-03
    38   -1.166682966147e-04
    39    2.691439449757e-02
    40    1.207002343044e+00
    41   -3.282396617105e-03
    42   -1.335964420859e-02
    43   -1.065463834055e-03
    44   -3.433451785038e-02
    45   -1.203348564093e+00
    46   -1.310791892157e-02
    47   -3.542185137682e-03
    48   -9.017255942416e-04
Sym=X
Ene= 0.236365
Spin=Alpha
Occup=0
     1   -2.145397161839e-02
     2   -9.452323618701e-01
     3    1.378566637715e-02
     4    9.144477480575e-03
     5    1.497822623886e-03
     6   -8.220048061286e-02
     7    7.654002587938e-02
     8    1.430700340092e+00
     9    4.793306134506e-02
    10   -6.448691570214e-02
    11    9.431600373532e-04
    12    2.037849404628e-01
    13   -2.423615689916e-01
    14    5.836314140734e-03
    15   -1.909342817112e-02
    16    2.769027036889e-03
    17    2.593851261774e-03
    18   -6.281184928602e-04
    19    1.145183025197e-02
    20   -2.162918070785e-02
    21   -1.050818437836e+00
    22   -9.073431187852e-03
    23   -1.496348263405e-02
    24   -1.309097410198e-03
    25    9.138710676912e-02
    26   -8.784676104238e-02
    27   -1.652449982176e+00
    28    5.511944809002e-02
    29   -6.125926316845e-02
    30   -4.330314592351e-03
    31    2.216138139720e-01
    32   -2.710022715348e-01
    33   -1.899617155900e-02
    34    2.309454669853e-02
    35   -2.724596904235e-03
    36   -3.742462671662e-03
    37    1.418351514190e-03
    38   -1.345757278088e-02
    39    1.935584617350e-02
    40    1.224392315669e+00
    41   -7.976356946938e-03
    42   -1.936502415796e-02
    43   -1.938048188623e-03
    44    1.558973093169e-02
    45    1.055482771665e+00
    46    1.613676062918e-02
    47    8.904170961029e-03
    48    1.241063727275e-03
Sym=X
Ene= 0.302615
Spin=Alpha
Occup=0
     1    1.323054456368e-02
     2   -1.610476206824e+00
     3    2.283151100972e-02
     4   -1.189961198750e-03
     5    1.300824514533e-03
     6    2.778633422633e-04
     7    1.873044321479e-04
     8   -1.598052043330e-02
     9    1.374715807321e-01
    10    1.448008560087e-01
    11    1.681865537970e-02
    12    1.112801145473e+00
    13    1.140626728114e+00
    14    1.344450615763e-01
    15    4.609331595630e-05
    16    2.089354289372e-03
    17   -1.576636398428e-03
    18    3.083202969201e-02
    19    6.364721574713e-04
    20   -1.420587406923e-02
    21    1.616802020398e+00
    22   -1.508673190586e-03
    23    2.286222357017e-02
    24    1.257031701530e-03
    25   -3.685904977351e-04
    26    7.261440871412e-04
    27   -4.987524881729e-02
    28   -1.342127255796e-01
    29   -1.405587421352e-01
    30   -1.637766355949e-02
    31   -1.142098813695e+00
    32   -1.209013666509e+00
    33   -1.405822115148e-01
    34    6.524211291054e-04
    35    1.384563669804e-03
    36   -3.023193393121e-03
    37    3.653546096792e-02
    38    2.840576929664e-04
    39   -3.193896438337e-02
    40    1.729583089743e+00
    41    7.079692465785e-04
    42   -2.368423917421e-02
    43   -1.625428923105e-03
    44    2.343140722233e-02
    45   -1.664497470131e+00
    46   -2.352332543221e-02
    47    5.817276952479e-04
    48   -1.093337723948e-03
Sym=X
Ene= 0.461771
Spin=Alpha
Occup=0
     1   -9.515705247582e-02
     2   -6.972246566548e-01
     3   -1.440012094604e-02
     4   -7.666205874127e-03
     5   -1.216884857051e-03
     6    6.392755763432e-02
     7    8.240756107743e-03
     8   -3.657176224056e+00
     9    1.161095773164e-01
    10   -1.120190053812e-01
    11    1.414510473980e-05
    12    2.355411111465e+00
    13   -2.294854026258e+00
    14   -1.260375462247e-02
    15    4.810460258205e-02
    16   -2.709297940724e-03
    17   -4.061840265500e-03
    18   -1.979163475356e-03
    19    2.691247311621e-02
    20   -7.943823085954e-02
    21   -7.071694963325e-01
    22    9.195623651862e-03
    23    1.336308426602e-02
    24    1.433333014685e-03
    25   -6.054237009886e-02
    26   -2.332389503134e-02
    27    3.579637130353e+00
    28    9.176059766435e-02
    29   -8.572485865577e-02
    30   -2.922294525085e-03
    31    2.397942382148e+00
    32   -2.387651313581e+00
    33   -3.119498541336e-02
    34   -5.714873150552e-02
    35    4.758375414345e-03
    36    5.491128598635e-03
    37    2.217755464034e-03
    38   -1.295687410000e-02
    39    1.268978682524e-01
    40    7.499335648431e-01
    41    1.217894926535e-02
    42    1.633767817935e-02
    43    1.638370670610e-03
    44    1.553602283634e-01
    45    6.205477562958e-01
    46   -1.701622503126e-02
    47   -9.869020578127e-03
    48   -1.646826837242e-03
Sym=X
Ene= 0.580580
Spin=Alpha
Occup=0
     1   -2.430813409027e-01
     2   -1.207586161023e-01
     3    2.336410526902e-02
     4   -3.109724302995e-02
     5   -6.408126646161e-04
     6    1.478408310864e-02
     7    1.747252221551e-01
     8    3.729167484113e-02
     9   -2.941442720505e-01
    10    2.766178500521e-01
    11    2.164245141335e-03
    12    9.916603341145e-01
    13   -9.331098718147e-01
    14   -5.776126501195e-03
    15    1.205629883528e-03
    16   -4.374300379261e-03
    17   -3.049439252653e-03
    18   -6.634469556525e-03
    19   -5.979348763515e-02
    20   -2.004450163983e-01
    21   -1.667882638851e-01
    22    3.333764208754e-02
    23   -2.733831421092e-02
    24    1.746296131499e-04
    25   -1.594299627908e-03
    26    1.635776453803e-01
    27    7.892078996572e-01
    28    3.206779856536e-01
    29   -3.025768082546e-01
    30   -2.320380620885e-03
    31   -4.971095372620e-01
    32    4.927926732132e-01
    33    7.781685960320e-03
    34    6.779918191131e-04
    35   -3.929748599960e-03
    36   -3.364659360449e-03
    37    3.242111311966e-04
    38   -5.939616098192e-02
    39   -2.490515610170e-01
    40    1.478242541215e-02
    41   -2.050286073098e-02
    42    1.580370267660e-02
    43    9.310119581474e-05
    44   -2.410527939446e-01
    45    7.398810394533e-02
    46   -2.017814159654e-02
    47    2.464670078996e-02
    48    7.009691889177e-04
Sym=X
Ene= 0.608991
Spin=Alpha
Occup=0
     1    5.210025392500e-01
     2   -3.448333697133e-01
     3    6.008819656218e-02
     4   -3.848971092664e-02
     5    1.128491183459e-03
     6   -5.764644941776e-04
     7    8.428677054396e-03
     8   -1.033248642393e-01
     9    1.921731832617e-02
    10    4.009697822347e-02
    11    3.751311308473e-03
    12   -1.367374659943e-01
    13   -3.275125355875e-01
    14   -2.830124714949e-02
    15    5.890913201400e-03
    16    9.489085660085e-03
    17   -9.708553458670e-03
    18    1.599819541379e-01
    19    4.726127655070e-03
    20   -5.717873575927e-01
    21    3.213157148839e-01
    22   -3.608831950445e-02
    23    6.084744076238e-02
    24    1.664960307078e-03
    25    1.232612249940e-03
    26    1.302470380791e-02
    27    6.105585582456e-02
    28    4.347320039821e-02
    29    4.133783330159e-02
    30    5.034981947237e-03
    31   -2.209941047409e-01
    32   -3.775589692631e-01
    33   -3.706612843793e-02
    34   -6.343461488249e-04
    35   -6.724324701013e-03
    36    9.737290783879e-03
    37   -1.367706686640e-01
    38   -1.146649851258e-02
    39    4.885875002726e-01
    40   -1.102616389009e-01
    41   -3.995632791850e-02
    42    5.688547651101e-02
    43    1.951165300140e-03
    44   -4.929323277948e-01
    45    2.043874325272e-01
    46    5.645753206564e-02
    47   -3.981947646200e-02
    48    9.174708925311e-06
Sym=X
Ene= 0.688545
Spin=Alpha
Occup=0
     1    6.467306899466e-03
     2   -2.487097314219e-03
     3    2.324444342910e-03
     4    1.628284929160e-03
     5   -1.647880032750e-02
     6    4.106280494114e-04
     7    4.990643408797e-03
     8   -7.343257634739e-04
     9    3.498825499621e-02
    10    4.506252369675e-02
    11   -6.709827223207e-01
    12   -3.598722863845e-02
    13   -3.711872169131e-02
    14    6.093182883817e-01
    15   -3.524632374111e-03
    16    8.122748799692e-02
    17   -7.918691924746e-02
    18   -9.579637539213e-03
    19   -1.034554186419e-05
    20    6.180975352583e-03
    21   -2.673532811316e-03
    22    3.204022915708e-04
    23   -4.024754902900e-04
    24   -1.590398570014e-02
    25    2.503770731654e-04
    26    6.509436639197e-03
    27   -7.502641542500e-03
    28    3.748592642973e-02
    29    4.259461154392e-02
    30   -6.691810564676e-01
    31   -3.763416433918e-02
    32   -3.633234492595e-02
    33    6.151880635000e-01
    34   -5.893088876956e-04
    35   -8.091828888623e-02
    36    8.056773193527e-02
    37    9.525846101552e-03
    38    1.578888636026e-03
    39    3.547149990069e-03
    40   -4.471933893244e-03
    41    1.596551062694e-03
    42    3.188376177699e-03
    43   -2.418556911663e-02
    44    3.530371527943e-03
    45   -4.857511359908e-03
    46   -4.879684588242e-04
    47    8.164235048668e-04
    48   -1.847349438355e-02
Sym=X
Ene= 0.704513
Spin=Alpha
Occup=0
     1   -5.415317694179e-01
     2    1.683145241246e-01
     3   -8.351998798907e-02
     4   -4.328446803934e-02
     5   -7.667426546990e-03
     6   -4.714703413383e-02
     7   -2.694125002655e-01
     8    2.278514313775e-01
     9    1.807356373439e-01
    10   -1.870932567355e-01
    11   -9.560292770526e-03
    12    8.548166825035e-02
    13   -3.525079304994e-02
    14    9.025707274220e-03
    15    2.062250380543e-01
    16   -2.385453896003e-02
    17   -2.730974772066e-02
    18    1.995367209609e-03
    19   -6.824497144626e-02
    20   -5.207791831426e-01
    21    1.983144012184e-01
    22    4.213866453249e-02
    23    8.632225501794e-02
    24    7.591986263832e-03
    25   -4.424596837683e-02
    26   -3.237591656593e-01
    27    6.963608477813e-01
    28   -2.044868735229e-01
    29    1.816982922027e-01
    30   -7.419089404827e-03
    31    1.842239898683e-01
    32   -1.406914099492e-01
    33    1.182710458659e-02
    34    1.733465630550e-01
    35   -2.173051413090e-02
    36   -2.446498241796e-02
    37    4.351128279064e-03
    38   -8.404457106432e-02
    39   -4.429462012667e-01
    40    1.114926071904e-01
    41   -3.907690470090e-02
    42   -7.429190601702e-02
    43   -7.257221753797e-03
    44   -4.505839083541e-01
    45    1.779378793827e-01
    46    6.934534212763e-02
    47    4.593899047480e-02
    48    6.561707770716e-03
Sym=X
Ene= 0.775936
Spin=Alpha
Occup=0
     1    5.283669621541e-01
     2   -4.858427462028e-01
     3    1.008730997183e-01
     4    2.516076352259e-02
     5    7.170180140014e-03
     6    8.408358731230e-02
     7   -2.887567664438e-01
     8   -5.153731767156e-01
     9    1.179141302517e-01
    10   -1.182424956377e-01
    11    6.728741064540e-03
    12    2.555761659802e-01
    13   -2.727700177327e-01
    14   -2.019628753687e-02
    15   -1.827449857020e-01
    16    1.862436662048e-02
    17    1.934893168421e-02
    18    6.595186660782e-03
    19   -3.981471044259e-04
    20    5.186906279484e-01
    21   -4.855341931884e-01
    22   -2.093815092064e-02
    23   -9.675715239957e-02
    24   -7.419803094817e-03
    25   -9.301899682813e-02
    26    1.631732346902e-01
    27    6.327778657850e-01
    28    5.539909739403e-02
    29   -1.043936072246e-01
    30   -1.070643170808e-02
    31    3.826945572313e-01
    32   -2.582440253368e-01
    33    2.043408166718e-02
    34    2.204191351526e-01
    35   -2.082041998672e-02
    36   -2.692998296855e-02
    37   -7.667123246051e-03
    38   -1.899410021516e-02
    39   -5.250939951899e-01
    40    3.978997929405e-01
    41   -2.202823497425e-02
    42   -1.115192424708e-01
    43   -8.585322298909e-03
    44   -5.733190203578e-01
    45    5.513206937036e-01
    46    1.228316299743e-01
    47    2.935269250160e-02
    48    8.348505369202e-03
Sym=X
Ene= 0.807218
Spin=Alpha
Occup=0
     1   -4.178584266116e-03
     2    6.484716426688e-03
     3   -3.155877101310e-03
     4   -1.388819716450e-03
     5    2.821410515154e-02
     6   -8.470716872655e-04
     7    3.599895917316e-03
     8   -2.174410266101e-03
     9   -4.521947360728e-02
    10   -4.591364988034e-02
    11    7.649994384786e-01
    12    6.025752810277e-02
    13    7.331217352688e-02
    14   -1.121723014947e+00
    15    1.534809419303e-03
    16    6.382220944182e-02
    17   -6.314522537602e-02
    18   -7.731180573397e-03
    19    4.856572107835e-04
    20   -4.099355552068e-03
    21    5.991119245882e-03
    22   -1.935848536177e-03
    23   -2.063568230859e-04
    24    2.599342180556e-02
    25    9.161314420156e-04
    26   -1.869610332779e-04
    27   -8.393902328161e-04
    28    3.838912633152e-02
    29    5.330505686821e-02
    30   -7.620746783006e-01
    31   -6.296948830458e-02
    32   -7.319753461743e-02
    33    1.124982095739e+00
    34   -4.346251907299e-03
    35    6.468235194286e-02
    36   -6.271119348971e-02
    37   -7.390123711838e-03
    38   -1.296884377699e-03
    39    4.700657309589e-03
    40   -5.451568383671e-03
    41    1.471957530894e-03
    42    4.598007332496e-03
    43   -3.734026441703e-02
    44    5.258794009102e-03
    45   -7.781336176425e-03
    46   -6.091131051019e-04
    47    2.553802195540e-03
    48   -3.389959227093e-02
Sym=X
Ene= 0.858228
Spin=Alpha
Occup=0
     1    2.551381486673e-02
     2   -1.123753059804e+00
     3    1.581325241671e-01
     4    4.885211456753e-02
     5    1.208154396784e-02
     6   -2.013544410077e-03
     7    3.255447285682e-02
     8   -3.305027691879e-02
     9   -4.732729506990e-01
    10   -4.661580653913e-01
    11   -5.573530377177e-02
    12    1.039164048129e+00
    13    1.042184296606e+00
    14    1.239751646284e-01
    15    2.401240596898e-03
    16    1.371904041291e-02
    17   -1.493135962012e-02
    18    2.387661631893e-01
    19    1.516914121106e-02
    20   -3.934255575620e-02
    21    1.125694520979e+00
    22    4.181322245325e-02
    23    1.633202370465e-01
    24    1.257965237863e-02
    25    4.693971350045e-03
    26    2.131114366912e-02
    27   -8.144468581597e-03
    28   -3.802134954909e-01
    29   -3.660593813581e-01
    30   -4.447253496549e-02
    31    8.720562700866e-01
    32    8.740882021474e-01
    33    1.040476106139e-01
    34   -1.530617265381e-02
    35   -1.088366397498e-02
    36    1.539596857150e-02
    37   -2.157238803201e-01
    38   -1.412534167391e-02
    39    7.736129918332e-03
    40   -1.010753141122e+00
    41    5.374839349584e-02
    42    1.353576676382e-01
    43    1.223855080900e-02
    44    2.023726484025e-02
    45    1.015247594490e+00
    46    1.271763827801e-01
    47    6.289803465391e-02
    48    1.042000141457e-02
Sym=X
Ene= 0.928294
Spin=Alpha
Occup=0
     1    1.451993780738e-01
     2   -1.074745177467e+00
     3    1.658065380261e-01
     4   -1.816616838235e-02
     5    8.684146424487e-03
     6    3.908669581585e-03
     7   -4.044385971096e-02
     8    1.366979105429e-01
     9   -4.064818049109e-01
    10   -4.958711515200e-01
    11   -5.407809272521e-02
    12    1.181032162591e+00
    13    1.439543728083e+00
    14    1.568754275677e-01
    15   -1.025279186886e-02
    16    6.673053289348e-03
    17   -4.155028660246e-03
    18    9.319172162758e-02
    19   -1.460068660133e-02
    20   -1.296987989541e-01
    21    1.143515286212e+00
    22   -1.554902628087e-02
    23    1.615814011351e-01
    24    8.766076967274e-03
    25   -6.627286734108e-03
    26   -7.397996446834e-02
    27    2.331838332900e-02
    28    5.555678050928e-01
    29    4.687600855649e-01
    30    6.020681068978e-02
    31   -1.611107822787e+00
    32   -1.411152558557e+00
    33   -1.779185156320e-01
    34    1.669651422485e-02
    35    7.555301600090e-03
    36   -1.108085433524e-02
    37    1.498978099289e-01
    38    4.128411038760e-02
    39   -1.434197906003e-01
    40    1.249482912317e+00
    41    1.902595060339e-02
    42   -1.870346117875e-01
    43   -1.176637258152e-02
    44    1.367573578910e-01
    45   -1.422432823455e+00
    46   -2.045585447514e-01
    47   -1.348404575265e-02
    48   -1.096566513153e-02
Sym=X
Ene= 0.970391
Spin=Alpha
Occup=0
     1   -6.157562673052e-02
     2    1.022714399619e+00
     3   -1.076957489251e-01
     4   -9.625006769437e-02
     5   -1.280147904821e-02
     6    2.807995852298e-02
     7    3.159906373803e-01
     8    4.004735466663e-01
     9    5.239591863969e-01
    10   -4.439084698845e-01
    11    3.310540535042e-03
    12   -1.622910907535e+00
    13    1.324496349301e+00
    14   -1.262623803657e-02
    15   -6.027552292184e-02
    16   -1.325810914098e-02
    17   -9.859365336970e-03
    18    6.363480199664e-03
    19   -2.941586401511e-01
    20   -7.226749875165e-02
    21    8.458569927164e-01
    22    9.256186523057e-02
    23    8.919171128344e-02
    24    1.019869527299e-02
    25   -2.585812332719e-02
    26   -1.854324720027e-01
    27   -6.205983606041e-01
    28    4.127933643243e-01
    29   -4.954159405500e-01
    30   -1.407406211899e-02
    31   -1.222059373332e+00
    32    1.552521094205e+00
    33    4.607174621216e-02
    34    5.678604853176e-02
    35    1.168323409296e-02
    36    1.222020757944e-02
    37   -3.097350952500e-02
    38    2.932530828798e-01
    39    5.385308380654e-02
    40   -1.020208795693e+00
    41    9.006366641121e-02
    42    1.043621010903e-01
    43    1.267750191425e-02
    44    4.490965851737e-02
    45   -6.717053580518e-01
    46   -5.528599762994e-02
    47   -9.405162185406e-02
    48   -8.133453432047e-03
[5D]

======= END OF MOLDEN-FORMATTED INPUT FILE =======


        *************************************************************
        *                                                           *
        *  Thank you very much for using Q-Chem.  Have a nice day.  *
        *                                                           *
        *************************************************************


