                  Welcome to Q-Chem
     A Quantum Leap Into The Future Of Chemistry


 Q-Chem 5.4 (devel), Q-Chem, Inc., Pleasanton, CA (2021)

 E. Epifanovsky,  A. T. B. Gilbert,  Xintian Feng,  Joonho Lee,  Yuezhi Mao,  
 N. Mardirossian,  P. Pokhilko,  A. White,  M. Wormit,  M. P. Coons,  
 A. L. Dempwolff,  Zhengting Gan,  D. Hait,  P. R. Horn,  L. D. Jacobson,  
 I. Kaliman,  J. Kussmann,  A. W. Lange,  Ka Un Lao,  D. S. Levine,  Jie Liu,  
 S. C. McKenzie,  A. F. Morrison,  K. Nanda,  F. Plasser,  D. R. Rehn,  
 M. L. Vidal,  Zhi-Qiang You,  Ying Zhu,  B. Alam,  B. Albrecht,  
 A. Aldossary,  E. Alguire,  J. H. Andersen,  D. Barton,  K. Begam,  A. Behn,  
 Y. A. Bernard,  E. J. Berquist,  H. Burton,  A. Carreras,  K. Carter-Fenk,  
 R. Chakraborty,  A. D. Chien,  K. D. Closser,  V. Cofer-Shabica,  
 S. Dasgupta,  Jia Deng,  M. de Wergifosse,  M. Diedenhofen,  Hainam Do,  
 S. Ehlert,  Po-Tung Fang,  S. Fatehi,  Qingguo Feng,  T. Friedhoff,  
 J. Gayvert,  Qinghui Ge,  G. Gidofalvi,  M. Goldey,  J. Gomes,  
 C. Gonzalez-Espinoza,  S. Gulania,  A. Gunina,  M. W. D. Hanson-Heine,  
 P. H. P. Harbach,  A. W. Hauser,  M. F. Herbst,  M. Hernandez Vera,  
 M. Hodecker,  Z. C. Holden,  S. Houck,  Xunkun Huang,  Kerwin Hui,  
 B. C. Huynh,  M. Ivanov,  Hyunjun Ji,  Hanjie Jiang,  B. Kaduk,  S. Kaehler,  
 K. Khistyaev,  Jaehoon Kim,  P. Klunzinger,  Z. Koczor-Benda,  
 Joong Hoon Koh,  D. Kosenkov,  L. Koulias,  T. Kowalczyk,  C. M. Krauter,  
 K. Kue,  A. Kunitsa,  T. Kus,  A. Landau,  K. V. Lawler,  D. Lefrancois,  
 S. Lehtola,  Rain Li,  Yi-Pei Li,  Jiashu Liang,  M. Liebenthal,  
 Hung-Hsuan Lin,  You-Sheng Lin,  Fenglai Liu,  Kuan-Yu Liu,  
 M. Loipersberger,  A. Luenser,  A. Manjanath,  P. Manohar,  E. Mansoor,  
 S. F. Manzer,  Shan-Ping Mao,  A. V. Marenich,  T. Markovich,  S. Mason,  
 S. A. Maurer,  P. F. McLaughlin,  M. F. S. J. Menger,  J.-M. Mewes,  
 S. A. Mewes,  P. Morgante,  J. W. Mullinax,  K. J. Oosterbaan,  G. Paran,  
 Alexander C. Paul,  Suranjan K. Paul,  F. Pavosevic,  Zheng Pei,  S. Prager,  
 E. I. Proynov,  E. Ramos,  B. Rana,  A. E. Rask,  A. Rettig,  R. M. Richard,  
 F. Rob,  E. Rossomme,  T. Scheele,  M. Scheurer,  M. Schneider,  
 N. Sergueev,  S. M. Sharada,  W. Skomorowski,  D. W. Small,  C. J. Stein,  
 Yu-Chuan Su,  E. J. Sundstrom,  Zhen Tao,  J. Thirman,  T. Tsuchimochi,  
 N. M. Tubman,  S. P. Veccham,  O. Vydrov,  J. Wenzel,  J. Witte,  A. Yamada,  
 Kun Yao,  S. Yeganeh,  S. R. Yost,  A. Zech,  Igor Ying Zhang,  Xing Zhang,  
 Yu Zhang,  D. Zuev,  A. Aspuru-Guzik,  A. T. Bell,  N. A. Besley,  
 K. B. Bravaya,  B. R. Brooks,  D. Casanova,  Jeng-Da Chai,  S. Coriani,  
 C. J. Cramer,  A. E. DePrince, III,  R. A. DiStasio Jr.,  A. Dreuw,  
 B. D. Dunietz,  T. R. Furlani,  W. A. Goddard III,  S. Grimme,  
 S. Hammes-Schiffer,  T. Head-Gordon,  W. J. Hehre,  Chao-Ping Hsu,  
 T.-C. Jagau,  Yousung Jung,  A. Klamt,  Jing Kong,  D. S. Lambrecht,  
 WanZhen Liang,  N. J. Mayhall,  C. W. McCurdy,  J. B. Neaton,  
 C. Ochsenfeld,  J. A. Parkhill,  R. Peverati,  V. A. Rassolov,  Yihan Shao,  
 L. V. Slipchenko,  T. Stauch,  R. P. Steele,  J. E. Subotnik,  
 A. J. W. Thom,  A. Tkatchenko,  D. G. Truhlar,  T. Van Voorhis,  
 T. A. Wesolowski,  K. B. Whaley,  H. L. Woodcock III,  P. M. Zimmerman,  
 S. Faraji,  P. M. W. Gill,  M. Head-Gordon,  J. M. Herbert,  A. I. Krylov

 Additional authors for Version 5.4.1: 
 S. Kotaru,  Shaozhi Li,  Xiangyuan Li,  F. Matz,  A. Molle,  Haisheng Ren,  
 Yingli Su,  Hung-Yi Tsai,  C. Utku,  Fang Wang

 Contributors to earlier versions of Q-Chem not listed above: 
 R. D. Adamson,  B. Austin,  R. Baer,  J. Baker,  G. J. O. Beran,  
 K. Brandhorst,  S. T. Brown,  E. F. C. Byrd,  A. K. Chakraborty,  
 G. K. L. Chan,  Chun-Min Chang,  Yunqing Chen,  C.-L. Cheng,  
 Siu Hung Chien,  D. M. Chipman,  D. L. Crittenden,  H. Dachsel,  
 R. J. Doerksen,  A. D. Dutoi,  R. G. Edgar,  J. Fosso-Tande,  
 L. Fusti-Molnar,  D. Ghosh,  A. Ghysels,  A. Golubeva-Zadorozhnaya,  
 J. Gonthier,  M. S. Gordon,  S. R. Gwaltney,  G. Hawkins,  J. E. Herr,  
 A. Heyden,  S. Hirata,  E. G. Hohenstein,  G. Kedziora,  F. J. Keil,  
 C. Kelley,  Jihan Kim,  R. A. King,  R. Z. Khaliullin,  P. P. Korambath,  
 W. Kurlancheek,  A. Laurent,  A. M. Lee,  M. S. Lee,  S. V. Levchenko,  
 Ching Yeh Lin,  D. Liotard,  E. Livshits,  R. C. Lochan,  I. Lotan,  
 L. A. Martinez-Martinez,  P. E. Maslen,  N. Nair,  D. P. O'Neill,  
 D. Neuhauser,  E. Neuscamman,  C. M. Oana,  R. Olivares-Amaya,  R. Olson,  
 T. M. Perrine,  B. Peters,  P. A. Pieniazek,  A. Prociuk,  Y. M. Rhee,  
 J. Ritchie,  M. A. Rohrdanz,  E. Rosta,  N. J. Russ,  H. F. Schaefer III,  
 M. W. Schmidt,  N. E. Schultz,  S. Sharma,  N. Shenvi,  C. D. Sherrill,  
 A. C. Simmonett,  A. Sodt,  T. Stein,  D. Stuck,  K. S. Thanthiriwatte,  
 V. Vanovschi,  L. Vogt,  Tao Wang,  A. Warshel,  M. A. Watson,  
 C. F. Williams,  Q. Wu,  X. Xu,  Jun Yang,  W. Zhang,  Yan Zhao

 Please cite Q-Chem as follows:
 Y. Shao et al., Mol. Phys. 113, 184-215 (2015)
 DOI: 10.1080/00268976.2014.952696

 Q-Chem 5.4.1 for Intel X86 EM64T Linux

 Parts of Q-Chem use Armadillo 9.800.1 (Horizon Scraper).
 http://arma.sourceforge.net/

 Q-Chem begins on Wed Mar 15 16:18:23 2023  

 Host: cpu121.yggdrasil
0

     Scratch files written to /srv/beegfs/scratch/users/f/fum/qchem67769//
 Processing $rem in /home/share/wesolowski/qc5.aug2021.FDE/config/preferences:
 Processing $rem in /home/fum/.qchemrc:

 Checking the input file for inconsistencies... 	...done.

--------------------------------------------------------------
User input:
--------------------------------------------------------------
$comment
generated from CCJob.Templates
$end

$rem
sym_ignore = true
method = adc(2)
ee_states = 10
basis = cc-pVDZ
mem_static = 1024
mem_total = 40000
adc_davidson_maxiter = 900
adc_davidson_conv = 6
adc_print = 3
adc_prop_es = true
adc_prop_es2es = true
adc_prop_tpa = true
molden_format = True
state_analysis = true
print_orbitals = 15
gen_scfman = false
fde_export_density = true
fde_details = 3
$end

$molecule
0 1
H -0.0348278765 -0.2442097827 0.0636489606
C -1.0765972949 -0.5242748755 -0.0023551776
H -1.313264467 -1.5767591607 -0.0757276926
C -2.043634118 0.3526884087 0.0061254933
H -1.8137616575 1.4459188338 0.0804456828
H -3.085977293 0.114931858 -0.0593381042                     
$end
--------------------------------------------------------------
 ----------------------------------------------------------------
             Standard Nuclear Orientation (Angstroms)
    I     Atom           X                Y                Z
 ----------------------------------------------------------------
    1      H      -0.0348278765    -0.2442097827     0.0636489606
    2      C      -1.0765972949    -0.5242748755    -0.0023551776
    3      H      -1.3132644670    -1.5767591607    -0.0757276926
    4      C      -2.0436341180     0.3526884087     0.0061254933
    5      H      -1.8137616575     1.4459188338     0.0804456828
    6      H      -3.0859772930     0.1149318580    -0.0593381042
 ----------------------------------------------------------------
 Nuclear Repulsion Energy =          33.68116398 hartrees
 There are        8 alpha and        8 beta electrons
 Requested basis set is cc-pVDZ
 There are 24 shells and 48 basis functions
 Total memory of 40000 MB is distributed as follows: 
   MEM_STATIC is set to 1024 MB
   QALLOC/CCMAN JOB total memory use is  38976 MB
 Warning: actual memory use might exceed 40000 MB

 Total QAlloc Memory Limit  40000 MB
 Mega-Array Size      1001 MB
 MEM_STATIC part      1024 MB

                       Distance Matrix (Angstroms)
             H (  1)   C (  2)   H (  3)   C (  4)   H (  5)
   C (  2)  1.080776
   H (  3)  1.851895  1.081258
   C (  4)  2.096401  1.305487  2.064681
   H (  5)  2.453859  2.105215  3.067812  1.119606
   H (  6)  3.074674  2.109370  2.450428  1.071118  1.846510

 A cutoff of  1.0D-11 yielded    300 shell pairs
 There are      1220 function pairs (      1329 Cartesian)
 Smallest overlap matrix eigenvalue = 4.34E-03

 Scale SEOQF with 1.000000e-01/1.000000e-01/1.000000e+00

 Standard Electronic Orientation quadrupole field applied
 Nucleus-field energy     =     0.0000000021 hartrees
 Guess from superposition of atomic densities
 Warning:  Energy on first SCF cycle will be non-variational
 SAD guess density has 16.000000 electrons
 A restricted Hartree-Fock SCF calculation will be
 performed using Pulay DIIS extrapolation
 SCF converges when DIIS error is below 1.0E-08
 using 10 threads for integral computing
 -------------------------------------------------------
 OpenMP Integral computing Module                
 Release: version 1.0, May 2013, Q-Chem Inc. Pittsburgh 
 -------------------------------------------------------
 ---------------------------------------
  Cycle       Energy         DIIS Error
 ---------------------------------------
    1     -78.4738307483      1.03E-01
    2     -78.0159432958      7.32E-03
    3     -78.0368285264      1.90E-03
    4     -78.0383541947      6.18E-04
    5     -78.0384953750      5.98E-05
    6     -78.0384973257      1.13E-05
    7     -78.0384974021      4.91E-06
    8     -78.0384974108      1.06E-06
    9     -78.0384974118      3.29E-07
   10     -78.0384974119      7.83E-08
   11     -78.0384974119      6.21E-09 Convergence criterion met
 ---------------------------------------
 SCF time:  CPU 1.89 s  wall 3.24 s
 SCF   energy in the final basis set = -78.03849741
 Total energy in the final basis set = -78.03849741
Exporting Density Matrix to file 'Densmat_SCF.txt'.
Export successful
================================================================================
|                                                                              |
|                                 A D C  M A N                                 |
|                                                                              |
 ------------------------------------------------------------------------------ 
|                                                                              |
| Components:                                                                  |
|                                                                              |
| - libvmm - 1.3-trunk                                                         |
|   Authors:                                                                   |
|   Evgeny Epifanovsky, Ilya Kaliman                                           |
|                                                                              |
| - libtensor - 2.5-trunk                                                      |
|   Authors:                                                                   |
|   Evgeny Epifanovsky, Michael Wormit, Dmitry Zuev, Sam Manzer,               |
|   Ilya Kaliman                                                               |
|                                                                              |
| - libwfa - 1.1-trunk                                                         |
|   Authors:                                                                   |
|   Felix Plasser, Stefanie Mewes (Baeppler), Benjamin Thomitzni,              |
|   Michael Wormit, Feng Chen, Anna I. Krylov, Pavel Pokhilko                  |
|                                                                              |
| - libadc - 1.1-trunk                                                         |
|   Authors:                                                                   |
|   Michael Wormit, Adrian L. Dempwolff, Philipp H. P. Harbach,                |
|   Caroline Krauter, Dirk Rehn, Matthias Schneider, Jan Wenzel                |
|                                                                              |
| - adcman - 2.6-trunk                                                         |
|   Authors:                                                                   |
|   Michael Wormit, Adrian L. Dempwolff, Philipp H. P. Harbach,                |
|   Caroline Krauter, Daniel Lefrancois, Jan-Michael Mewes, Dirk Rehn,         |
|   Matthias Schneider, Jan Wenzel, Andreas Dreuw                              |
|                                                                              |
| Authors of earlier versions of ADCMAN:                                       |
| Andreas Dreuw, Jan Hendrik Starcke, Dirk Rehn, Michael Wormit                |
|                                                                              |
================================================================================

 Created directory /srv/beegfs/scratch/users/f/fum/qchem67769/plots
  Import QC data ...  CPU 0.00 s  wall 0.03 s

 Alpha MOs, Restricted
 -- Occupied --                  
-11.233 -11.230  -1.040  -0.786  -0.640  -0.589  -0.495  -0.381
  1 A     2 A     3 A     4 A     5 A     6 A     7 A     8 A                  
 -- Virtual --                   
  0.175   0.204   0.231   0.239   0.305   0.468   0.574   0.614
  9 A    10 A    11 A    12 A    13 A    14 A    15 A    16 A                  
  0.683   0.707   0.789   0.811   0.856   0.936   0.987   1.009
 17 A    18 A    19 A    20 A    21 A    22 A    23 A    24 A                  
  1.128   1.243   1.252   1.274   1.299   1.590   1.730   1.757
 25 A    26 A    27 A    28 A    29 A    30 A    31 A    32 A                  
  1.820   1.861   1.876   1.923   1.961   1.986   2.240   2.273
 33 A    34 A    35 A    36 A    37 A    38 A    39 A    40 A                  
  2.375   2.443   2.512   2.655   2.691   2.831   3.130   3.425
 41 A    42 A    43 A    44 A    45 A    46 A    47 A    48 A                  

 Beta MOs, Restricted
 -- Occupied --                  
-11.233 -11.230  -1.040  -0.786  -0.640  -0.589  -0.495  -0.381
  1 A     2 A     3 A     4 A     5 A     6 A     7 A     8 A                  
 -- Virtual --                   
  0.175   0.204   0.231   0.239   0.305   0.468   0.574   0.614
  9 A    10 A    11 A    12 A    13 A    14 A    15 A    16 A                  
  0.683   0.707   0.789   0.811   0.856   0.936   0.987   1.009
 17 A    18 A    19 A    20 A    21 A    22 A    23 A    24 A                  
  1.128   1.243   1.252   1.274   1.299   1.590   1.730   1.757
 25 A    26 A    27 A    28 A    29 A    30 A    31 A    32 A                  
  1.820   1.861   1.876   1.923   1.961   1.986   2.240   2.273
 33 A    34 A    35 A    36 A    37 A    38 A    39 A    40 A                  
  2.375   2.443   2.512   2.655   2.691   2.831   3.130   3.425
 41 A    42 A    43 A    44 A    45 A    46 A    47 A    48 A                  
  Import AO data ...  CPU 0.00 s  wall 0.06 s
  Using point group: C1
  Irreducible representations in point group: A
  Molecular orbitals: 
  Occupied MOs:
  Block   0:   1 (  A) A   2 (  A) A   3 (  A) A   4 (  A) A   5 (  A) A
                  -11.23      -11.23       -1.04     -0.7856     -0.6399
               6 (  A) A   7 (  A) A   8 (  A) A
                 -0.5889      -0.495     -0.3811
  Block   1:   1 (  A) B   2 (  A) B   3 (  A) B   4 (  A) B   5 (  A) B
                  -11.23      -11.23       -1.04     -0.7856     -0.6399
               6 (  A) B   7 (  A) B   8 (  A) B
                 -0.5889      -0.495     -0.3811
  Virtual MOs:
  Block   0:   9 (  A) A  10 (  A) A  11 (  A) A  12 (  A) A  13 (  A) A
                  0.1746      0.2036      0.2306      0.2386      0.3046
              14 (  A) A  15 (  A) A  16 (  A) A  17 (  A) A  18 (  A) A
                  0.4677      0.5739      0.6141      0.6829      0.7069
              19 (  A) A  20 (  A) A  21 (  A) A  22 (  A) A
                  0.7894      0.8108      0.8564      0.9361
  Block   1:  23 (  A) A  24 (  A) A  25 (  A) A  26 (  A) A  27 (  A) A
                  0.9874       1.009       1.128       1.243       1.252
              28 (  A) A  29 (  A) A  30 (  A) A  31 (  A) A  32 (  A) A
                   1.274       1.299        1.59        1.73       1.757
              33 (  A) A  34 (  A) A  35 (  A) A  36 (  A) A
                    1.82       1.861       1.876       1.923
  Block   2:  37 (  A) A  38 (  A) A  39 (  A) A  40 (  A) A  41 (  A) A
                   1.961       1.986        2.24       2.273       2.375
              42 (  A) A  43 (  A) A  44 (  A) A  45 (  A) A  46 (  A) A
                   2.443       2.512       2.655       2.691       2.831
              47 (  A) A  48 (  A) A
                    3.13       3.425
  Block   3:   9 (  A) B  10 (  A) B  11 (  A) B  12 (  A) B  13 (  A) B
                  0.1746      0.2036      0.2306      0.2386      0.3046
              14 (  A) B  15 (  A) B  16 (  A) B  17 (  A) B  18 (  A) B
                  0.4677      0.5739      0.6141      0.6829      0.7069
              19 (  A) B  20 (  A) B  21 (  A) B  22 (  A) B
                  0.7894      0.8108      0.8564      0.9361
  Block   4:  23 (  A) B  24 (  A) B  25 (  A) B  26 (  A) B  27 (  A) B
                  0.9874       1.009       1.128       1.243       1.252
              28 (  A) B  29 (  A) B  30 (  A) B  31 (  A) B  32 (  A) B
                   1.274       1.299        1.59        1.73       1.757
              33 (  A) B  34 (  A) B  35 (  A) B  36 (  A) B
                    1.82       1.861       1.876       1.923
  Block   5:  37 (  A) B  38 (  A) B  39 (  A) B  40 (  A) B  41 (  A) B
                   1.961       1.986        2.24       2.273       2.375
              42 (  A) B  43 (  A) B  44 (  A) B  45 (  A) B  46 (  A) B
                   2.443       2.512       2.655       2.691       2.831
              47 (  A) B  48 (  A) B
                    3.13       3.425
  Import MO data ...  CPU 0.00 s  wall 0.01 s
  Import HF data ...  CPU 0.07 s  wall 0.03 s
  Import 2e integrals ...  CPU 0.82 s  wall 0.18 s

--------------------------------------------------------------------------------
                                   HF Summary                                   
--------------------------------------------------------------------------------
  Energy:                                                  -78.0384974119 a.u.
  Dip. moment [a.u.]:                  [  -0.005663,   -0.006228,   -0.001487]
  Total dipole [Debye]:                                               0.021728
  <r^2> [a.u.]:                        [ 175.210794,   34.399735,   11.571399]
  Total <r^2> [a.u.]:                                               221.181927
--------------------------------------------------------------------------------
  HF properties ...  CPU 0.01 s  wall 0.00 s
  MP(1) calculation ...  CPU 0.01 s  wall 0.00 s
  N^6 prerequesite intermediates ...  CPU 0.44 s  wall 0.06 s
  Difference density matrix of state mp2_gs printed to ASCII file 'State_mp2_gs_Difference.txt'
Exporting MP density matrix to file 'Densmat_MP.txt'.
Export successful
  Total density matrix of state mp2_gs printed to ASCII file 'State_mp2_gs_Total.txt'
Exporting MP density matrix to file 'Densmat_MP.txt'.
Export successful

--------------------------------------------------------------------------------
                                 MP(2) Summary                                  
--------------------------------------------------------------------------------
  MP energy contribution:                                   -0.2786012968 a.u.
  Total energy:                                            -78.3170987088 a.u.
  Dip. moment [a.u.]:                  [  -0.004495,   -0.005072,   -0.001353]
  Total dipole [Debye]:                                               0.017566
  <r^2> [a.u.]:                        [ 175.275537,   34.432508,   11.419350]
  Total <r^2> [a.u.]:                                               221.127396

  Density matrix analysis:
  ------------------------
  NOs
    Occupation of frontier NOs:
       0.0431   1.9402
    Number of electrons: 16.000000
    Number of unpaired electrons: n_u =  0.39867, n_u,nl =  0.04334
    NO participation ratio (PR_NO): 14.098784
  
  
  Mulliken Population Analysis
  Atom      Charge (e)              h+              e-           Del q
  --------------------------------------------------------------------
   1 H        0.050734        0.013906       -0.011203        0.002703
   2 C       -0.087644        0.090494       -0.096213       -0.005719
   3 H        0.047743        0.014203       -0.011125        0.003079
   4 C       -0.111141        0.091851       -0.097655       -0.005804
   5 H        0.052596        0.014073       -0.011224        0.002849
   6 H        0.047711        0.014144       -0.011252        0.002892
  --------------------------------------------------------------------
  Sum:       -0.000000        0.238671       -0.238671        0.000000
  
  Multipole moment analysis of the density matrix
    Molecular charge:                      -0.000000
    Number of electrons:                   16.000000
      Center of electronic charge [Ang]: [ -1.560428,  -0.080435,   0.002023]
    Total nuclear charge:                  16.000000
      Center of nuclear charge [Ang]:    [ -1.560576,  -0.080602,   0.001978]
    Dipole moment [D]:                     0.017566
      Cartesian components [D]:          [ -0.011426,  -0.012892,  -0.003439]
    RMS size of the density [Ang]:         1.195289
      Cartesian components [Ang]:        [  0.795425,   0.772114,   0.447051]
  
  Exciton analysis of the difference density matrix
    <r_h> [Ang]:                  [ -1.560347,  -0.074493,   0.002519]
    <r_e> [Ang]:                  [ -1.562937,  -0.077056,   0.002221]
    |<r_e - r_h>| [Ang]:            0.003656
    Hole size [Ang]:                1.386066
      Cartesian components [Ang]: [  0.843297,   0.835082,   0.716008]
    Electron size [Ang]:            1.359677
      Cartesian components [Ang]: [  0.882623,   0.857570,   0.578163]
--------------------------------------------------------------------------------
  MP(2) calculation ...  CPU 0.23 s  wall 0.44 s
  Start ADC(2)-s ...  CPU 0.01 s  wall 0.00 s
  ADC(2) intermediates ...  CPU 0.02 s  wall 0.01 s
  Starting Davidson for singlet states of irrep A ... 
--------------------------------------------------------------------------------
   It NVec Conv  Avg. Norm  Max. Norm  Conv. states           Remark
--------------------------------------------------------------------------------
        10    0  1.333e-01  4.720e-01  0.4173 n n n n n n n n Guess.
    1   20    0  2.647e-02  1.634e-01  0.3331 n n n n n n n n 
    2   30    0  6.740e-03  4.354e-02  0.3303 n n n n n n n n 
    3   40    0  2.370e-03  1.865e-02  0.3300 n n n n n n n n 
    4   50    0  9.069e-04  8.095e-03  0.3299 n n n n n n n n 
    5   20    0  6.301e-04  5.969e-03  0.3299 n n n n n n n n Subspace collapsed.
    6   30    0  1.235e-03  1.230e-02  0.3299 n n n n n n n n 
    7   40    0  8.354e-04  8.327e-03  0.3299 n n n n n n n n 
    8   50    0  5.145e-04  5.133e-03  0.3299 n n n n n n n n 
    9   20    1  2.886e-04  2.880e-03  0.3299 n y n n n n n n Subspace collapsed.
   10   30    2  2.167e-04  2.164e-03  0.3299 n y n y n n n n 
   11   40    4  9.910e-05  9.896e-04  0.3299 n y y y y n n n 
   12   50    6  6.578e-05  6.572e-04  0.3299 y y y y y y n n 
   13   20    6  5.692e-05  5.688e-04  0.3299 y y y y y y n n Subspace collapsed.
   14   30    6  7.153e-05  7.147e-04  0.3299 y y y y y y n n 
   15   40    6  6.770e-05  6.760e-04  0.3299 y y y y y y n n 
   16   50    6  4.624e-05  4.608e-04  0.3299 y y y y y y n n 
   17   20    6  2.855e-05  2.845e-04  0.3299 y y y y y y n n Subspace collapsed.
   18   30    8  1.947e-05  1.940e-04  0.3299 y y y y y y y y 
   19   40    8  1.284e-05  1.280e-04  0.3299 y y y y y y y y 
   20   50    8  9.928e-06  9.876e-05  0.3299 y y y y y y y y 
   21   20    8  6.106e-06  6.073e-05  0.3299 y y y y y y y y Subspace collapsed.
   22   30    8  9.052e-06  8.991e-05  0.3299 y y y y y y y y 
   23   31    8  9.083e-06  9.021e-05  0.3299 y y y y y y y y 
   24   40    8  9.192e-06  9.066e-05  0.3299 y y y y y y y y 
   25   49    8  6.630e-06  6.368e-05  0.3299 y y y y y y y y 
   26   50    8  6.629e-06  6.366e-05  0.3299 y y y y y y y y 
   27   17    8  2.612e-06  2.504e-05  0.3299 y y y y y y y y Subspace collapsed.
   28   22    8  2.017e-06  1.932e-05  0.3299 y y y y y y y y 
   29   27    8  1.046e-06  9.994e-06  0.3299 y y y y y y y y 
   30   32    8  9.841e-07  9.299e-06  0.3299 y y y y y y y y 
   31   37    8  9.269e-07  8.540e-06  0.3299 y y y y y y y y 
   32   42    8  9.095e-07  7.831e-06  0.3299 y y y y y y y y 
   33   47    8  8.663e-07  6.140e-06  0.3299 y y y y y y y y 
   34   47    8  8.663e-07  6.140e-06  0.3299 y y y y y y y y 
   35   50    8  8.629e-07  6.192e-06  0.3299 y y y y y y y y 
   36   14    8  3.012e-07  2.184e-06  0.3299 y y y y y y y y Subspace collapsed.
   37   18    8  2.222e-07  1.647e-06  0.3299 y y y y y y y y 
   38   22    8  1.810e-07  1.359e-06  0.3299 y y y y y y y y 
   39   26   10  1.215e-07  9.398e-07  0.3299 y y y y y y y y Converged.
--------------------------------------------------------------------------------
  Davidson Summary: 
 ------------------------------------------------------------
  State  0: excitation energy =   0.3299 a.u.   (converged)
  State  1: excitation energy =   0.3309 a.u.   (converged)
  State  2: excitation energy =   0.3410 a.u.   (converged)
  State  3: excitation energy =   0.3619 a.u.   (converged)
  State  4: excitation energy =   0.3812 a.u.   (converged)
  State  5: excitation energy =   0.3969 a.u.   (converged)
  State  6: excitation energy =   0.4174 a.u.   (converged)
  State  7: excitation energy =   0.4523 a.u.   (converged)
  State  8: excitation energy =   0.4547 a.u.   (converged)
  State  9: excitation energy =   0.4615 a.u.   (converged)
 ------------------------------------------------------------

  Singlet states of irrep A ...  CPU 107.15 s  wall 27.92 s
  TDMs ...  CPU 0.59 s  wall 0.23 s
  SDMs ...  CPU 1.39 s  wall 0.45 s
  Starting TPA DIIS iterations ... 
------------------------------------ 
   It     Res. Norm  Remark
------------------------------------
                       Guess.
    1     4.177e+00  
    2     5.423e+00  
    3     1.031e+00  
    4     2.311e-01  
    5     5.728e-02  
    6     2.383e-02  
    7     7.573e-03  
    8     1.390e-03  
    9     5.359e-04  
   10     8.819e-05  
   11     2.807e-05  
   12     4.397e-06  
   13     1.574e-06  
   14     4.691e-07  Converged.
   ... Converged in 14 steps (norm: 4.69122e-07)
------------------------------------
  Starting TPA DIIS iterations ... 
------------------------------------ 
   It     Res. Norm  Remark
------------------------------------
                       Guess.
    1     3.759e+00  
    2     4.895e+00  
    3     9.882e-01  
    4     2.485e-01  
    5     5.696e-02  
    6     2.545e-02  
    7     7.606e-03  
    8     1.595e-03  
    9     5.965e-04  
   10     9.664e-05  
   11     3.308e-05  
   12     4.856e-06  
   13     1.848e-06  
   14     5.163e-07  Converged.
   ... Converged in 14 steps (norm: 5.16263e-07)
------------------------------------
  Starting TPA DIIS iterations ... 
------------------------------------ 
   It     Res. Norm  Remark
------------------------------------
                       Guess.
    1     6.875e-01  
    2     4.813e-01  
    3     1.692e-01  
    4     6.245e-02  
    5     1.816e-02  
    6     6.724e-03  
    7     1.216e-03  
    8     4.465e-04  
    9     2.009e-04  
   10     4.552e-05  
   11     2.774e-05  
   12     9.162e-06  
   13     4.954e-06  
   14     2.254e-06  
   15     6.422e-07  Converged.
   ... Converged in 15 steps (norm: 6.42199e-07)
------------------------------------
  Starting TPA DIIS iterations ... 
------------------------------------ 
   It     Res. Norm  Remark
------------------------------------
                       Guess.
    1     4.198e+00  
    2     5.459e+00  
    3     1.037e+00  
    4     2.331e-01  
    5     5.784e-02  
    6     2.408e-02  
    7     7.653e-03  
    8     1.404e-03  
    9     5.419e-04  
   10     8.923e-05  
   11     2.843e-05  
   12     4.456e-06  
   13     1.597e-06  
   14     4.758e-07  Converged.
   ... Converged in 14 steps (norm: 4.75764e-07)
------------------------------------
  Starting TPA DIIS iterations ... 
------------------------------------ 
   It     Res. Norm  Remark
------------------------------------
                       Guess.
    1     3.777e+00  
    2     4.928e+00  
    3     9.939e-01  
    4     2.506e-01  
    5     5.752e-02  
    6     2.572e-02  
    7     7.688e-03  
    8     1.612e-03  
    9     6.033e-04  
   10     9.779e-05  
   11     3.349e-05  
   12     4.920e-06  
   13     1.875e-06  
   14     5.238e-07  Converged.
   ... Converged in 14 steps (norm: 5.2378e-07)
------------------------------------
  Starting TPA DIIS iterations ... 
------------------------------------ 
   It     Res. Norm  Remark
------------------------------------
                       Guess.
    1     6.885e-01  
    2     4.827e-01  
    3     1.699e-01  
    4     6.307e-02  
    5     1.828e-02  
    6     6.774e-03  
    7     1.228e-03  
    8     4.513e-04  
    9     2.033e-04  
   10     4.635e-05  
   11     2.815e-05  
   12     9.308e-06  
   13     5.050e-06  
   14     2.304e-06  
   15     6.546e-07  Converged.
   ... Converged in 15 steps (norm: 6.54616e-07)
------------------------------------
  Starting TPA DIIS iterations ... 
------------------------------------ 
   It     Res. Norm  Remark
------------------------------------
                       Guess.
    1     4.423e+00  
    2     5.857e+00  
    3     1.103e+00  
    4     2.546e-01  
    5     6.401e-02  
    6     2.688e-02  
    7     8.537e-03  
    8     1.566e-03  
    9     6.085e-04  
   10     1.008e-04  
   11     3.235e-05  
   12     5.122e-06  
   13     1.850e-06  
   14     5.503e-07  Converged.
   ... Converged in 14 steps (norm: 5.50328e-07)
------------------------------------
  Starting TPA DIIS iterations ... 
------------------------------------ 
   It     Res. Norm  Remark
------------------------------------
                       Guess.
    1     3.979e+00  
    2     5.286e+00  
    3     1.056e+00  
    4     2.735e-01  
    5     6.365e-02  
    6     2.879e-02  
    7     8.596e-03  
    8     1.804e-03  
    9     6.782e-04  
   10     1.105e-04  
   11     3.810e-05  
   12     5.641e-06  
   13     2.175e-06  
   14     6.088e-07  Converged.
   ... Converged in 14 steps (norm: 6.08827e-07)
------------------------------------
  Starting TPA DIIS iterations ... 
------------------------------------ 
   It     Res. Norm  Remark
------------------------------------
                       Guess.
    1     6.989e-01  
    2     4.976e-01  
    3     1.783e-01  
    4     6.994e-02  
    5     1.951e-02  
    6     7.326e-03  
    7     1.367e-03  
    8     5.028e-04  
    9     2.300e-04  
   10     5.583e-05  
   11     3.288e-05  
   12     1.100e-05  
   13     6.165e-06  
   14     2.894e-06  
   15     7.942e-07  Converged.
   ... Converged in 15 steps (norm: 7.94159e-07)
------------------------------------
  Starting TPA DIIS iterations ... 
------------------------------------ 
   It     Res. Norm  Remark
------------------------------------
                       Guess.
    1     4.962e+00  
    2     6.831e+00  
    3     1.258e+00  
    4     3.092e-01  
    5     7.966e-02  
    6     3.405e-02  
    7     1.079e-02  
    8     1.976e-03  
    9     7.800e-04  
   10     1.306e-04  
   11     4.271e-05  
   12     6.900e-06  
   13     2.541e-06  
   14     7.508e-07  Converged.
   ... Converged in 14 steps (norm: 7.50835e-07)
------------------------------------
  Starting TPA DIIS iterations ... 
------------------------------------ 
   It     Res. Norm  Remark
------------------------------------
                       Guess.
    1     4.459e+00  
    2     6.162e+00  
    3     1.202e+00  
    4     3.316e-01  
    5     7.923e-02  
    6     3.669e-02  
    7     1.092e-02  
    8     2.294e-03  
    9     8.708e-04  
   10     1.434e-04  
   11     5.016e-05  
   12     7.550e-06  
   13     2.997e-06  
   14     8.439e-07  Converged.
   ... Converged in 14 steps (norm: 8.43882e-07)
------------------------------------
  Starting TPA DIIS iterations ... 
------------------------------------ 
   It     Res. Norm  Remark
------------------------------------
                       Guess.
    1     7.217e-01  
    2     5.314e-01  
    3     1.979e-01  
    4     8.781e-02  
    5     2.245e-02  
    6     8.720e-03  
    7     1.727e-03  
    8     6.269e-04  
    9     2.980e-04  
   10     8.264e-05  
   11     4.602e-05  
   12     1.599e-05  
   13     9.555e-06  
   14     4.679e-06  
   15     1.173e-06  
   16     3.889e-07  Converged.
   ... Converged in 16 steps (norm: 3.88875e-07)
------------------------------------
  Starting TPA DIIS iterations ... 
------------------------------------ 
   It     Res. Norm  Remark
------------------------------------
                       Guess.
    1     5.564e+00  
    2     7.956e+00  
    3     1.430e+00  
    4     3.753e-01  
    5     9.859e-02  
    6     4.287e-02  
    7     1.352e-02  
    8     2.474e-03  
    9     9.914e-04  
   10     1.676e-04  
   11     5.590e-05  
   12     9.188e-06  
   13     3.462e-06  
   14     1.014e-06  
   15     3.813e-07  Converged.
   ... Converged in 15 steps (norm: 3.81317e-07)
------------------------------------
  Starting TPA DIIS iterations ... 
------------------------------------ 
   It     Res. Norm  Remark
------------------------------------
                       Guess.
    1     4.997e+00  
    2     7.176e+00  
    3     1.364e+00  
    4     4.020e-01  
    5     9.811e-02  
    6     4.645e-02  
    7     1.375e-02  
    8     2.889e-03  
    9     1.108e-03  
   10     1.841e-04  
   11     6.529e-05  
   12     9.976e-06  
   13     4.098e-06  
   14     1.168e-06  
   15     5.718e-07  Converged.
   ... Converged in 15 steps (norm: 5.71839e-07)
------------------------------------
  Starting TPA DIIS iterations ... 
------------------------------------ 
   It     Res. Norm  Remark
------------------------------------
                       Guess.
    1     7.441e-01  
    2     5.668e-01  
    3     2.191e-01  
    4     1.100e-01  
    5     2.579e-02  
    6     1.041e-02  
    7     2.179e-03  
    8     7.612e-04  
    9     3.807e-04  
   10     1.193e-04  
   11     6.402e-05  
   12     2.342e-05  
   13     1.488e-05  
   14     7.291e-06  
   15     1.710e-06  
   16     5.635e-07  Converged.
   ... Converged in 16 steps (norm: 5.63457e-07)
------------------------------------
  Starting TPA DIIS iterations ... 
------------------------------------ 
   It     Res. Norm  Remark
------------------------------------
                       Guess.
    1     6.143e+00  
    2     9.073e+00  
    3     1.595e+00  
    4     4.436e-01  
    5     1.181e-01  
    6     5.209e-02  
    7     1.636e-02  
    8     2.988e-03  
    9     1.213e-03  
   10     2.065e-04  
   11     7.007e-05  
   12     1.167e-05  
   13     4.495e-06  
   14     1.311e-06  
   15     5.131e-07  Converged.
   ... Converged in 15 steps (norm: 5.13064e-07)
------------------------------------
  Starting TPA DIIS iterations ... 
------------------------------------ 
   It     Res. Norm  Remark
------------------------------------
                       Guess.
    1     5.514e+00  
    2     8.182e+00  
    3     1.520e+00  
    4     4.749e-01  
    5     1.176e-01  
    6     5.671e-02  
    7     1.669e-02  
    8     3.505e-03  
    9     1.356e-03  
   10     2.268e-04  
   11     8.124e-05  
   12     1.258e-05  
   13     5.335e-06  
   14     1.551e-06  
   15     8.228e-07  Converged.
   ... Converged in 15 steps (norm: 8.22846e-07)
------------------------------------
  Starting TPA DIIS iterations ... 
------------------------------------ 
   It     Res. Norm  Remark
------------------------------------
                       Guess.
    1     7.632e-01  
    2     5.988e-01  
    3     2.389e-01  
    4     1.334e-01  
    5     2.912e-02  
    6     1.215e-02  
    7     2.660e-03  
    8     8.823e-04  
    9     4.659e-04  
   10     1.609e-04  
   11     8.479e-05  
   12     3.263e-05  
   13     2.186e-05  
   14     1.040e-05  
   15     2.394e-06  
   16     7.780e-07  Converged.
   ... Converged in 16 steps (norm: 7.77999e-07)
------------------------------------
  Starting TPA DIIS iterations ... 
------------------------------------ 
   It     Res. Norm  Remark
------------------------------------
                       Guess.
    1     7.067e+00  
    2     1.092e+01  
    3     1.855e+00  
    4     5.615e-01  
    5     1.517e-01  
    6     6.819e-02  
    7     2.125e-02  
    8     3.873e-03  
    9     1.601e-03  
   10     2.747e-04  
   11     9.527e-05  
   12     1.617e-05  
   13     6.432e-06  
   14     1.880e-06  
   15     7.677e-07  Converged.
   ... Converged in 15 steps (norm: 7.67734e-07)
------------------------------------
  Starting TPA DIIS iterations ... 
------------------------------------ 
   It     Res. Norm  Remark
------------------------------------
                       Guess.
    1     6.341e+00  
    2     9.848e+00  
    3     1.765e+00  
    4     6.006e-01  
    5     1.513e-01  
    6     7.469e-02  
    7     2.179e-02  
    8     4.568e-03  
    9     1.788e-03  
   10     3.015e-04  
   11     1.088e-04  
   12     1.722e-05  
   13     7.654e-06  
   14     2.345e-06  
   15     1.367e-06  
   16     5.414e-07  Converged.
   ... Converged in 16 steps (norm: 5.41375e-07)
------------------------------------
  Starting TPA DIIS iterations ... 
------------------------------------ 
   It     Res. Norm  Remark
------------------------------------
                       Guess.
    1     7.900e-01  
    2     6.465e-01  
    3     2.694e-01  
    4     1.738e-01  
    5     3.470e-02  
    6     1.512e-02  
    7     3.508e-03  
    8     1.061e-03  
    9     6.128e-04  
   10     2.393e-04  
   11     1.250e-04  
   12     5.166e-05  
   13     3.687e-05  
   14     1.656e-05  
   15     3.924e-06  
   16     1.226e-06  
   17     4.484e-07  Converged.
   ... Converged in 17 steps (norm: 4.48403e-07)
------------------------------------
  Starting TPA DIIS iterations ... 
------------------------------------ 
   It     Res. Norm  Remark
------------------------------------
                       Guess.
    1     9.247e+00  
    2     1.557e+01  
    3     2.458e+00  
    4     8.745e-01  
    5     2.410e-01  
    6     1.121e-01  
    7     3.429e-02  
    8     6.230e-03  
    9     2.663e-03  
   10     4.610e-04  
   11     1.637e-04  
   12     2.919e-05  
   13     1.226e-05  
   14     3.746e-06  
   15     1.578e-06  
   16     5.098e-07  Converged.
   ... Converged in 16 steps (norm: 5.09846e-07)
------------------------------------
  Starting TPA DIIS iterations ... 
------------------------------------ 
   It     Res. Norm  Remark
------------------------------------
                       Guess.
    1     8.296e+00  
    2     1.404e+01  
    3     2.330e+00  
    4     9.337e-01  
    5     2.409e-01  
    6     1.240e-01  
    7     3.547e-02  
    8     7.403e-03  
    9     2.962e-03  
   10     5.039e-04  
   11     1.794e-04  
   12     3.085e-05  
   13     1.502e-05  
   14     5.456e-06  
   15     3.606e-06  
   16     1.640e-06  
   17     1.008e-06  
   18     3.868e-07  Converged.
   ... Converged in 18 steps (norm: 3.86772e-07)
------------------------------------
  Starting TPA DIIS iterations ... 
------------------------------------ 
   It     Res. Norm  Remark
------------------------------------
                       Guess.
    1     8.406e-01  
    2     7.471e-01  
    3     3.370e-01  
    4     2.763e-01  
    5     4.904e-02  
    6     2.263e-02  
    7     5.801e-03  
    8     1.504e-03  
    9     1.007e-03  
   10     4.737e-04  
   11     2.535e-04  
   12     1.148e-04  
   13     8.425e-05  
   14     3.701e-05  
   15     9.927e-06  
   16     2.993e-06  
   17     9.816e-07  Converged.
   ... Converged in 17 steps (norm: 9.81553e-07)
------------------------------------
  Starting TPA DIIS iterations ... 
------------------------------------ 
   It     Res. Norm  Remark
------------------------------------
                       Guess.
    1     9.440e+00  
    2     1.600e+01  
    3     2.510e+00  
    4     9.042e-01  
    5     2.495e-01  
    6     1.164e-01  
    7     3.554e-02  
    8     6.454e-03  
    9     2.766e-03  
   10     4.790e-04  
   11     1.702e-04  
   12     3.051e-05  
   13     1.285e-05  
   14     3.945e-06  
   15     1.667e-06  
   16     5.426e-07  Converged.
   ... Converged in 16 steps (norm: 5.42622e-07)
------------------------------------
  Starting TPA DIIS iterations ... 
------------------------------------ 
   It     Res. Norm  Remark
------------------------------------
                       Guess.
    1     8.469e+00  
    2     1.442e+01  
    3     2.380e+00  
    4     9.652e-01  
    5     2.495e-01  
    6     1.288e-01  
    7     3.678e-02  
    8     7.673e-03  
    9     3.076e-03  
   10     5.233e-04  
   11     1.859e-04  
   12     3.227e-05  
   13     1.583e-05  
   14     5.835e-06  
   15     3.888e-06  
   16     1.782e-06  
   17     1.082e-06  
   18     4.218e-07  Converged.
   ... Converged in 18 steps (norm: 4.2179e-07)
------------------------------------
  Starting TPA DIIS iterations ... 
------------------------------------ 
   It     Res. Norm  Remark
------------------------------------
                       Guess.
    1     8.445e-01  
    2     7.554e-01  
    3     3.427e-01  
    4     2.855e-01  
    5     5.037e-02  
    6     2.330e-02  
    7     6.019e-03  
    8     1.550e-03  
    9     1.045e-03  
   10     4.973e-04  
   11     2.671e-04  
   12     1.214e-04  
   13     8.867e-05  
   14     3.923e-05  
   15     1.062e-05  
   16     3.211e-06  
   17     1.046e-06  
   18     3.628e-07  Converged.
   ... Converged in 18 steps (norm: 3.62781e-07)
------------------------------------
  Starting TPA DIIS iterations ... 
------------------------------------ 
   It     Res. Norm  Remark
------------------------------------
                       Guess.
    1     1.001e+01  
    2     1.728e+01  
    3     2.665e+00  
    4     9.935e-01  
    5     2.751e-01  
    6     1.292e-01  
    7     3.929e-02  
    8     7.132e-03  
    9     3.078e-03  
   10     5.335e-04  
   11     1.897e-04  
   12     3.457e-05  
   13     1.469e-05  
   14     4.562e-06  
   15     1.956e-06  
   16     6.457e-07  Converged.
   ... Converged in 16 steps (norm: 6.45697e-07)
------------------------------------
  Starting TPA DIIS iterations ... 
------------------------------------ 
   It     Res. Norm  Remark
------------------------------------
                       Guess.
    1     8.980e+00  
    2     1.558e+01  
    3     2.524e+00  
    4     1.060e+00  
    5     2.752e-01  
    6     1.433e-01  
    7     4.073e-02  
    8     8.489e-03  
    9     3.418e-03  
   10     5.821e-04  
   11     2.053e-04  
   12     3.671e-05  
   13     1.840e-05  
   14     7.064e-06  
   15     4.820e-06  
   16     2.256e-06  
   17     1.322e-06  
   18     5.411e-07  Converged.
   ... Converged in 18 steps (norm: 5.41141e-07)
------------------------------------
  Starting TPA DIIS iterations ... 
------------------------------------ 
   It     Res. Norm  Remark
------------------------------------
                       Guess.
    1     8.554e-01  
    2     7.794e-01  
    3     3.594e-01  
    4     3.122e-01  
    5     5.437e-02  
    6     2.528e-02  
    7     6.670e-03  
    8     1.694e-03  
    9     1.160e-03  
   10     5.693e-04  
   11     3.091e-04  
   12     1.416e-04  
   13     1.015e-04  
   14     4.616e-05  
   15     1.282e-05  
   16     3.930e-06  
   17     1.255e-06  
   18     4.666e-07  Converged.
   ... Converged in 18 steps (norm: 4.66554e-07)
------------------------------------
  Two-photon absorbption ...  CPU 105.08 s  wall 19.65 s
  Transition density matrix of state singlet_A_1 printed to ASCII file 'State_singlet_A_1_Transition.txt'
  Transition density matrix of state singlet_A_2 printed to ASCII file 'State_singlet_A_2_Transition.txt'
  Transition density matrix of state singlet_A_3 printed to ASCII file 'State_singlet_A_3_Transition.txt'
  Transition density matrix of state singlet_A_4 printed to ASCII file 'State_singlet_A_4_Transition.txt'
  Transition density matrix of state singlet_A_5 printed to ASCII file 'State_singlet_A_5_Transition.txt'
  Transition density matrix of state singlet_A_6 printed to ASCII file 'State_singlet_A_6_Transition.txt'
  Transition density matrix of state singlet_A_7 printed to ASCII file 'State_singlet_A_7_Transition.txt'
  Transition density matrix of state singlet_A_8 printed to ASCII file 'State_singlet_A_8_Transition.txt'
  Transition density matrix of state singlet_A_9 printed to ASCII file 'State_singlet_A_9_Transition.txt'
  Transition density matrix of state singlet_A_10 printed to ASCII file 'State_singlet_A_10_Transition.txt'
  Transition properties ...  CPU 0.15 s  wall 4.08 s
  Difference density matrix of state singlet_A_1 printed to ASCII file 'State_singlet_A_1_Difference.txt'
  Total density matrix of state singlet_A_1 printed to ASCII file 'State_singlet_A_1_Total.txt'
  Difference density matrix of state singlet_A_2 printed to ASCII file 'State_singlet_A_2_Difference.txt'
  Total density matrix of state singlet_A_2 printed to ASCII file 'State_singlet_A_2_Total.txt'
  Difference density matrix of state singlet_A_3 printed to ASCII file 'State_singlet_A_3_Difference.txt'
  Total density matrix of state singlet_A_3 printed to ASCII file 'State_singlet_A_3_Total.txt'
  Difference density matrix of state singlet_A_4 printed to ASCII file 'State_singlet_A_4_Difference.txt'
  Total density matrix of state singlet_A_4 printed to ASCII file 'State_singlet_A_4_Total.txt'
  Difference density matrix of state singlet_A_5 printed to ASCII file 'State_singlet_A_5_Difference.txt'
  Total density matrix of state singlet_A_5 printed to ASCII file 'State_singlet_A_5_Total.txt'
  Difference density matrix of state singlet_A_6 printed to ASCII file 'State_singlet_A_6_Difference.txt'
  Total density matrix of state singlet_A_6 printed to ASCII file 'State_singlet_A_6_Total.txt'
  Difference density matrix of state singlet_A_7 printed to ASCII file 'State_singlet_A_7_Difference.txt'
  Total density matrix of state singlet_A_7 printed to ASCII file 'State_singlet_A_7_Total.txt'
  Difference density matrix of state singlet_A_8 printed to ASCII file 'State_singlet_A_8_Difference.txt'
  Total density matrix of state singlet_A_8 printed to ASCII file 'State_singlet_A_8_Total.txt'
  Difference density matrix of state singlet_A_9 printed to ASCII file 'State_singlet_A_9_Difference.txt'
  Total density matrix of state singlet_A_9 printed to ASCII file 'State_singlet_A_9_Total.txt'
  Difference density matrix of state singlet_A_10 printed to ASCII file 'State_singlet_A_10_Difference.txt'
  Total density matrix of state singlet_A_10 printed to ASCII file 'State_singlet_A_10_Total.txt'
  Properties ...  CPU 0.28 s  wall 1.55 s
  ISR TDMS ...  CPU 7.81 s  wall 2.67 s
  ISR transition properties ...  CPU 0.15 s  wall 0.07 s
  Sum-over-states TPA ...  CPU 0.00 s  wall 0.00 s

--------------------------------------------------------------------------------
                   State-averaged natural transition orbitals
--------------------------------------------------------------------------------
--------------------------------------------------------------------------------
  SA-NTO decomposition ...  CPU 0.01 s  wall 0.03 s

--------------------------------------------------------------------------------
                             Excited State Summary
--------------------------------------------------------------------------------
--------------------------------------------------------------------------------

  Excited state 1 (singlet, A)                                     [converged]
  ----------------------------------------------------------------------------
  Term symbol:  2 (1) A                                     R^2 =  2.08485e-13

  Total energy:                                            -77.9871632989 a.u.
  Excitation energy:                                               8.977999 eV

  Osc. strength:                                                      0.456195
  Trans. dip. moment [a.u.]:           [  -1.050407,    0.985175,    0.009879]
  <i|r^2|0> [a.u.]:                    [  -6.175854,    0.270824,    0.003801]
  Two-photon absorption cross-section (SoS) [a.u.]:                   0.047327
  Two-photon absorption matrix (SoS) [a.u.]:
                                       |   -0.007974   -0.038465    0.012237 |
                                       |   -0.038465   -0.075124    0.011913 |
                                       |    0.012237    0.011913    0.014030 |
  Two-photon absorption cross-section [a.u.]:                         0.026521
  Two-photon absorption matrix [a.u.]:
                                       |    0.059347   -0.014114   -0.001431 |
                                       |   -0.014114   -0.021744   -0.009917 |
                                       |   -0.001431   -0.009917    0.019767 |

  Dip. moment [a.u.]:                  [  -0.003169,   -0.004632,   -0.001625]
  Total dipole [Debye]:                                               0.014851
  <r^2> [a.u.]:                        [ 176.081617,   35.095538,   11.871776]
  Total <r^2> [a.u.]:                                               223.048932

  V1^2 = 0.9713, V2^2 = 0.0287

  Important amplitudes:
      occ i     occ j     vir a      vir b          v   
    -----------------------------------------------------
     8 (A) A              9 (A) A                -0.6807
     4 (A) A             10 (A) A                -0.0628
     7 (A) A             16 (A) A                -0.0585
     6 (A) A             14 (A) A                -0.0566
     5 (A) A             13 (A) A                 0.0533
     6 (A) A             23 (A) A                -0.0468
     8 (A) A             20 (A) A                -0.0340
     3 (A) A             12 (A) A                 0.0276
     6 (A) A             19 (A) A                 0.0253
     7 (A) A              9 (A) A                 0.0243
     5 (A) A             22 (A) A                 0.0219
     4 (A) A             24 (A) A                -0.0191
     6 (A) A             12 (A) A                 0.0182
     8 (A) A   8 (A) B   17 (A) A   20 (A) B      0.0181
     7 (A) A             11 (A) A                 0.0181
     3 (A) A             26 (A) A                -0.0177
     8 (A) A   8 (A) B    9 (A) A   28 (A) B      0.0163
     6 (A) A             26 (A) A                 0.0162
     7 (A) A             21 (A) A                -0.0156
     3 (A) A             14 (A) A                 0.0136
     3 (A) A   4 (A) B    9 (A) A    9 (A) B      0.0127
     3 (A) A             19 (A) A                -0.0111
     8 (A) A   8 (A) B   18 (A) A   19 (A) B      0.0110
     7 (A) A             32 (A) A                -0.0092
     7 (A) A             36 (A) A                -0.0086
     3 (A) A             23 (A) A                 0.0078
     8 (A) A   8 (A) B   25 (A) A   29 (A) B     -0.0074
     6 (A) A             16 (A) A                 0.0068
     6 (A) A             40 (A) A                -0.0067
     5 (A) A   8 (A) B   11 (A) A    9 (A) B      0.0065
     5 (A) A             10 (A) A                -0.0064
     3 (A) A             27 (A) A                 0.0063
     3 (A) A   6 (A) B    9 (A) A   28 (A) B     -0.0063
     5 (A) A   8 (A) B   16 (A) A    9 (A) B      0.0060
     7 (A) A   8 (A) B   13 (A) A   20 (A) B     -0.0060
     5 (A) A   8 (A) B   11 (A) A   20 (A) B     -0.0060
     5 (A) A   7 (A) B    9 (A) A    9 (A) B      0.0059
     3 (A) A   5 (A) B    9 (A) A   25 (A) B      0.0058
     7 (A) A             23 (A) A                -0.0058
     6 (A) A             22 (A) A                 0.0058
    -----------------------------------------------------

  Density matrix analysis:
  ------------------------
  NOs
    Occupation of frontier NOs:
       0.9496   1.0219
    Number of electrons: 16.000000
    Number of unpaired electrons: n_u =  2.31273, n_u,nl =  2.03207
    NO participation ratio (PR_NO):  2.863076
  
  
  Mulliken Population Analysis
  Atom      Charge (e)              h+              e-           Del q
  --------------------------------------------------------------------
   1 H        0.059995        0.021793       -0.012532        0.009261
   2 C       -0.104244        0.492537       -0.509138       -0.016600
   3 H        0.055925        0.021114       -0.012933        0.008181
   4 C       -0.130316        0.491830       -0.511005       -0.019175
   5 H        0.061564        0.021700       -0.012732        0.008969
   6 H        0.057076        0.021690       -0.012326        0.009365
  --------------------------------------------------------------------
  Sum:       -0.000000        1.070665       -1.070665        0.000000
  
  Multipole moment analysis of the density matrix
    Molecular charge:                      0.000000
    Number of electrons:                   16.000000
      Center of electronic charge [Ang]: [ -1.560471,  -0.080449,   0.002032]
    Total nuclear charge:                  16.000000
      Center of nuclear charge [Ang]:    [ -1.560576,  -0.080602,   0.001978]
    Dipole moment [D]:                     0.014851
      Cartesian components [D]:          [ -0.008055,  -0.011773,  -0.004131]
    RMS size of the density [Ang]:         1.209217
      Cartesian components [Ang]:        [  0.804159,   0.779591,   0.455821]
  
  Exciton analysis of the difference density matrix
    <r_h> [Ang]:                  [ -1.559934,  -0.083755,   0.001920]
    <r_e> [Ang]:                  [ -1.560589,  -0.083973,   0.002054]
    |<r_e - r_h>| [Ang]:            0.000704
    Hole size [Ang]:                1.282415
      Cartesian components [Ang]: [  0.731772,   0.707326,   0.780249]
    Electron size [Ang]:            1.464608
      Cartesian components [Ang]: [  0.862712,   0.820784,   0.852712]

  Transition density matrix analysis:
  -----------------------------------
  
  CT numbers (Mulliken)
    omega =     0.9533
    <Phe> =    -0.1532
  
  Exciton analysis of the transition density matrix
    Trans. dipole moment [D]:             1.830243
      Cartesian components [D]:         [ -1.334933,   1.252032,   0.012554]
    <r_h> [Ang]:                        [ -1.559290,  -0.085566,   0.001935]
    <r_e> [Ang]:                        [ -1.560568,  -0.083593,   0.002247]
    |<r_e - r_h>| [Ang]:                  0.002371
    Hole size [Ang]:                      1.204181
      Cartesian components [Ang]:       [  0.646937,   0.625542,   0.800138]
    Electron size [Ang]:                  1.490944
      Cartesian components [Ang]:       [  0.875235,   0.830985,   0.875410]
    RMS electron-hole separation [Ang]:   1.929445
      Cartesian components [Ang]:       [  1.112425,   1.055133,   1.171309]
    Covariance(r_h, r_e) [Ang^2]:        -0.024894
    Correlation coefficient:             -0.013866
    Center-of-mass size [Ang]:            0.951732
      Cartesian components [Ang]:       [  0.531893,   0.512439,   0.600242]

  Decomposition into state-averaged NTOs
    H- 0 -> L+ 0:  0.6697 ( 89.7%)
    H- 2 -> L+ 5:  0.0780 (  1.2%)
                   omega =  95.3%
  ----------------------------------------------------------------------------


  Excited state 2 (singlet, A)                                     [converged]
  ----------------------------------------------------------------------------
  Term symbol:  3 (1) A                                     R^2 =  8.21776e-14

  Total energy:                                            -77.9861821252 a.u.
  Excitation energy:                                               9.004698 eV

  Osc. strength:                                                      0.000925
  Trans. dip. moment [a.u.]:           [   0.041195,   -0.033903,   -0.036666]
  <i|r^2|0> [a.u.]:                    [   0.194248,   -0.112920,    0.151698]
  Two-photon absorption cross-section (SoS) [a.u.]:                   3.994532
  Two-photon absorption matrix (SoS) [a.u.]:
                                       |   -0.049639   -0.050732    0.479906 |
                                       |   -0.050732   -0.059724    0.507800 |
                                       |    0.479906    0.507800    0.105386 |
  Two-photon absorption cross-section [a.u.]:                         0.334146
  Two-photon absorption matrix [a.u.]:
                                       |    0.015378    0.009758    0.023004 |
                                       |    0.009758    0.001885   -0.201872 |
                                       |    0.023004   -0.201872   -0.022953 |

  Dip. moment [a.u.]:                  [  -0.083683,    0.049943,   -0.002585]
  Total dipole [Debye]:                                               0.247788
  <r^2> [a.u.]:                        [ 174.402969,   33.065101,   13.134827]
  Total <r^2> [a.u.]:                                               220.602897

  V1^2 = 0.9554, V2^2 = 0.0446

  Important amplitudes:
      occ i     occ j     vir a      vir b          v   
    -----------------------------------------------------
     7 (A) A              9 (A) A                 0.6670
     8 (A) A             11 (A) A                -0.1417
     7 (A) A             20 (A) A                 0.0763
     8 (A) A             10 (A) A                 0.0667
     5 (A) A   8 (A) B    9 (A) A    9 (A) B     -0.0300
     8 (A) A             16 (A) A                -0.0272
     8 (A) A              9 (A) A                 0.0249
     8 (A) A             21 (A) A                 0.0167
     5 (A) A             28 (A) A                -0.0145
     6 (A) A              9 (A) A                 0.0141
     4 (A) A   7 (A) B    9 (A) A   19 (A) B     -0.0134
     5 (A) A   7 (A) B    9 (A) A   16 (A) B      0.0131
     7 (A) A   8 (A) B   20 (A) A   17 (A) B     -0.0105
     8 (A) A             12 (A) A                -0.0097
     5 (A) A   8 (A) B    9 (A) A   20 (A) B     -0.0093
     7 (A) A   8 (A) A    9 (A) A   28 (A) A      0.0093
     4 (A) A   6 (A) B    9 (A) A   16 (A) B      0.0088
     5 (A) A   6 (A) A    9 (A) A   23 (A) A      0.0087
     6 (A) A   7 (A) B    9 (A) A   18 (A) B      0.0083
     8 (A) A   7 (A) B    9 (A) A   28 (A) B     -0.0083
     4 (A) A   5 (A) A    9 (A) A   10 (A) A     -0.0082
     5 (A) A   6 (A) A    9 (A) A   14 (A) A      0.0082
     3 (A) A   7 (A) B    9 (A) A   18 (A) B      0.0078
     5 (A) A   6 (A) B    9 (A) A   23 (A) B      0.0078
     5 (A) A   7 (A) A    9 (A) A   16 (A) A      0.0078
     5 (A) A   6 (A) B    9 (A) A   19 (A) B     -0.0076
     4 (A) A   8 (A) B    9 (A) A   25 (A) B     -0.0075
     4 (A) A   7 (A) B   19 (A) A    9 (A) B     -0.0073
     7 (A) A   8 (A) B   17 (A) A   20 (A) B     -0.0072
     5 (A) A   5 (A) B    9 (A) A   13 (A) B     -0.0071
     7 (A) A   8 (A) B   19 (A) A   18 (A) B     -0.0070
     4 (A) A   5 (A) B    9 (A) A   18 (A) B      0.0068
     5 (A) A   8 (A) A    9 (A) A   20 (A) A     -0.0068
     3 (A) A              9 (A) A                -0.0066
     7 (A) A   7 (A) B   20 (A) A   22 (A) B      0.0065
     5 (A) A   7 (A) B   11 (A) A   20 (A) B      0.0061
     4 (A) A   7 (A) A    9 (A) A   19 (A) A     -0.0061
     4 (A) A   5 (A) B   10 (A) A    9 (A) B      0.0060
     7 (A) A   8 (A) B   17 (A) A    9 (A) B     -0.0059
     4 (A) A   7 (A) B    9 (A) A   14 (A) B     -0.0059
    -----------------------------------------------------

  Density matrix analysis:
  ------------------------
  NOs
    Occupation of frontier NOs:
       0.9513   1.0575
    Number of electrons: 16.000000
    Number of unpaired electrons: n_u =  2.35148, n_u,nl =  2.06531
    NO participation ratio (PR_NO):  3.048498
  
  
  Mulliken Population Analysis
  Atom      Charge (e)              h+              e-           Del q
  --------------------------------------------------------------------
   1 H        0.119415        0.100903       -0.032222        0.068681
   2 C       -0.289532        0.258503       -0.460392       -0.201889
   3 H        0.161460        0.130871       -0.017155        0.113716
   4 C       -0.306136        0.287291       -0.482287       -0.194996
   5 H        0.175242        0.160723       -0.038076        0.122646
   6 H        0.139552        0.105077       -0.013237        0.091841
  --------------------------------------------------------------------
  Sum:       -0.000000        1.043367       -1.043367        0.000000
  
  Multipole moment analysis of the density matrix
    Molecular charge:                      -0.000000
    Number of electrons:                   16.000000
      Center of electronic charge [Ang]: [ -1.557809,  -0.082254,   0.002064]
    Total nuclear charge:                  16.000000
      Center of nuclear charge [Ang]:    [ -1.560576,  -0.080602,   0.001978]
    Dipole moment [D]:                     0.247788
      Cartesian components [D]:          [ -0.212700,   0.126942,  -0.006571]
    RMS size of the density [Ang]:         1.194741
      Cartesian components [Ang]:        [  0.790946,   0.756262,   0.479457]
  
  Exciton analysis of the difference density matrix
    <r_h> [Ang]:                  [ -1.584769,  -0.015545,   0.005010]
    <r_e> [Ang]:                  [ -1.544607,  -0.043448,   0.005635]
    |<r_e - r_h>| [Ang]:            0.048908
    Hole size [Ang]:                1.486061
      Cartesian components [Ang]: [  0.940464,   1.054524,   0.460307]
    Electron size [Ang]:            1.480418
      Cartesian components [Ang]: [  0.880891,   0.862194,   0.819934]

  Transition density matrix analysis:
  -----------------------------------
  
  CT numbers (Mulliken)
    omega =     0.9237
    <Phe> =    -0.0117
  
  Exciton analysis of the transition density matrix
    Trans. dipole moment [D]:             0.082272
      Cartesian components [D]:         [  0.052353,  -0.043086,  -0.046598]
    <r_h> [Ang]:                        [ -1.589714,  -0.006973,   0.004995]
    <r_e> [Ang]:                        [ -1.539572,  -0.048610,   0.005595]
    |<r_e - r_h>| [Ang]:                  0.065178
    Hole size [Ang]:                      1.512448
      Cartesian components [Ang]:       [  0.954409,   1.083496,   0.450154]
    Electron size [Ang]:                  1.477930
      Cartesian components [Ang]:       [  0.873425,   0.850583,   0.835413]
    RMS electron-hole separation [Ang]:   2.097045
      Cartesian components [Ang]:       [  1.278468,   1.365322,   0.948162]
    Covariance(r_h, r_e) [Ang^2]:         0.039213
    Correlation coefficient:              0.017543
    Center-of-mass size [Ang]:            1.066560
      Cartesian components [Ang]:       [  0.654898,   0.695079,   0.474894]

  Decomposition into state-averaged NTOs
    H- 1 -> L+ 0:  0.6597 ( 87.0%)
    H- 0 -> L+ 2: -0.1498 (  4.5%)
                   omega =  92.4%
  ----------------------------------------------------------------------------


  Excited state 3 (singlet, A)                                     [converged]
  ----------------------------------------------------------------------------
  Term symbol:  4 (1) A                                     R^2 =  1.06921e-13

  Total energy:                                            -77.9761083901 a.u.
  Excitation energy:                                               9.278818 eV

  Osc. strength:                                                      0.023269
  Trans. dip. moment [a.u.]:           [   0.019341,    0.015018,   -0.318995]
  <i|r^2|0> [a.u.]:                    [   0.120254,    0.010643,   -0.009031]
  Two-photon absorption cross-section (SoS) [a.u.]:                   0.699981
  Two-photon absorption matrix (SoS) [a.u.]:
                                       |   -0.004476   -0.019953    0.173688 |
                                       |   -0.019953   -0.044975    0.234903 |
                                       |    0.173688    0.234903    0.037253 |
  Two-photon absorption cross-section [a.u.]:                         0.453080
  Two-photon absorption matrix [a.u.]:
                                       |   -0.003384   -0.013468    0.106954 |
                                       |   -0.013468   -0.041709    0.208838 |
                                       |    0.106954    0.208838    0.030815 |

  Dip. moment [a.u.]:                  [  -0.222527,   -0.388209,   -0.032541]
  Total dipole [Debye]:                                               1.140345
  <r^2> [a.u.]:                        [ 179.266150,   40.012374,   11.019303]
  Total <r^2> [a.u.]:                                               230.297828

  V1^2 = 0.9582, V2^2 = 0.0418

  Important amplitudes:
      occ i     occ j     vir a      vir b          v   
    -----------------------------------------------------
     8 (A) A             10 (A) A                 0.6835
     7 (A) A              9 (A) A                -0.0756
     8 (A) A             24 (A) A                 0.0498
     8 (A) A             11 (A) A                -0.0349
     8 (A) A             18 (A) A                -0.0315
     4 (A) A              9 (A) A                 0.0243
     8 (A) A   8 (A) B    9 (A) A   12 (A) B     -0.0212
     8 (A) A   8 (A) B   10 (A) A   17 (A) B      0.0175
     5 (A) A   8 (A) B   11 (A) A   10 (A) B     -0.0167
     8 (A) A             15 (A) A                -0.0146
     7 (A) A   8 (A) B   13 (A) A   10 (A) B     -0.0142
     8 (A) A             13 (A) A                -0.0133
     6 (A) A   8 (A) A   10 (A) A   15 (A) A     -0.0111
     4 (A) A   8 (A) B   12 (A) A   10 (A) B     -0.0111
     6 (A) A   8 (A) B   15 (A) A   10 (A) B      0.0108
     7 (A) A   8 (A) B   22 (A) A   10 (A) B     -0.0107
     4 (A) A   8 (A) A   10 (A) A   12 (A) A      0.0107
     8 (A) A             21 (A) A                 0.0100
     7 (A) A   8 (A) A   10 (A) A   22 (A) A      0.0099
     7 (A) A   8 (A) A   10 (A) A   13 (A) A      0.0098
     5 (A) A   8 (A) A   10 (A) A   11 (A) A      0.0097
     5 (A) A   8 (A) B   21 (A) A   10 (A) B      0.0092
     6 (A) A   8 (A) B   10 (A) A   10 (A) B      0.0091
     8 (A) A             16 (A) A                -0.0089
     7 (A) A   8 (A) A   12 (A) A   16 (A) A     -0.0082
     6 (A) A   8 (A) A   10 (A) A   18 (A) A      0.0082
     7 (A) A             20 (A) A                -0.0081
     5 (A) A   8 (A) A   10 (A) A   21 (A) A     -0.0079
     3 (A) A   4 (A) B   10 (A) A    9 (A) B     -0.0079
     4 (A) A   8 (A) B   19 (A) A   10 (A) B      0.0075
     8 (A) A   8 (A) B    9 (A) A   19 (A) B      0.0071
     7 (A) A   8 (A) B   16 (A) A   12 (A) B      0.0071
     8 (A) A   8 (A) B   10 (A) A   28 (A) B     -0.0070
     5 (A) A   8 (A) B   10 (A) A   11 (A) B     -0.0070
     3 (A) A   8 (A) B   10 (A) A   10 (A) B      0.0070
     3 (A) A   8 (A) A   10 (A) A   24 (A) A     -0.0069
     8 (A) A   8 (A) B    9 (A) A   23 (A) B      0.0069
     3 (A) A   8 (A) B   10 (A) A   18 (A) B     -0.0068
     8 (A) A             22 (A) A                -0.0068
     6 (A) A   8 (A) B   18 (A) A   10 (A) B     -0.0062
    -----------------------------------------------------

  Density matrix analysis:
  ------------------------
  NOs
    Occupation of frontier NOs:
       0.9735   0.9936
    Number of electrons: 16.000000
    Number of unpaired electrons: n_u =  2.30938, n_u,nl =  2.03002
    NO participation ratio (PR_NO):  2.744789
  
  
  Mulliken Population Analysis
  Atom      Charge (e)              h+              e-           Del q
  --------------------------------------------------------------------
   1 H       -0.192638        0.053793       -0.297165       -0.243372
   2 C        0.322081        0.522626       -0.112901        0.409725
   3 H       -0.103315        0.056887       -0.207946       -0.151059
   4 C        0.304944        0.532324       -0.116239        0.416085
   5 H       -0.216802        0.055646       -0.325044       -0.269398
   6 H       -0.114270        0.055750       -0.217731       -0.161981
  --------------------------------------------------------------------
  Sum:       -0.000000        1.277026       -1.277026        0.000000
  
  Multipole moment analysis of the density matrix
    Molecular charge:                      -0.000000
    Number of electrons:                   16.000000
      Center of electronic charge [Ang]: [ -1.553216,  -0.067763,   0.003054]
    Total nuclear charge:                  16.000000
      Center of nuclear charge [Ang]:    [ -1.560576,  -0.080602,   0.001978]
    Dipole moment [D]:                     1.140345
      Cartesian components [D]:          [ -0.565607,  -0.986728,  -0.082710]
    RMS size of the density [Ang]:         1.270252
      Cartesian components [Ang]:        [  0.851467,   0.834084,   0.439145]
  
  Exciton analysis of the difference density matrix
    <r_h> [Ang]:                  [ -1.560525,  -0.073466,   0.002670]
    <r_e> [Ang]:                  [ -1.470176,   0.085299,   0.015593]
    |<r_e - r_h>| [Ang]:            0.183129
    Hole size [Ang]:                1.407315
      Cartesian components [Ang]: [  0.835279,   0.817815,   0.783596]
    Electron size [Ang]:            2.064739
      Cartesian components [Ang]: [  1.358889,   1.374957,   0.725302]

  Transition density matrix analysis:
  -----------------------------------
  
  CT numbers (Mulliken)
    omega =     0.9262
    <Phe> =    -0.0112
  
  Exciton analysis of the transition density matrix
    Trans. dipole moment [D]:             0.406595
      Cartesian components [D]:         [  0.024579,   0.019086,  -0.405402]
    <r_h> [Ang]:                        [ -1.563105,  -0.089666,   0.001807]
    <r_e> [Ang]:                        [ -1.439318,   0.139336,   0.020060]
    |<r_e - r_h>| [Ang]:                  0.260956
    Hole size [Ang]:                      1.205708
      Cartesian components [Ang]:       [  0.638488,   0.617914,   0.815014]
    Electron size [Ang]:                  2.269829
      Cartesian components [Ang]:       [  1.491292,   1.512825,   0.799709]
    RMS electron-hole separation [Ang]:   2.573347
      Cartesian components [Ang]:       [  1.619237,   1.643097,   1.140359]
    Covariance(r_h, r_e) [Ang^2]:         0.025920
    Correlation coefficient:              0.009471
    Center-of-mass size [Ang]:            1.290126
      Cartesian components [Ang]:       [  0.814959,   0.820607,   0.571725]

  Decomposition into state-averaged NTOs
    H- 0 -> L+ 1: -0.6636 ( 88.1%)
    H- 0 -> L+ 2: -0.1266 (  3.2%)
    H- 1 -> L+ 0: -0.0749 (  1.1%)
                   omega =  92.6%
  ----------------------------------------------------------------------------


  Excited state 4 (singlet, A)                                     [converged]
  ----------------------------------------------------------------------------
  Term symbol:  5 (1) A                                     R^2 =  2.45410e-13

  Total energy:                                            -77.9551996820 a.u.
  Excitation energy:                                               9.847773 eV

  Osc. strength:                                                      0.000853
  Trans. dip. moment [a.u.]:           [  -0.004369,   -0.002175,    0.059265]
  <i|r^2|0> [a.u.]:                    [  -0.043936,   -0.018102,    0.034968]
  Two-photon absorption cross-section (SoS) [a.u.]:                 130.493770
  Two-photon absorption matrix (SoS) [a.u.]:
                                       |   -0.260068   -0.300454    2.742324 |
                                       |   -0.300454   -0.352784    2.901551 |
                                       |    2.742324    2.901551    0.610022 |
  Two-photon absorption cross-section [a.u.]:                        75.727121
  Two-photon absorption matrix [a.u.]:
                                       |   -0.163675   -0.227867    2.030318 |
                                       |   -0.227867   -0.303059    2.263649 |
                                       |    2.030318    2.263649    0.465511 |

  Dip. moment [a.u.]:                  [   0.368854,    0.380391,    0.041270]
  Total dipole [Debye]:                                               1.350846
  <r^2> [a.u.]:                        [ 182.723845,   40.696550,   10.713186]
  Total <r^2> [a.u.]:                                               234.133581

  V1^2 = 0.9634, V2^2 = 0.0366

  Important amplitudes:
      occ i     occ j     vir a      vir b          v   
    -----------------------------------------------------
     8 (A) A             11 (A) A                -0.6696
     7 (A) A              9 (A) A                -0.1394
     8 (A) A             21 (A) A                 0.0768
     8 (A) A             16 (A) A                -0.0668
     8 (A) A             10 (A) A                -0.0505
     5 (A) A   8 (A) B   11 (A) A   11 (A) B      0.0159
     8 (A) A   8 (A) B    9 (A) A   13 (A) B     -0.0158
     8 (A) A             12 (A) A                -0.0156
     8 (A) A   8 (A) B   11 (A) A   17 (A) B     -0.0141
     6 (A) A              9 (A) A                -0.0133
     7 (A) A   8 (A) B   13 (A) A   11 (A) B      0.0128
     7 (A) A             20 (A) A                -0.0125
     4 (A) A   8 (A) B   12 (A) A   11 (A) B      0.0111
     5 (A) A   8 (A) A   11 (A) A   21 (A) A      0.0109
     8 (A) A   8 (A) B    9 (A) A   22 (A) B     -0.0105
     8 (A) A             14 (A) A                 0.0099
     7 (A) A   8 (A) A   11 (A) A   22 (A) A     -0.0095
     6 (A) A   8 (A) B   15 (A) A   11 (A) B     -0.0091
     6 (A) A   8 (A) B   10 (A) A   11 (A) B     -0.0090
     7 (A) A   8 (A) B   22 (A) A   11 (A) B      0.0089
     8 (A) A             19 (A) A                 0.0086
     8 (A) A             24 (A) A                -0.0085
     3 (A) A   4 (A) B   11 (A) A    9 (A) B      0.0082
     6 (A) A   8 (A) A   11 (A) A   15 (A) A      0.0082
     3 (A) A   8 (A) B   11 (A) A   18 (A) B      0.0081
     7 (A) A   8 (A) A   13 (A) A   16 (A) A     -0.0078
     7 (A) A   8 (A) A   11 (A) A   13 (A) A     -0.0075
     4 (A) A   8 (A) B   19 (A) A   11 (A) B     -0.0071
     5 (A) A   8 (A) B   21 (A) A   11 (A) B     -0.0070
     8 (A) A             13 (A) A                -0.0068
     4 (A) A   8 (A) A   11 (A) A   12 (A) A     -0.0063
     5 (A) A   8 (A) B    9 (A) A    9 (A) B      0.0059
     3 (A) A   6 (A) B   11 (A) A   28 (A) B     -0.0059
     6 (A) A   8 (A) A   11 (A) A   18 (A) A     -0.0057
     3 (A) A   8 (A) B   11 (A) A   30 (A) B      0.0057
     6 (A) A   8 (A) B   18 (A) A   11 (A) B      0.0056
     3 (A) A   8 (A) A   11 (A) A   18 (A) A      0.0056
     7 (A) A   8 (A) B   16 (A) A   13 (A) B      0.0056
     3 (A) A   5 (A) B   11 (A) A   25 (A) B      0.0055
     8 (A) A   8 (A) B   20 (A) A   22 (A) B     -0.0054
    -----------------------------------------------------

  Density matrix analysis:
  ------------------------
  NOs
    Occupation of frontier NOs:
       0.9474   1.0220
    Number of electrons: 16.000000
    Number of unpaired electrons: n_u =  2.31696, n_u,nl =  2.04460
    NO participation ratio (PR_NO):  2.874600
  
  
  Mulliken Population Analysis
  Atom      Charge (e)              h+              e-           Del q
  --------------------------------------------------------------------
   1 H       -0.053008        0.043358       -0.147100       -0.103742
   2 C        0.289495        0.500862       -0.123724        0.377138
   3 H       -0.228564        0.047426       -0.323734       -0.276307
   4 C        0.260127        0.502952       -0.131684        0.371268
   5 H       -0.075473        0.047331       -0.175400       -0.128069
   6 H       -0.192577        0.045113       -0.285401       -0.240289
  --------------------------------------------------------------------
  Sum:       -0.000000        1.187042       -1.187042        0.000000
  
  Multipole moment analysis of the density matrix
    Molecular charge:                      0.000000
    Number of electrons:                   16.000000
      Center of electronic charge [Ang]: [ -1.572776,  -0.093183,   0.000613]
    Total nuclear charge:                  16.000000
      Center of nuclear charge [Ang]:    [ -1.560576,  -0.080602,   0.001978]
    Dipole moment [D]:                     1.350846
      Cartesian components [D]:          [  0.937534,   0.966857,   0.104897]
    RMS size of the density [Ang]:         1.271003
      Cartesian components [Ang]:        [  0.851099,   0.838796,   0.433012]
  
  Exciton analysis of the difference density matrix
    <r_h> [Ang]:                  [ -1.572321,  -0.091602,   0.001075]
    <r_e> [Ang]:                  [ -1.738759,  -0.263439,  -0.017926]
    |<r_e - r_h>| [Ang]:            0.239980
    Hole size [Ang]:                1.384850
      Cartesian components [Ang]: [  0.808885,   0.801997,   0.787601]
    Electron size [Ang]:            2.091318
      Cartesian components [Ang]: [  1.363927,   1.435237,   0.673355]

  Transition density matrix analysis:
  -----------------------------------
  
  CT numbers (Mulliken)
    omega =     0.9305
    <Phe> =    -0.0140
  
  Exciton analysis of the transition density matrix
    Trans. dipole moment [D]:             0.075573
      Cartesian components [D]:         [ -0.005553,  -0.002764,   0.075318]
    <r_h> [Ang]:                        [ -1.561368,  -0.081901,   0.002327]
    <r_e> [Ang]:                        [ -1.775195,  -0.298253,  -0.021853]
    |<r_e - r_h>| [Ang]:                  0.305147
    Hole size [Ang]:                      1.214457
      Cartesian components [Ang]:       [  0.646575,   0.638925,   0.805371]
    Electron size [Ang]:                  2.228302
      Cartesian components [Ang]:       [  1.449630,   1.533303,   0.716161]
    RMS electron-hole separation [Ang]:   2.545335
      Cartesian components [Ang]:       [  1.593761,   1.666655,   1.077460]
    Covariance(r_h, r_e) [Ang^2]:         0.027310
    Correlation coefficient:              0.010092
    Center-of-mass size [Ang]:            1.274251
      Cartesian components [Ang]:       [  0.797594,   0.834798,   0.539139]

  Decomposition into state-averaged NTOs
    H- 0 -> L+ 2: -0.6514 ( 84.9%)
    H- 0 -> L+ 1:  0.1404 (  3.9%)
    H- 1 -> L+ 0: -0.1375 (  3.8%)
                   omega =  93.0%
  ----------------------------------------------------------------------------


  Excited state 5 (singlet, A)                                     [converged]
  ----------------------------------------------------------------------------
  Term symbol:  6 (1) A                                     R^2 =  4.26936e-13

  Total energy:                                            -77.9358517410 a.u.
  Excitation energy:                                              10.374258 eV

  Osc. strength:                                                      0.000063
  Trans. dip. moment [a.u.]:           [   0.000174,   -0.001265,    0.015713]
  <i|r^2|0> [a.u.]:                    [   0.079276,   -0.082169,    0.001679]
  Two-photon absorption cross-section (SoS) [a.u.]:                 266.453316
  Two-photon absorption matrix (SoS) [a.u.]:
                                       |    0.408208    0.119780   -4.379715 |
                                       |    0.119780   -0.452038    3.731521 |
[...]
    16   -1.451112063417e-03
    17   -1.615735791574e-03
    18   -2.257778914526e-05
    19   -2.990855234507e-03
    20    4.567356647616e-03
    21    8.304399750969e-01
    22   -6.917524837918e-04
    23    1.260151093396e-02
    24    6.859220122423e-04
    25    7.183962649960e-02
    26   -5.354620554607e-02
    27   -1.398969617829e+00
    28    8.686430723424e-02
    29   -1.120420817723e-01
    30   -1.574088146690e-03
    31    3.823596828863e-01
    32   -4.179676135753e-01
    33   -3.080876407831e-03
    34    1.525282662460e-02
    35   -1.664015341990e-03
    36   -1.467767870351e-03
    37   -2.898158230276e-03
    38   -2.851205183892e-03
    39    1.431454345149e-02
    40    9.850250241510e-01
    41   -7.417210713361e-04
    42   -1.328840299600e-02
    43   -7.837487566581e-04
    44    6.084902960947e-03
    45    9.218686317836e-01
    46    1.427296796736e-02
    47   -1.448390339409e-04
    48    7.245498197045e-04
Sym=X
Ene= 0.230584
Spin=Alpha
Occup=0
     1   -2.972817455733e-02
     2   -1.112533386754e+00
     3    1.118563468539e-02
     4    3.447107180554e-03
     5    7.399292766778e-04
     6    5.014198931181e-03
     7    2.427621190657e-04
     8   -1.668652746068e-01
     9    1.414823800830e-01
    10    1.696289305718e-01
    11    1.667795928747e-02
    12    5.299969983464e-01
    13    5.737220382104e-01
    14    5.860432676428e-02
    15    2.951888578353e-03
    16   -4.239758521515e-04
    17   -1.207586503279e-04
    18   -3.159515182955e-03
    19   -1.454761324282e-03
    20    3.081097998121e-02
    21    1.272115634216e+00
    22    2.375647111561e-03
    23    1.552359478810e-02
    24    1.021574564077e-03
    25    3.497365638600e-03
    26   -5.517685173179e-03
    27   -7.126674356220e-02
    28    1.565272083117e-01
    29    1.636079873203e-01
    30    1.727371707485e-02
    31    5.724218043126e-01
    32    4.947593979772e-01
    33    5.710504733069e-02
    34    6.126642258794e-04
    35   -1.247874244362e-04
    36   -2.144853226783e-04
    37    9.637866081079e-04
    38   -5.708622595443e-04
    39   -3.406902246474e-02
    40   -1.087055079258e+00
    41    1.476983615603e-03
    42    1.226029586332e-02
    43    7.922670789221e-04
    44    2.555327985809e-02
    45    1.225872356172e+00
    46    1.409631325290e-02
    47    3.960911147679e-03
    48    9.243438661425e-04
Sym=X
Ene= 0.238592
Spin=Alpha
Occup=0
     1    1.464471296590e-02
     2    1.129614722526e+00
     3   -1.738454558867e-02
     4   -9.266845383156e-03
     5   -1.369033946727e-03
     6    8.748807689374e-02
     7   -8.259405193096e-02
     8   -1.589508787994e+00
     9   -6.402489957633e-02
    10    5.553740758651e-02
    11    3.883502595564e-04
    12   -2.602141810763e-01
    13    2.437994159387e-01
    14    2.989298743686e-03
    15    2.298498237872e-02
    16   -2.622086873452e-03
    17   -3.051321196345e-03
    18    1.127173011201e-04
    19   -1.310737824953e-02
    20    1.736425382180e-02
    21    1.099408691309e+00
    22    8.292813291085e-03
    23    1.757622120585e-02
    24    1.437702505988e-03
    25   -8.378944663129e-02
    26    7.757038150709e-02
    27    1.508139311138e+00
    28   -5.933354900861e-02
    29    6.003992784380e-02
    30    7.157473080152e-05
    31   -2.633700490614e-01
    32    2.313320486642e-01
    33   -1.156199098768e-03
    34   -2.144654425398e-02
    35    2.582276346993e-03
    36    2.721368854129e-03
    37    1.003677803313e-03
    38    1.216571652997e-02
    39   -1.657080644831e-02
    40   -1.009124208918e+00
    41    9.118294150217e-03
    42    1.507697246976e-02
    43    1.287372600583e-03
    44   -1.855943067978e-02
    45   -1.114574127244e+00
    46   -1.728378961149e-02
    47   -9.230979396922e-03
    48   -1.424490515840e-03
Sym=X
Ene= 0.304581
Spin=Alpha
Occup=0
     1   -2.787021799279e-02
     2    1.719842727804e+00
     3   -2.365672153716e-02
     4    4.703724424791e-05
     5   -1.076714056975e-03
     6    4.354976635200e-04
     7    8.921271969154e-04
     8   -5.035814253064e-02
     9   -1.353104263778e-01
    10   -1.371540588404e-01
    11   -1.449521174341e-02
    12   -1.153262573553e+00
    13   -1.231306590552e+00
    14   -1.277137025302e-01
    15    3.354215151151e-04
    16   -1.802484846450e-03
    17    1.881810049161e-03
    18   -3.419591627630e-02
    19   -3.009095973829e-03
    20    2.257380877156e-02
    21   -1.680765475453e+00
    22    2.381892673732e-03
    23   -2.290968608387e-02
    24   -1.278707338088e-03
    25   -5.623052336399e-04
    26    1.457479272970e-03
    27   -8.019698522033e-02
    28    1.363042769714e-01
    29    1.406895193227e-01
    30    1.488638745805e-02
    31    1.158161494426e+00
    32    1.183078718652e+00
    33    1.255116406100e-01
    34    1.004248692882e-03
    35   -1.898041392366e-03
    36    1.509612733983e-03
    37   -3.152203986271e-02
    38   -3.689722600132e-03
    39    1.205921803497e-02
    40   -1.616247640165e+00
    41   -3.050687228726e-03
    42    2.263569422241e-02
    43    1.203207943527e-03
    44   -2.506124873991e-02
    45    1.719891729925e+00
    46    2.322275893492e-02
    47   -3.084253353501e-04
    48    1.084931603098e-03
Sym=X
Ene= 0.467744
Spin=Alpha
Occup=0
     1   -1.120085425149e-01
     2   -7.446584046885e-01
     3   -1.677573016683e-02
     4   -1.272970540464e-02
     5   -1.536920216248e-03
     6    5.994496796753e-02
     7    2.541469443286e-02
     8   -3.947211317793e+00
     9    8.896478315842e-02
    10   -8.462804158434e-02
    11   -3.762555489441e-04
    12    2.603093684227e+00
    13   -2.388132691547e+00
    14   -2.482918002136e-02
    15    5.954739371962e-02
    16   -3.756338035420e-03
    17   -5.364489854485e-03
    18    1.014086170476e-03
    19    1.796527941700e-02
    20   -1.502343897466e-01
    21   -6.843357204247e-01
    22    6.843402542971e-03
    23    1.984286690303e-02
    24    1.509697975696e-03
    25   -6.155392156622e-02
    26   -1.627713522979e-02
    27    3.985278341261e+00
    28    1.020322045067e-01
    29   -1.027609583207e-01
    30   -4.500622284453e-04
    31    2.593085118369e+00
    32   -2.312834930214e+00
    33   -1.893849877099e-02
    34   -5.461208284362e-02
    35    2.906382388683e-03
    36    4.570757538381e-03
    37   -1.060641977180e-03
    38   -2.529915126203e-02
    39    1.277741947660e-01
    40    6.246390354974e-01
    41    4.537175989767e-03
    42    1.867515389158e-02
    43    1.355069408996e-03
    44    7.453309221012e-02
    45    8.253583666660e-01
    46   -1.595700426704e-02
    47   -1.183593988788e-02
    48   -1.448443010891e-03
Sym=X
Ene= 0.573924
Spin=Alpha
Occup=0
     1   -2.128812207542e-01
     2   -3.361401365086e-02
     3    2.184968827965e-02
     4   -2.198976635710e-02
     5   -2.892193597541e-04
     6    3.710467766352e-03
     7    1.789696115270e-01
     8    6.315666763432e-01
     9   -3.047746415963e-01
    10    3.013517707168e-01
    11    3.941103349976e-03
    12    6.016558128380e-01
    13   -6.066125362283e-01
    14   -7.402634242057e-03
    15    1.707170713101e-03
    16   -2.622757324825e-03
    17   -3.446260680495e-03
    18    1.310829942069e-02
    19   -5.195465100127e-02
    20   -2.434470270798e-01
    21    3.589407970785e-02
    22    2.540092836101e-02
    23   -1.668826164815e-02
    24    1.900285781859e-04
    25    1.222654731165e-02
    26    1.861552401954e-01
    27    1.776739281216e-01
    28    2.896416044153e-01
    29   -2.907403866100e-01
    30   -4.347897930048e-03
    31   -9.062372285965e-01
    32    8.579896694620e-01
    33    8.281700505621e-03
    34    3.334432231932e-03
    35   -2.697683077361e-03
    36   -3.673923067087e-03
    37    1.466056264009e-02
    38   -5.198307765469e-02
    39   -2.415191835463e-01
    40   -3.335778577552e-02
    41   -3.061442553185e-02
    42    2.085923262420e-02
    43   -2.244595980837e-04
    44   -2.002593222595e-01
    45   -1.789942984063e-01
    46   -2.331214317539e-02
    47    2.590216199562e-02
    48    4.123985560948e-04
Sym=X
Ene= 0.614113
Spin=Alpha
Occup=0
     1   -5.445693042864e-01
     2    1.800326832397e-01
     3   -6.522687438649e-02
     4    3.464633101257e-02
     5   -9.856821218512e-04
     6   -2.949542854999e-03
     7   -5.010145398837e-04
     8   -2.066217207016e-01
     9   -3.816755329766e-02
    10   -3.191961568267e-02
    11   -3.588166663586e-03
    12    4.151904431210e-01
    13    1.415612316172e-01
    14    2.731019513034e-02
    15    1.213042403269e-02
    16   -8.128709162279e-03
    17    7.174809196083e-03
    18   -1.449594724883e-01
    19   -5.297809901185e-03
    20    4.682692927675e-01
    21   -2.378364271353e-01
    22    4.435389436038e-02
    23   -5.491666890092e-02
    24   -1.220336909294e-03
    25    2.529491811516e-03
    26    1.112979105803e-02
    27    1.299790735873e-01
    28   -4.517567656337e-02
    29   -1.668776189204e-02
    30   -2.949122299701e-03
    31    4.326765329727e-01
    32    8.756624968936e-02
    33    2.578436940042e-02
    34   -3.587680823129e-03
    35    7.966315574347e-03
    36   -8.669269907422e-03
    37    1.562489442711e-01
    38   -1.909894208064e-04
    39   -5.208217658733e-01
    40    3.605939267866e-01
    41    4.267255400414e-02
    42   -5.952939171811e-02
    43   -1.439063805694e-03
    44    5.442815038092e-01
    45   -1.966186783588e-01
    46   -6.434789320680e-02
    47    3.300441613800e-02
    48   -1.135783259160e-03
Sym=X
Ene= 0.682942
Spin=Alpha
Occup=0
     1   -1.570315723287e-03
     2   -1.069430959614e-03
     3    8.200001955751e-04
     4    1.004776760058e-03
     5   -1.997235029272e-02
     6   -8.749206891591e-05
     7   -4.130643867525e-04
     8   -1.946199743830e-03
     9    3.134987568200e-02
    10    3.923485712183e-02
    11   -6.629199998014e-01
    12   -2.545107138058e-02
    13   -3.944960411800e-02
    14    6.133701001906e-01
    15   -9.508057316686e-04
    16    8.477490677443e-02
    17   -7.671712976870e-02
    18   -8.621177786718e-03
    19   -1.898760165419e-03
    20   -1.392577524781e-03
    21   -1.359454195696e-03
    22    1.087841883204e-03
    23    1.272557677767e-03
    24   -1.988555829093e-02
    25   -3.233721093880e-05
    26   -1.319771749259e-03
    27    3.196703971516e-03
    28    3.106808102319e-02
    29    4.003732930907e-02
    30   -6.635725949152e-01
    31   -2.505173857544e-02
    32   -4.008031278245e-02
    33    6.110778923574e-01
    34    1.538060445099e-03
    35   -8.518473151126e-02
    36    7.643315559091e-02
    37    8.509495071920e-03
    38    1.694232511559e-03
    39   -2.814302767764e-05
    40    1.994560941068e-03
    41    7.365487647850e-04
    42    5.131389837217e-04
    43   -1.366941035357e-02
    44    6.417454231078e-05
    45    2.486532342562e-03
    46    1.405578909060e-03
    47    1.295747383577e-03
    48   -2.214171370832e-02
Sym=X
Ene= 0.706867
Spin=Alpha
Occup=0
     1   -4.542758692221e-01
     2    1.753052109011e-01
     3   -7.603242801589e-02
     4   -4.615758918968e-02
     5   -6.151535902303e-03
     6   -4.629829118214e-02
     7   -3.189372438014e-01
     8    6.405367622604e-01
     9    1.973936496919e-01
    10   -1.653272120361e-01
    11    4.869460083832e-04
    12   -1.581739034670e-01
    13    5.332438771942e-02
    14   -3.220130184985e-03
    15    1.847031337556e-01
    16   -1.984752376257e-02
    17   -2.348098988914e-02
    18    4.704786762739e-03
    19   -8.373195636591e-02
    20   -4.960539823446e-01
    21    1.229144208943e-01
    22    4.032279691209e-02
    23    7.457314040328e-02
    24    6.497634967784e-03
    25   -4.637561105787e-02
    26   -2.988460761822e-01
    27    3.680837763738e-01
    28   -1.729555828249e-01
    29    1.835381589002e-01
    30    4.049366601335e-03
    31   -5.707882328459e-02
    32    9.752666957624e-03
    33   -5.535209602585e-03
    34    1.978448230180e-01
    35   -2.065419302878e-02
    36   -2.432650163457e-02
    37    2.468646080662e-04
    38   -7.535244726724e-02
    39   -5.121392522966e-01
    40    1.916512161577e-01
    41   -4.426791284970e-02
    42   -7.738954329619e-02
    43   -6.823815301725e-03
    44   -4.995561063039e-01
    45    9.924339281572e-02
    46    8.301980389835e-02
    47    4.196821014350e-02
    48    6.352654788549e-03
Sym=X
Ene= 0.789418
Spin=Alpha
Occup=0
     1   -5.277288458644e-01
     2    4.927607703365e-01
     3   -1.104311575706e-01
     4   -2.834522469363e-02
     5   -6.796051192153e-03
     6   -9.181077659782e-02
     7    1.895667708423e-01
     8    8.087187214211e-01
     9   -8.211853090655e-02
    10    5.494699598192e-02
    11    1.344642159576e-03
    12   -4.496382084397e-01
    13    4.130876989612e-01
    14    1.095029687078e-03
    15    2.115899813048e-01
    16   -1.782223514410e-02
    17   -2.401788922199e-02
    18    1.528331729128e-02
    19   -2.284429508994e-02
    20   -5.533710419852e-01
    21    5.434905842098e-01
    22    2.564940054044e-02
    23    1.248351369403e-01
    24    8.698948187513e-03
    25    8.808725071790e-02
    26   -2.484999143171e-01
    27   -7.612929431034e-01
    28   -1.334935641725e-01
    29    2.648450310655e-02
    30   -5.724026962597e-03
    31   -3.247106794620e-01
    32    4.935037781755e-01
    33    1.748568201314e-02
    34   -1.962994177683e-01
    35    1.638648431185e-02
    36    2.195103225984e-02
    37   -2.029071532574e-02
    38    1.372916578113e-02
    39    5.797326440752e-01
    40   -6.601006814112e-01
    41    2.541594466233e-02
    42    1.254460653644e-01
    43    8.662799104749e-03
    44    4.925540335665e-01
    45   -3.893948955723e-01
    46   -9.596777615772e-02
    47   -2.746899332405e-02
    48   -6.178328569158e-03
Sym=X
Ene= 0.810780
Spin=Alpha
Occup=0
     1   -9.568767911914e-04
     2    6.389705528468e-04
     3    1.453333220278e-03
     4    1.993468516609e-03
     5   -3.311409222780e-02
     6   -2.194432814806e-04
     7    1.108877210068e-03
     8    5.636013919584e-04
     9    3.491647344095e-02
    10    4.604013853301e-02
    11   -7.629441476395e-01
    12   -5.356140044866e-02
    13   -6.777710780089e-02
    14    1.141623570920e+00
    15    1.572846858173e-03
    16   -7.471538639347e-02
    17    6.730594352709e-02
    18    7.667078446399e-03
    19    1.540308123419e-03
    20   -1.025803115587e-03
    21    1.543877371862e-03
    22    1.790688119662e-03
    23    2.410597911216e-03
    24   -3.689261161693e-02
    25    1.357184647693e-04
    26    3.897994008327e-04
    27   -1.412519459237e-03
    28   -3.660571532258e-02
    29   -4.600581861558e-02
    30    7.640368681921e-01
    31    5.332031313846e-02
    32    7.042927812200e-02
    33   -1.139916728908e+00
    34    5.749924101706e-04
    35   -7.451860518502e-02
    36    6.757951091763e-02
    37    7.360667038236e-03
    38    1.343690567323e-03
    39    1.017251104697e-03
    40   -2.454098779893e-03
    41   -1.455481618795e-03
    42   -1.132543173609e-03
    43    2.927588841929e-02
    44    9.076829350422e-04
    45   -5.703713445657e-04
    46   -1.946790386752e-03
    47   -1.844073621557e-03
    48    3.318211503431e-02
Sym=X
Ene= 0.856442
Spin=Alpha
Occup=0
     1    2.338967464577e-02
     2   -1.082647926068e+00
     3    1.469132099266e-01
     4    5.741566660480e-02
     5    1.046120517836e-02
     6    7.030469617181e-03
     7   -4.771632453342e-02
     8    2.612999660469e-02
     9   -3.667128095126e-01
    10   -4.308793416271e-01
    11   -4.249207536683e-02
    12    9.009604271428e-01
    13    9.811131682983e-01
    14    1.000707530409e-01
    15   -1.547011160566e-02
    16    1.206492188926e-02
    17   -1.161420847837e-02
    18    2.247505848768e-01
    19    1.692573645906e-03
    20    3.146317455150e-02
    21    1.056954492621e+00
    22    5.114919210434e-02
    23    1.349531400734e-01
    24    1.034006155682e-02
    25   -9.998783000109e-03
    26   -1.471788988712e-02
    27    1.744859491800e-02
    28   -3.935891287779e-01
    29   -4.722311128295e-01
    30   -4.722417698008e-02
    31    9.509863369632e-01
    32    1.041117560188e+00
    33    1.078490856417e-01
    34    3.077532475807e-02
    35   -1.367691240538e-02
    36    1.039962452297e-02
    37   -2.318809964405e-01
    38   -1.319109856211e-03
    39   -3.141526988041e-02
    40   -1.083190116079e+00
    41    4.681380948143e-02
    42    1.439148079981e-01
    43    1.056059875505e-02
    44   -4.059991516800e-02
    45    1.104805812362e+00
    46    1.578615631548e-01
    47    4.791769357908e-02
    48    1.054750686198e-02
Sym=X
Ene= 0.936114
Spin=Alpha
Occup=0
     1    1.033597174163e-01
     2   -1.291341379771e+00
     3    1.764697581588e-01
     4   -5.216480123353e-03
     5    7.709614652676e-03
     6   -4.900076340838e-03
     7    7.833738648779e-02
     8   -1.546731335220e-01
     9   -5.041543869083e-01
    10   -4.943340652806e-01
    11   -5.323484170803e-02
    12    1.535910872557e+00
    13    1.511585540566e+00
    14    1.623201834078e-01
    15    1.518768487812e-02
    16    4.973921520114e-03
    17   -9.074520533806e-03
    18    1.276033847238e-01
    19    8.963441104876e-03
    20   -1.467417386974e-01
    21    1.314367543508e+00
    22   -1.232493879528e-02
    23    1.989296861587e-01
    24    1.150781334207e-02
    25    8.175998008792e-03
    26    1.044209856230e-01
    27   -9.912327480590e-02
    28    4.060611039682e-01
    29    5.392918456173e-01
    30    5.146929715086e-02
    31   -1.290274397481e+00
    32   -1.567843632168e+00
    33   -1.546714811494e-01
    34   -1.974786597832e-02
    35    4.587382984037e-03
    36   -5.611901808693e-03
    37    1.033129479897e-01
    38   -3.233294487096e-02
    39   -1.139237676383e-01
    40    1.272667244569e+00
    41    4.609373503756e-03
    42   -1.831214758655e-01
    43   -1.076061605408e-02
    44    1.278797002802e-01
    45   -1.119146879613e+00
    46   -1.622070720395e-01
    47    2.464203416099e-02
    48   -6.064610718417e-03
Sym=X
Ene= 0.987412
Spin=Alpha
Occup=0
     1   -4.382043006768e-02
     2    8.389529969645e-01
     3   -8.156661934024e-02
     4   -9.949992305116e-02
     5   -9.997031074599e-03
     6    3.427686420372e-02
     7    3.188268906991e-01
     8    2.775533423798e-01
     9    4.553586447358e-01
    10   -4.743911193987e-01
    11   -7.445383185406e-03
    12   -1.302333855192e+00
    13    1.437270438474e+00
    14    2.638790865963e-02
    15   -6.884646745177e-02
    16   -1.223651939214e-02
    17   -7.910563196470e-03
    18    1.825132532132e-02
    19   -3.021295180053e-01
    20   -7.155627179195e-03
    21    9.678071159454e-01
    22    9.995542237759e-02
    23    9.860948216034e-02
    24    1.048223791169e-02
    25   -3.395108764091e-02
    26   -2.677098286553e-01
    27   -3.670710784526e-01
    28    5.204082476748e-01
    29   -4.044507268154e-01
    30    7.974570139767e-04
    31   -1.600682250798e+00
    32    1.144036412362e+00
    33   -8.115840859545e-03
    34    6.680091779007e-02
    35    1.260464707823e-02
    36    5.831986377980e-03
    37    5.479078847627e-03
    38    2.888803656488e-01
    39    2.123505526121e-02
    40   -6.966873372576e-01
    41    9.527218955388e-02
    42    6.557312276776e-02
    43    7.983919348533e-03
    44    3.646498279596e-02
    45   -1.057604748586e+00
    46   -1.071555642317e-01
    47   -9.475996504297e-02
    48   -1.105190052647e-02
[5D]

======= END OF MOLDEN-FORMATTED INPUT FILE =======


        *************************************************************
        *                                                           *
        *  Thank you very much for using Q-Chem.  Have a nice day.  *
        *                                                           *
        *************************************************************


