                  Welcome to Q-Chem
     A Quantum Leap Into The Future Of Chemistry


 Q-Chem 5.4 (devel), Q-Chem, Inc., Pleasanton, CA (2021)

 E. Epifanovsky,  A. T. B. Gilbert,  Xintian Feng,  Joonho Lee,  Yuezhi Mao,  
 N. Mardirossian,  P. Pokhilko,  A. White,  M. Wormit,  M. P. Coons,  
 A. L. Dempwolff,  Zhengting Gan,  D. Hait,  P. R. Horn,  L. D. Jacobson,  
 I. Kaliman,  J. Kussmann,  A. W. Lange,  Ka Un Lao,  D. S. Levine,  Jie Liu,  
 S. C. McKenzie,  A. F. Morrison,  K. Nanda,  F. Plasser,  D. R. Rehn,  
 M. L. Vidal,  Zhi-Qiang You,  Ying Zhu,  B. Alam,  B. Albrecht,  
 A. Aldossary,  E. Alguire,  J. H. Andersen,  D. Barton,  K. Begam,  A. Behn,  
 Y. A. Bernard,  E. J. Berquist,  H. Burton,  A. Carreras,  K. Carter-Fenk,  
 R. Chakraborty,  A. D. Chien,  K. D. Closser,  V. Cofer-Shabica,  
 S. Dasgupta,  Jia Deng,  M. de Wergifosse,  M. Diedenhofen,  Hainam Do,  
 S. Ehlert,  Po-Tung Fang,  S. Fatehi,  Qingguo Feng,  T. Friedhoff,  
 J. Gayvert,  Qinghui Ge,  G. Gidofalvi,  M. Goldey,  J. Gomes,  
 C. Gonzalez-Espinoza,  S. Gulania,  A. Gunina,  M. W. D. Hanson-Heine,  
 P. H. P. Harbach,  A. W. Hauser,  M. F. Herbst,  M. Hernandez Vera,  
 M. Hodecker,  Z. C. Holden,  S. Houck,  Xunkun Huang,  Kerwin Hui,  
 B. C. Huynh,  M. Ivanov,  Hyunjun Ji,  Hanjie Jiang,  B. Kaduk,  S. Kaehler,  
 K. Khistyaev,  Jaehoon Kim,  P. Klunzinger,  Z. Koczor-Benda,  
 Joong Hoon Koh,  D. Kosenkov,  L. Koulias,  T. Kowalczyk,  C. M. Krauter,  
 K. Kue,  A. Kunitsa,  T. Kus,  A. Landau,  K. V. Lawler,  D. Lefrancois,  
 S. Lehtola,  Rain Li,  Yi-Pei Li,  Jiashu Liang,  M. Liebenthal,  
 Hung-Hsuan Lin,  You-Sheng Lin,  Fenglai Liu,  Kuan-Yu Liu,  
 M. Loipersberger,  A. Luenser,  A. Manjanath,  P. Manohar,  E. Mansoor,  
 S. F. Manzer,  Shan-Ping Mao,  A. V. Marenich,  T. Markovich,  S. Mason,  
 S. A. Maurer,  P. F. McLaughlin,  M. F. S. J. Menger,  J.-M. Mewes,  
 S. A. Mewes,  P. Morgante,  J. W. Mullinax,  K. J. Oosterbaan,  G. Paran,  
 Alexander C. Paul,  Suranjan K. Paul,  F. Pavosevic,  Zheng Pei,  S. Prager,  
 E. I. Proynov,  E. Ramos,  B. Rana,  A. E. Rask,  A. Rettig,  R. M. Richard,  
 F. Rob,  E. Rossomme,  T. Scheele,  M. Scheurer,  M. Schneider,  
 N. Sergueev,  S. M. Sharada,  W. Skomorowski,  D. W. Small,  C. J. Stein,  
 Yu-Chuan Su,  E. J. Sundstrom,  Zhen Tao,  J. Thirman,  T. Tsuchimochi,  
 N. M. Tubman,  S. P. Veccham,  O. Vydrov,  J. Wenzel,  J. Witte,  A. Yamada,  
 Kun Yao,  S. Yeganeh,  S. R. Yost,  A. Zech,  Igor Ying Zhang,  Xing Zhang,  
 Yu Zhang,  D. Zuev,  A. Aspuru-Guzik,  A. T. Bell,  N. A. Besley,  
 K. B. Bravaya,  B. R. Brooks,  D. Casanova,  Jeng-Da Chai,  S. Coriani,  
 C. J. Cramer,  A. E. DePrince, III,  R. A. DiStasio Jr.,  A. Dreuw,  
 B. D. Dunietz,  T. R. Furlani,  W. A. Goddard III,  S. Grimme,  
 S. Hammes-Schiffer,  T. Head-Gordon,  W. J. Hehre,  Chao-Ping Hsu,  
 T.-C. Jagau,  Yousung Jung,  A. Klamt,  Jing Kong,  D. S. Lambrecht,  
 WanZhen Liang,  N. J. Mayhall,  C. W. McCurdy,  J. B. Neaton,  
 C. Ochsenfeld,  J. A. Parkhill,  R. Peverati,  V. A. Rassolov,  Yihan Shao,  
 L. V. Slipchenko,  T. Stauch,  R. P. Steele,  J. E. Subotnik,  
 A. J. W. Thom,  A. Tkatchenko,  D. G. Truhlar,  T. Van Voorhis,  
 T. A. Wesolowski,  K. B. Whaley,  H. L. Woodcock III,  P. M. Zimmerman,  
 S. Faraji,  P. M. W. Gill,  M. Head-Gordon,  J. M. Herbert,  A. I. Krylov

 Additional authors for Version 5.4.1: 
 S. Kotaru,  Shaozhi Li,  Xiangyuan Li,  F. Matz,  A. Molle,  Haisheng Ren,  
 Yingli Su,  Hung-Yi Tsai,  C. Utku,  Fang Wang

 Contributors to earlier versions of Q-Chem not listed above: 
 R. D. Adamson,  B. Austin,  R. Baer,  J. Baker,  G. J. O. Beran,  
 K. Brandhorst,  S. T. Brown,  E. F. C. Byrd,  A. K. Chakraborty,  
 G. K. L. Chan,  Chun-Min Chang,  Yunqing Chen,  C.-L. Cheng,  
 Siu Hung Chien,  D. M. Chipman,  D. L. Crittenden,  H. Dachsel,  
 R. J. Doerksen,  A. D. Dutoi,  R. G. Edgar,  J. Fosso-Tande,  
 L. Fusti-Molnar,  D. Ghosh,  A. Ghysels,  A. Golubeva-Zadorozhnaya,  
 J. Gonthier,  M. S. Gordon,  S. R. Gwaltney,  G. Hawkins,  J. E. Herr,  
 A. Heyden,  S. Hirata,  E. G. Hohenstein,  G. Kedziora,  F. J. Keil,  
 C. Kelley,  Jihan Kim,  R. A. King,  R. Z. Khaliullin,  P. P. Korambath,  
 W. Kurlancheek,  A. Laurent,  A. M. Lee,  M. S. Lee,  S. V. Levchenko,  
 Ching Yeh Lin,  D. Liotard,  E. Livshits,  R. C. Lochan,  I. Lotan,  
 L. A. Martinez-Martinez,  P. E. Maslen,  N. Nair,  D. P. O'Neill,  
 D. Neuhauser,  E. Neuscamman,  C. M. Oana,  R. Olivares-Amaya,  R. Olson,  
 T. M. Perrine,  B. Peters,  P. A. Pieniazek,  A. Prociuk,  Y. M. Rhee,  
 J. Ritchie,  M. A. Rohrdanz,  E. Rosta,  N. J. Russ,  H. F. Schaefer III,  
 M. W. Schmidt,  N. E. Schultz,  S. Sharma,  N. Shenvi,  C. D. Sherrill,  
 A. C. Simmonett,  A. Sodt,  T. Stein,  D. Stuck,  K. S. Thanthiriwatte,  
 V. Vanovschi,  L. Vogt,  Tao Wang,  A. Warshel,  M. A. Watson,  
 C. F. Williams,  Q. Wu,  X. Xu,  Jun Yang,  W. Zhang,  Yan Zhao

 Please cite Q-Chem as follows:
 Y. Shao et al., Mol. Phys. 113, 184-215 (2015)
 DOI: 10.1080/00268976.2014.952696

 Q-Chem 5.4.1 for Intel X86 EM64T Linux

 Parts of Q-Chem use Armadillo 9.800.1 (Horizon Scraper).
 http://arma.sourceforge.net/

 Q-Chem begins on Wed Mar 15 17:51:17 2023  

 Host: cpu121.yggdrasil
0

     Scratch files written to /srv/beegfs/scratch/users/f/fum/qchem92146//
 Processing $rem in /home/share/wesolowski/qc5.aug2021.FDE/config/preferences:
 Processing $rem in /home/fum/.qchemrc:

 Checking the input file for inconsistencies... 	...done.

--------------------------------------------------------------
User input:
--------------------------------------------------------------
$comment
generated from CCJob.Templates
$end

$rem
sym_ignore = true
method = adc(2)
ee_states = 10
basis = cc-pVDZ
mem_static = 1024
mem_total = 40000
adc_davidson_maxiter = 900
adc_davidson_conv = 6
adc_print = 3
adc_prop_es = true
adc_prop_es2es = true
adc_prop_tpa = true
molden_format = True
state_analysis = true
print_orbitals = 15
gen_scfman = false
fde_export_density = true
fde_details = 3
$end

$molecule
0 1
H 0.0051721235 -0.2442097827 0.0636489606
C -1.0765972949 -0.5242748755 -0.0023551776
H -1.313264467 -1.5767591607 -0.0757276926
C -2.043634118 0.3926884087 0.0061254933
H -1.8137616575 1.4459188338 0.0804456828
H -3.085977293 0.114931858 -0.0593381042                     
$end
--------------------------------------------------------------
 ----------------------------------------------------------------
             Standard Nuclear Orientation (Angstroms)
    I     Atom           X                Y                Z
 ----------------------------------------------------------------
    1      H       0.0051721235    -0.2442097827     0.0636489606
    2      C      -1.0765972949    -0.5242748755    -0.0023551776
    3      H      -1.3132644670    -1.5767591607    -0.0757276926
    4      C      -2.0436341180     0.3926884087     0.0061254933
    5      H      -1.8137616575     1.4459188338     0.0804456828
    6      H      -3.0859772930     0.1149318580    -0.0593381042
 ----------------------------------------------------------------
 Nuclear Repulsion Energy =          33.28660147 hartrees
 There are        8 alpha and        8 beta electrons
 Requested basis set is cc-pVDZ
 There are 24 shells and 48 basis functions
 Total memory of 40000 MB is distributed as follows: 
   MEM_STATIC is set to 1024 MB
   QALLOC/CCMAN JOB total memory use is  38976 MB
 Warning: actual memory use might exceed 40000 MB

 Total QAlloc Memory Limit  40000 MB
 Mega-Array Size      1001 MB
 MEM_STATIC part      1024 MB

                       Distance Matrix (Angstroms)
             H (  1)   C (  2)   H (  3)   C (  4)   H (  5)
   C (  2)  1.119383
   H (  3)  1.879731  1.081258
   C (  4)  2.146289  1.332687  2.102109
   H (  5)  2.483010  2.105215  3.067812  1.080583
   H (  6)  3.114372  2.109370  2.450428  1.080700  1.846510

 A cutoff of  1.0D-11 yielded    300 shell pairs
 There are      1220 function pairs (      1329 Cartesian)
 Smallest overlap matrix eigenvalue = 4.80E-03

 Scale SEOQF with 1.000000e-01/1.000000e-01/1.000000e+00

 Standard Electronic Orientation quadrupole field applied
 Nucleus-field energy     =     0.0000000022 hartrees
 Guess from superposition of atomic densities
 Warning:  Energy on first SCF cycle will be non-variational
 SAD guess density has 16.000000 electrons
 A restricted Hartree-Fock SCF calculation will be
 performed using Pulay DIIS extrapolation
 SCF converges when DIIS error is below 1.0E-08
 using 10 threads for integral computing
 -------------------------------------------------------
 OpenMP Integral computing Module                
 Release: version 1.0, May 2013, Q-Chem Inc. Pittsburgh 
 -------------------------------------------------------
 ---------------------------------------
  Cycle       Energy         DIIS Error
 ---------------------------------------
    1     -78.4111927946      9.99E-02
    2     -78.0169118062      7.17E-03
    3     -78.0374714091      1.84E-03
    4     -78.0389572153      5.81E-04
    5     -78.0390814528      6.73E-05
    6     -78.0390835447      2.05E-05
    7     -78.0390837272      6.84E-06
    8     -78.0390837470      1.48E-06
    9     -78.0390837491      4.69E-07
   10     -78.0390837493      9.01E-08
   11     -78.0390837493      6.10E-09 Convergence criterion met
 ---------------------------------------
 SCF time:  CPU 2.12 s  wall 3.19 s
 SCF   energy in the final basis set = -78.03908375
 Total energy in the final basis set = -78.03908375
Exporting Density Matrix to file 'Densmat_SCF.txt'.
Export successful
================================================================================
|                                                                              |
|                                 A D C  M A N                                 |
|                                                                              |
 ------------------------------------------------------------------------------ 
|                                                                              |
| Components:                                                                  |
|                                                                              |
| - libvmm - 1.3-trunk                                                         |
|   Authors:                                                                   |
|   Evgeny Epifanovsky, Ilya Kaliman                                           |
|                                                                              |
| - libtensor - 2.5-trunk                                                      |
|   Authors:                                                                   |
|   Evgeny Epifanovsky, Michael Wormit, Dmitry Zuev, Sam Manzer,               |
|   Ilya Kaliman                                                               |
|                                                                              |
| - libwfa - 1.1-trunk                                                         |
|   Authors:                                                                   |
|   Felix Plasser, Stefanie Mewes (Baeppler), Benjamin Thomitzni,              |
|   Michael Wormit, Feng Chen, Anna I. Krylov, Pavel Pokhilko                  |
|                                                                              |
| - libadc - 1.1-trunk                                                         |
|   Authors:                                                                   |
|   Michael Wormit, Adrian L. Dempwolff, Philipp H. P. Harbach,                |
|   Caroline Krauter, Dirk Rehn, Matthias Schneider, Jan Wenzel                |
|                                                                              |
| - adcman - 2.6-trunk                                                         |
|   Authors:                                                                   |
|   Michael Wormit, Adrian L. Dempwolff, Philipp H. P. Harbach,                |
|   Caroline Krauter, Daniel Lefrancois, Jan-Michael Mewes, Dirk Rehn,         |
|   Matthias Schneider, Jan Wenzel, Andreas Dreuw                              |
|                                                                              |
| Authors of earlier versions of ADCMAN:                                       |
| Andreas Dreuw, Jan Hendrik Starcke, Dirk Rehn, Michael Wormit                |
|                                                                              |
================================================================================

 Created directory /srv/beegfs/scratch/users/f/fum/qchem92146/plots
  Import QC data ...  CPU 0.00 s  wall 0.00 s

 Alpha MOs, Restricted
 -- Occupied --                  
-11.239 -11.235  -1.031  -0.787  -0.638  -0.581  -0.501  -0.374
  1 A     2 A     3 A     4 A     5 A     6 A     7 A     8 A                  
 -- Virtual --                   
  0.168   0.203   0.231   0.238   0.303   0.462   0.578   0.612
  9 A    10 A    11 A    12 A    13 A    14 A    15 A    16 A                  
  0.689   0.705   0.779   0.808   0.860   0.931   0.971   1.007
 17 A    18 A    19 A    20 A    21 A    22 A    23 A    24 A                  
  1.129   1.236   1.249   1.265   1.292   1.594   1.720   1.746
 25 A    26 A    27 A    28 A    29 A    30 A    31 A    32 A                  
  1.813   1.855   1.859   1.914   1.964   1.977   2.220   2.251
 33 A    34 A    35 A    36 A    37 A    38 A    39 A    40 A                  
  2.364   2.431   2.492   2.620   2.694   2.806   3.118   3.377
 41 A    42 A    43 A    44 A    45 A    46 A    47 A    48 A                  

 Beta MOs, Restricted
 -- Occupied --                  
-11.239 -11.235  -1.031  -0.787  -0.638  -0.581  -0.501  -0.374
  1 A     2 A     3 A     4 A     5 A     6 A     7 A     8 A                  
 -- Virtual --                   
  0.168   0.203   0.231   0.238   0.303   0.462   0.578   0.612
  9 A    10 A    11 A    12 A    13 A    14 A    15 A    16 A                  
  0.689   0.705   0.779   0.808   0.860   0.931   0.971   1.007
 17 A    18 A    19 A    20 A    21 A    22 A    23 A    24 A                  
  1.129   1.236   1.249   1.265   1.292   1.594   1.720   1.746
 25 A    26 A    27 A    28 A    29 A    30 A    31 A    32 A                  
  1.813   1.855   1.859   1.914   1.964   1.977   2.220   2.251
 33 A    34 A    35 A    36 A    37 A    38 A    39 A    40 A                  
  2.364   2.431   2.492   2.620   2.694   2.806   3.118   3.377
 41 A    42 A    43 A    44 A    45 A    46 A    47 A    48 A                  
  Import AO data ...  CPU 0.00 s  wall 0.07 s
  Using point group: C1
  Irreducible representations in point group: A
  Molecular orbitals: 
  Occupied MOs:
  Block   0:   1 (  A) A   2 (  A) A   3 (  A) A   4 (  A) A   5 (  A) A
                  -11.24      -11.23      -1.031     -0.7865     -0.6377
               6 (  A) A   7 (  A) A   8 (  A) A
                 -0.5812     -0.5012     -0.3744
  Block   1:   1 (  A) B   2 (  A) B   3 (  A) B   4 (  A) B   5 (  A) B
                  -11.24      -11.23      -1.031     -0.7865     -0.6377
               6 (  A) B   7 (  A) B   8 (  A) B
                 -0.5812     -0.5012     -0.3744
  Virtual MOs:
  Block   0:   9 (  A) A  10 (  A) A  11 (  A) A  12 (  A) A  13 (  A) A
                  0.1683      0.2027      0.2309      0.2381      0.3029
              14 (  A) A  15 (  A) A  16 (  A) A  17 (  A) A  18 (  A) A
                  0.4619      0.5782      0.6124      0.6887       0.705
              19 (  A) A  20 (  A) A  21 (  A) A  22 (  A) A
                  0.7788      0.8076      0.8597      0.9309
  Block   1:  23 (  A) A  24 (  A) A  25 (  A) A  26 (  A) A  27 (  A) A
                  0.9711       1.007       1.129       1.236       1.249
              28 (  A) A  29 (  A) A  30 (  A) A  31 (  A) A  32 (  A) A
                   1.265       1.292       1.594        1.72       1.746
              33 (  A) A  34 (  A) A  35 (  A) A  36 (  A) A
                   1.813       1.855       1.859       1.914
  Block   2:  37 (  A) A  38 (  A) A  39 (  A) A  40 (  A) A  41 (  A) A
                   1.964       1.977        2.22       2.251       2.364
              42 (  A) A  43 (  A) A  44 (  A) A  45 (  A) A  46 (  A) A
                   2.431       2.492        2.62       2.694       2.806
              47 (  A) A  48 (  A) A
                   3.118       3.377
  Block   3:   9 (  A) B  10 (  A) B  11 (  A) B  12 (  A) B  13 (  A) B
                  0.1683      0.2027      0.2309      0.2381      0.3029
              14 (  A) B  15 (  A) B  16 (  A) B  17 (  A) B  18 (  A) B
                  0.4619      0.5782      0.6124      0.6887       0.705
              19 (  A) B  20 (  A) B  21 (  A) B  22 (  A) B
                  0.7788      0.8076      0.8597      0.9309
  Block   4:  23 (  A) B  24 (  A) B  25 (  A) B  26 (  A) B  27 (  A) B
                  0.9711       1.007       1.129       1.236       1.249
              28 (  A) B  29 (  A) B  30 (  A) B  31 (  A) B  32 (  A) B
                   1.265       1.292       1.594        1.72       1.746
              33 (  A) B  34 (  A) B  35 (  A) B  36 (  A) B
                   1.813       1.855       1.859       1.914
  Block   5:  37 (  A) B  38 (  A) B  39 (  A) B  40 (  A) B  41 (  A) B
                   1.964       1.977        2.22       2.251       2.364
              42 (  A) B  43 (  A) B  44 (  A) B  45 (  A) B  46 (  A) B
                   2.431       2.492        2.62       2.694       2.806
              47 (  A) B  48 (  A) B
                   3.118       3.377
  Import MO data ...  CPU 0.00 s  wall 0.00 s
  Import HF data ...  CPU 0.07 s  wall 0.03 s
  Import 2e integrals ...  CPU 0.92 s  wall 0.17 s

--------------------------------------------------------------------------------
                                   HF Summary                                   
--------------------------------------------------------------------------------
  Energy:                                                  -78.0390837493 a.u.
  Dip. moment [a.u.]:                  [  -0.008032,   -0.000700,   -0.000476]
  Total dipole [Debye]:                                               0.020528
  <r^2> [a.u.]:                        [ 175.273722,   34.934418,   11.661852]
  Total <r^2> [a.u.]:                                               221.869992
--------------------------------------------------------------------------------
  HF properties ...  CPU 0.01 s  wall 0.00 s
  MP(1) calculation ...  CPU 0.01 s  wall 0.00 s
  N^6 prerequesite intermediates ...  CPU 0.56 s  wall 0.09 s
  Difference density matrix of state mp2_gs printed to ASCII file 'State_mp2_gs_Difference.txt'
Exporting MP density matrix to file 'Densmat_MP.txt'.
Export successful
  Total density matrix of state mp2_gs printed to ASCII file 'State_mp2_gs_Total.txt'
Exporting MP density matrix to file 'Densmat_MP.txt'.
Export successful

--------------------------------------------------------------------------------
                                 MP(2) Summary                                  
--------------------------------------------------------------------------------
  MP energy contribution:                                   -0.2802434575 a.u.
  Total energy:                                            -78.3193272067 a.u.
  Dip. moment [a.u.]:                  [  -0.007321,   -0.000271,   -0.000416]
  Total dipole [Debye]:                                               0.018650
  <r^2> [a.u.]:                        [ 175.318494,   34.973552,   11.490871]
  Total <r^2> [a.u.]:                                               221.782917

  Density matrix analysis:
  ------------------------
  NOs
    Occupation of frontier NOs:
       0.0454   1.9381
    Number of electrons: 16.000000
    Number of unpaired electrons: n_u =  0.40605, n_u,nl =  0.04556
    NO participation ratio (PR_NO): 13.888461
  
  
  Mulliken Population Analysis
  Atom      Charge (e)              h+              e-           Del q
  --------------------------------------------------------------------
   1 H        0.060190        0.013528       -0.011401        0.002127
   2 C       -0.118517        0.095716       -0.100123       -0.004408
   3 H        0.051669        0.014013       -0.011306        0.002707
   4 C       -0.095438        0.092596       -0.098845       -0.006249
   5 H        0.050765        0.014139       -0.011211        0.002928
   6 H        0.051331        0.014097       -0.011202        0.002895
  --------------------------------------------------------------------
  Sum:        0.000000        0.244089       -0.244089       -0.000000
  
  Multipole moment analysis of the density matrix
    Molecular charge:                      0.000000
    Number of electrons:                   16.000000
      Center of electronic charge [Ang]: [ -1.557834,  -0.065593,   0.001992]
    Total nuclear charge:                  16.000000
      Center of nuclear charge [Ang]:    [ -1.558076,  -0.065602,   0.001978]
    Dipole moment [D]:                     0.018650
      Cartesian components [D]:          [ -0.018607,  -0.000688,  -0.001058]
    RMS size of the density [Ang]:         1.204343
      Cartesian components [Ang]:        [  0.800961,   0.779613,   0.448449]
  
  Exciton analysis of the difference density matrix
    <r_h> [Ang]:                  [ -1.551496,  -0.067528,   0.002185]
    <r_e> [Ang]:                  [ -1.553037,  -0.068459,   0.002055]
    |<r_e - r_h>| [Ang]:            0.001806
    Hole size [Ang]:                1.398977
      Cartesian components [Ang]: [  0.855094,   0.833968,   0.728318]
    Electron size [Ang]:            1.361002
      Cartesian components [Ang]: [  0.881909,   0.860391,   0.578180]
--------------------------------------------------------------------------------
  MP(2) calculation ...  CPU 0.11 s  wall 1.35 s
  Start ADC(2)-s ...  CPU 0.01 s  wall 0.00 s
  ADC(2) intermediates ...  CPU 0.02 s  wall 0.01 s
  Starting Davidson for singlet states of irrep A ... 
--------------------------------------------------------------------------------
   It NVec Conv  Avg. Norm  Max. Norm  Conv. states           Remark
--------------------------------------------------------------------------------
        10    0  1.329e-01  4.683e-01  0.4113 n n n n n n n n Guess.
    1   20    0  2.358e-02  1.117e-01  0.3264 n n n n n n n n 
    2   30    0  5.934e-03  2.638e-02  0.3216 n n n n n n n n 
    3   40    0  2.032e-03  1.266e-02  0.3212 n n n n n n n n 
    4   50    0  6.589e-04  4.496e-03  0.3212 n n n n n n n n 
    5   20    0  3.411e-04  2.605e-03  0.3212 n n n n n n n n Subspace collapsed.
    6   30    0  2.806e-04  2.107e-03  0.3212 n n n n n n n n 
    7   40    0  2.060e-04  1.837e-03  0.3212 n n n n n n n n 
    8   50    0  1.882e-04  1.829e-03  0.3212 n n n n n n n n 
    9   20    2  1.224e-04  1.207e-03  0.3212 n y n y n n n n Subspace collapsed.
   10   30    4  8.343e-05  8.125e-04  0.3212 n y y y y n n n 
   11   40    5  8.746e-05  8.666e-04  0.3212 n y y y y y n n 
   12   50    6  8.271e-05  8.242e-04  0.3212 y y y y y y n n 
   13   20    6  5.434e-05  5.418e-04  0.3212 y y y y y y n n Subspace collapsed.
   14   30    6  4.010e-05  4.000e-04  0.3212 y y y y y y n n 
   15   40    6  3.550e-05  3.544e-04  0.3212 y y y y y y n n 
   16   50    6  3.347e-05  3.344e-04  0.3212 y y y y y y n n 
   17   20    6  2.302e-05  2.300e-04  0.3212 y y y y y y n n Subspace collapsed.
   18   30    6  2.680e-05  2.678e-04  0.3212 y y y y y y n n 
   19   40    7  1.863e-05  1.862e-04  0.3212 y y y y y y y n 
   20   50    7  2.361e-05  2.361e-04  0.3212 y y y y y y y n 
   21   20    8  1.152e-05  1.152e-04  0.3212 y y y y y y y y Subspace collapsed.
   22   30    8  1.286e-05  1.285e-04  0.3212 y y y y y y y y 
   23   40    8  8.783e-06  8.781e-05  0.3212 y y y y y y y y 
   24   48    8  9.255e-06  9.253e-05  0.3212 y y y y y y y y 
   25   50    8  9.347e-06  9.345e-05  0.3212 y y y y y y y y 
   26   16    9  5.008e-06  5.007e-05  0.3212 y y y y y y y y Subspace collapsed.
   27   21    8  8.087e-06  8.085e-05  0.3212 y y y y y y y y 
   28   26    9  4.743e-06  4.742e-05  0.3212 y y y y y y y y 
   29   31    9  5.177e-06  5.176e-05  0.3212 y y y y y y y y 
   30   35    9  5.917e-06  5.917e-05  0.3212 y y y y y y y y 
   31   39    9  2.552e-06  2.552e-05  0.3212 y y y y y y y y 
   32   43    9  1.226e-06  1.226e-05  0.3212 y y y y y y y y 
   33   47    9  5.090e-07  5.089e-06  0.3212 y y y y y y y y 
   34   50    9  2.379e-07  2.379e-06  0.3212 y y y y y y y y 
   35   14    9  1.280e-07  1.280e-06  0.3212 y y y y y y y y Subspace collapsed.
   36   18   10  7.451e-08  7.450e-07  0.3212 y y y y y y y y Converged.
--------------------------------------------------------------------------------
  Davidson Summary: 
 ------------------------------------------------------------
  State  0: excitation energy =   0.3212 a.u.   (converged)
  State  1: excitation energy =   0.3305 a.u.   (converged)
  State  2: excitation energy =   0.3358 a.u.   (converged)
  State  3: excitation energy =   0.3587 a.u.   (converged)
  State  4: excitation energy =   0.3742 a.u.   (converged)
  State  5: excitation energy =   0.3865 a.u.   (converged)
  State  6: excitation energy =   0.4213 a.u.   (converged)
  State  7: excitation energy =   0.4452 a.u.   (converged)
  State  8: excitation energy =   0.4548 a.u.   (converged)
  State  9: excitation energy =   0.4599 a.u.   (converged)
 ------------------------------------------------------------

  Singlet states of irrep A ...  CPU 115.83 s  wall 28.21 s
  TDMs ...  CPU 0.58 s  wall 0.23 s
  SDMs ...  CPU 1.61 s  wall 0.47 s
  Starting TPA DIIS iterations ... 
------------------------------------ 
   It     Res. Norm  Remark
------------------------------------
                       Guess.
    1     4.385e+00  
    2     5.818e+00  
    3     1.089e+00  
    4     2.674e-01  
    5     6.636e-02  
    6     2.838e-02  
    7     8.457e-03  
    8     1.631e-03  
    9     6.133e-04  
   10     9.909e-05  
   11     3.332e-05  
   12     5.282e-06  
   13     1.737e-06  
   14     6.188e-07  Converged.
   ... Converged in 14 steps (norm: 6.18807e-07)
------------------------------------
  Starting TPA DIIS iterations ... 
------------------------------------ 
   It     Res. Norm  Remark
------------------------------------
                       Guess.
    1     4.183e+00  
    2     5.533e+00  
    3     1.026e+00  
    4     2.525e-01  
    5     6.454e-02  
    6     2.626e-02  
    7     8.142e-03  
    8     1.438e-03  
    9     5.340e-04  
   10     9.121e-05  
   11     2.834e-05  
   12     4.535e-06  
   13     1.633e-06  
   14     5.722e-07  Converged.
   ... Converged in 14 steps (norm: 5.72207e-07)
------------------------------------
  Starting TPA DIIS iterations ... 
------------------------------------ 
   It     Res. Norm  Remark
------------------------------------
                       Guess.
    1     6.886e-01  
    2     4.817e-01  
    3     1.691e-01  
    4     5.878e-02  
    5     1.878e-02  
    6     6.907e-03  
    7     1.171e-03  
    8     4.441e-04  
    9     1.747e-04  
   10     3.129e-05  
   11     2.064e-05  
   12     7.745e-06  
   13     4.193e-06  
   14     1.783e-06  
   15     5.382e-07  Converged.
   ... Converged in 15 steps (norm: 5.38226e-07)
------------------------------------
  Starting TPA DIIS iterations ... 
------------------------------------ 
   It     Res. Norm  Remark
------------------------------------
                       Guess.
    1     4.610e+00  
    2     6.222e+00  
    3     1.153e+00  
    4     2.909e-01  
    5     7.297e-02  
    6     3.146e-02  
    7     9.359e-03  
    8     1.806e-03  
    9     6.829e-04  
   10     1.108e-04  
   11     3.754e-05  
   12     6.012e-06  
   13     1.986e-06  
   14     7.211e-07  Converged.
   ... Converged in 14 steps (norm: 7.21107e-07)
------------------------------------
  Starting TPA DIIS iterations ... 
------------------------------------ 
   It     Res. Norm  Remark
------------------------------------
                       Guess.
    1     4.398e+00  
    2     5.918e+00  
    3     1.087e+00  
    4     2.744e-01  
    5     7.099e-02  
    6     2.909e-02  
    7     9.008e-03  
    8     1.588e-03  
    9     5.932e-04  
   10     1.018e-04  
   11     3.186e-05  
   12     5.151e-06  
   13     1.876e-06  
   14     6.685e-07  Converged.
   ... Converged in 14 steps (norm: 6.68532e-07)
------------------------------------
  Starting TPA DIIS iterations ... 
------------------------------------ 
   It     Res. Norm  Remark
------------------------------------
                       Guess.
    1     6.982e-01  
    2     4.953e-01  
    3     1.768e-01  
    4     6.474e-02  
    5     1.997e-02  
    6     7.400e-03  
    7     1.289e-03  
    8     4.928e-04  
    9     1.954e-04  
   10     3.681e-05  
   11     2.374e-05  
   12     8.991e-06  
   13     5.014e-06  
   14     2.192e-06  
   15     6.425e-07  Converged.
   ... Converged in 15 steps (norm: 6.42497e-07)
------------------------------------
  Starting TPA DIIS iterations ... 
------------------------------------ 
   It     Res. Norm  Remark
------------------------------------
                       Guess.
    1     4.747e+00  
    2     6.471e+00  
    3     1.192e+00  
    4     3.056e-01  
    5     7.711e-02  
    6     3.340e-02  
    7     9.924e-03  
    8     1.916e-03  
    9     7.267e-04  
   10     1.181e-04  
   11     4.021e-05  
   12     6.480e-06  
   13     2.147e-06  
   14     7.885e-07  Converged.
   ... Converged in 14 steps (norm: 7.88485e-07)
------------------------------------
  Starting TPA DIIS iterations ... 
------------------------------------ 
   It     Res. Norm  Remark
------------------------------------
                       Guess.
    1     4.528e+00  
    2     6.155e+00  
    3     1.124e+00  
    4     2.880e-01  
    5     7.503e-02  
    6     3.088e-02  
    7     9.550e-03  
    8     1.682e-03  
    9     6.303e-04  
   10     1.085e-04  
   11     3.409e-05  
   12     5.545e-06  
   13     2.033e-06  
   14     7.320e-07  Converged.
   ... Converged in 14 steps (norm: 7.3199e-07)
------------------------------------
  Starting TPA DIIS iterations ... 
------------------------------------ 
   It     Res. Norm  Remark
------------------------------------
                       Guess.
    1     7.038e-01  
    2     5.034e-01  
    3     1.814e-01  
    4     6.853e-02  
    5     2.068e-02  
    6     7.707e-03  
    7     1.364e-03  
    8     5.231e-04  
    9     2.084e-04  
   10     4.050e-05  
   11     2.575e-05  
   12     9.816e-06  
   13     5.567e-06  
   14     2.471e-06  
   15     7.083e-07  Converged.
   ... Converged in 15 steps (norm: 7.08276e-07)
------------------------------------
  Starting TPA DIIS iterations ... 
------------------------------------ 
   It     Res. Norm  Remark
------------------------------------
                       Guess.
    1     5.424e+00  
    2     7.730e+00  
    3     1.384e+00  
    4     3.823e-01  
    5     9.868e-02  
    6     4.361e-02  
    7     1.288e-02  
    8     2.489e-03  
    9     9.578e-04  
   10     1.570e-04  
   11     5.458e-05  
   12     9.033e-06  
   13     3.039e-06  
   14     1.184e-06  
   15     3.362e-07  Converged.
   ... Converged in 15 steps (norm: 3.36159e-07)
------------------------------------
  Starting TPA DIIS iterations ... 
------------------------------------ 
   It     Res. Norm  Remark
------------------------------------
                       Guess.
    1     5.172e+00  
    2     7.352e+00  
    3     1.305e+00  
    4     3.591e-01  
    5     9.609e-02  
    6     4.027e-02  
    7     1.238e-02  
    8     2.171e-03  
    9     8.257e-04  
   10     1.439e-04  
   11     4.607e-05  
   12     7.690e-06  
   13     2.916e-06  
   14     1.103e-06  
   15     4.440e-07  Converged.
   ... Converged in 15 steps (norm: 4.43991e-07)
------------------------------------
  Starting TPA DIIS iterations ... 
------------------------------------ 
   It     Res. Norm  Remark
------------------------------------
                       Guess.
    1     7.290e-01  
    2     5.414e-01  
    3     2.036e-01  
    4     8.888e-02  
    5     2.410e-02  
    6     9.299e-03  
    7     1.763e-03  
    8     6.765e-04  
    9     2.761e-04  
   10     6.241e-05  
   11     3.705e-05  
   12     1.470e-05  
   13     8.959e-06  
   14     4.166e-06  
   15     1.062e-06  
   16     4.543e-07  Converged.
   ... Converged in 16 steps (norm: 4.54317e-07)
------------------------------------
  Starting TPA DIIS iterations ... 
------------------------------------ 
   It     Res. Norm  Remark
------------------------------------
                       Guess.
    1     5.978e+00  
    2     8.797e+00  
    3     1.541e+00  
    4     4.500e-01  
    5     1.177e-01  
    6     5.274e-02  
    7     1.548e-02  
    8     2.997e-03  
    9     1.164e-03  
   10     1.918e-04  
   11     6.767e-05  
   12     1.142e-05  
   13     3.882e-06  
   14     1.595e-06  
   15     4.588e-07  Converged.
   ... Converged in 15 steps (norm: 4.5878e-07)
------------------------------------
  Starting TPA DIIS iterations ... 
------------------------------------ 
   It     Res. Norm  Remark
------------------------------------
                       Guess.
    1     5.699e+00  
    2     8.366e+00  
    3     1.452e+00  
    4     4.217e-01  
    5     1.146e-01  
    6     4.865e-02  
    7     1.488e-02  
    8     2.600e-03  
    9     9.995e-04  
   10     1.754e-04  
   11     5.699e-05  
   12     9.685e-06  
   13     3.774e-06  
   14     1.485e-06  
   15     6.060e-07  Converged.
   ... Converged in 15 steps (norm: 6.05954e-07)
------------------------------------
  Starting TPA DIIS iterations ... 
------------------------------------ 
   It     Res. Norm  Remark
------------------------------------
                       Guess.
    1     7.472e-01  
    2     5.703e-01  
    3     2.212e-01  
    4     1.075e-01  
    5     2.689e-02  
    6     1.070e-02  
    7     2.128e-03  
    8     8.007e-04  
    9     3.352e-04  
   10     8.456e-05  
   11     4.808e-05  
   12     1.978e-05  
   13     1.274e-05  
   14     5.929e-06  
   15     1.421e-06  
   16     6.079e-07  Converged.
   ... Converged in 16 steps (norm: 6.07919e-07)
------------------------------------
  Starting TPA DIIS iterations ... 
------------------------------------ 
   It     Res. Norm  Remark
------------------------------------
                       Guess.
    1     6.486e+00  
    2     9.802e+00  
    3     1.683e+00  
    4     5.157e-01  
    5     1.361e-01  
    6     6.168e-02  
    7     1.801e-02  
    8     3.489e-03  
    9     1.367e-03  
   10     2.259e-04  
   11     8.057e-05  
   12     1.383e-05  
   13     4.734e-06  
   14     2.054e-06  
   15     5.992e-07  Converged.
   ... Converged in 15 steps (norm: 5.99153e-07)
------------------------------------
  Starting TPA DIIS iterations ... 
------------------------------------ 
   It     Res. Norm  Remark
------------------------------------
                       Guess.
    1     6.183e+00  
    2     9.322e+00  
    3     1.587e+00  
    4     4.822e-01  
    5     1.326e-01  
    6     5.686e-02  
    7     1.730e-02  
    8     3.014e-03  
    9     1.169e-03  
   10     2.063e-04  
   11     6.777e-05  
   12     1.169e-05  
   13     4.669e-06  
   14     1.903e-06  
   15     7.799e-07  Converged.
   ... Converged in 15 steps (norm: 7.79945e-07)
------------------------------------
  Starting TPA DIIS iterations ... 
------------------------------------ 
   It     Res. Norm  Remark
------------------------------------
                       Guess.
    1     7.623e-01  
    2     5.955e-01  
    3     2.368e-01  
    4     1.260e-01  
    5     2.951e-02  
    6     1.205e-02  
    7     2.490e-03  
    8     9.090e-04  
    9     3.916e-04  
   10     1.079e-04  
   11     5.963e-05  
   12     2.536e-05  
   13     1.717e-05  
   14     7.820e-06  
   15     1.845e-06  
   16     7.827e-07  Converged.
   ... Converged in 16 steps (norm: 7.82731e-07)
------------------------------------
  Starting TPA DIIS iterations ... 
------------------------------------ 
   It     Res. Norm  Remark
------------------------------------
                       Guess.
    1     8.370e+00  
    2     1.373e+01  
    3     2.203e+00  
    4     7.840e-01  
    5     2.113e-01  
    6     9.899e-02  
    7     2.837e-02  
    8     5.510e-03  
    9     2.211e-03  
   10     3.678e-04  
   11     1.336e-04  
   12     2.463e-05  
   13     8.393e-06  
   14     4.579e-06  
   15     1.467e-06  
   16     1.119e-06  
   17     3.830e-07  Converged.
   ... Converged in 17 steps (norm: 3.83006e-07)
------------------------------------
  Starting TPA DIIS iterations ... 
------------------------------------ 
   It     Res. Norm  Remark
------------------------------------
                       Guess.
    1     7.975e+00  
    2     1.305e+01  
    3     2.076e+00  
    4     7.282e-01  
    5     2.061e-01  
    6     9.109e-02  
    7     2.720e-02  
    8     4.692e-03  
    9     1.871e-03  
   10     3.343e-04  
   11     1.126e-04  
   12     2.053e-05  
   13     8.841e-06  
   14     4.089e-06  
   15     1.623e-06  
   16     7.358e-07  Converged.
   ... Converged in 16 steps (norm: 7.35839e-07)
------------------------------------
  Starting TPA DIIS iterations ... 
------------------------------------ 
   It     Res. Norm  Remark
------------------------------------
                       Guess.
    1     8.085e-01  
    2     6.795e-01  
    3     2.916e-01  
    4     2.031e-01  
    5     3.981e-02  
    6     1.751e-02  
    7     4.032e-03  
    8     1.245e-03  
    9     6.146e-04  
   10     2.144e-04  
   11     1.141e-04  
   12     5.355e-05  
   13     4.189e-05  
   14     1.688e-05  
   15     4.513e-06  
   16     1.681e-06  
   17     5.818e-07  Converged.
   ... Converged in 17 steps (norm: 5.81798e-07)
------------------------------------
  Starting TPA DIIS iterations ... 
------------------------------------ 
   It     Res. Norm  Remark
------------------------------------
                       Guess.
    1     1.024e+01  
    2     1.790e+01  
    3     2.705e+00  
    4     1.080e+00  
    5     2.951e-01  
    6     1.416e-01  
    7     3.993e-02  
    8     7.773e-03  
    9     3.172e-03  
   10     5.287e-04  
   11     1.910e-04  
   12     3.864e-05  
   13     1.283e-05  
   14     8.596e-06  
   15     3.160e-06  
   16     2.335e-06  
   17     7.393e-07  Converged.
   ... Converged in 17 steps (norm: 7.39292e-07)
------------------------------------
  Starting TPA DIIS iterations ... 
------------------------------------ 
   It     Res. Norm  Remark
------------------------------------
                       Guess.
    1     9.751e+00  
    2     1.702e+01  
    3     2.550e+00  
    4     9.986e-01  
    5     2.879e-01  
    6     1.301e-01  
    7     3.821e-02  
    8     6.541e-03  
    9     2.665e-03  
   10     4.785e-04  
   11     1.619e-04  
   12     3.140e-05  
   13     1.427e-05  
   14     7.362e-06  
   15     2.744e-06  
   16     1.312e-06  
   17     2.678e-07  Converged.
   ... Converged in 17 steps (norm: 2.67764e-07)
------------------------------------
  Starting TPA DIIS iterations ... 
------------------------------------ 
   It     Res. Norm  Remark
------------------------------------
                       Guess.
    1     8.441e-01  
    2     7.524e-01  
    3     3.418e-01  
    4     2.861e-01  
    5     5.092e-02  
    6     2.323e-02  
    7     5.783e-03  
    8     1.517e-03  
    9     8.528e-04  
   10     3.430e-04  
   11     1.847e-04  
   12     9.110e-05  
   13     7.461e-05  
   14     2.876e-05  
   15     9.013e-06  
   16     2.984e-06  
   17     9.548e-07  Converged.
   ... Converged in 17 steps (norm: 9.54778e-07)
------------------------------------
  Starting TPA DIIS iterations ... 
------------------------------------ 
   It     Res. Norm  Remark
------------------------------------
                       Guess.
    1     1.118e+01  
    2     2.009e+01  
    3     2.953e+00  
    4     1.238e+00  
    5     3.401e-01  
    6     1.648e-01  
    7     4.614e-02  
    8     8.993e-03  
    9     3.695e-03  
   10     6.159e-04  
   11     2.210e-04  
   12     4.714e-05  
   13     1.558e-05  
   14     1.120e-05  
   15     4.410e-06  
   16     3.183e-06  
   17     9.577e-07  Converged.
   ... Converged in 17 steps (norm: 9.57662e-07)
------------------------------------
  Starting TPA DIIS iterations ... 
------------------------------------ 
   It     Res. Norm  Remark
------------------------------------
                       Guess.
    1     1.064e+01  
    2     1.910e+01  
    3     2.783e+00  
    4     1.142e+00  
    5     3.318e-01  
    6     1.514e-01  
    7     4.413e-02  
    8     7.529e-03  
    9     3.096e-03  
   10     5.562e-04  
   11     1.877e-04  
   12     3.770e-05  
   13     1.753e-05  
   14     9.459e-06  
   15     3.430e-06  
   16     1.670e-06  
   17     3.348e-07  Converged.
   ... Converged in 17 steps (norm: 3.34824e-07)
------------------------------------
  Starting TPA DIIS iterations ... 
------------------------------------ 
   It     Res. Norm  Remark
------------------------------------
                       Guess.
    1     8.594e-01  
    2     7.862e-01  
    3     3.658e-01  
    4     3.274e-01  
    5     5.675e-02  
    6     2.608e-02  
    7     6.715e-03  
    8     1.659e-03  
    9     9.782e-04  
   10     4.137e-04  
   11     2.258e-04  
   12     1.126e-04  
   13     9.148e-05  
   14     3.573e-05  
   15     1.196e-05  
   16     3.834e-06  
   17     1.195e-06  
   18     6.509e-07  Converged.
   ... Converged in 18 steps (norm: 6.50897e-07)
------------------------------------
  Starting TPA DIIS iterations ... 
------------------------------------ 
   It     Res. Norm  Remark
------------------------------------
                       Guess.
    1     1.174e+01  
    2     2.142e+01  
    3     3.099e+00  
    4     1.334e+00  
    5     3.677e-01  
    6     1.792e-01  
    7     4.996e-02  
    8     9.744e-03  
    9     4.018e-03  
   10     6.696e-04  
   11     2.394e-04  
   12     5.268e-05  
   13     1.744e-05  
   14     1.294e-05  
   15     5.287e-06  
   16     3.774e-06  
   17     1.101e-06  
   18     5.765e-07  Converged.
   ... Converged in 18 steps (norm: 5.76533e-07)
------------------------------------
  Starting TPA DIIS iterations ... 
------------------------------------ 
   It     Res. Norm  Remark
------------------------------------
                       Guess.
    1     1.118e+01  
    2     2.036e+01  
    3     2.921e+00  
    4     1.229e+00  
    5     3.588e-01  
    6     1.646e-01  
    7     4.776e-02  
    8     8.134e-03  
    9     3.361e-03  
   10     6.041e-04  
   11     2.034e-04  
   12     4.173e-05  
   13     1.965e-05  
   14     1.086e-05  
   15     3.888e-06  
   16     1.905e-06  
   17     3.880e-07  Converged.
   ... Converged in 17 steps (norm: 3.88005e-07)
------------------------------------
  Starting TPA DIIS iterations ... 
------------------------------------ 
   It     Res. Norm  Remark
------------------------------------
                       Guess.
    1     8.678e-01  
    2     8.056e-01  
    3     3.797e-01  
    4     3.514e-01  
    5     6.028e-02  
    6     2.774e-02  
    7     7.282e-03  
    8     1.750e-03  
    9     1.055e-03  
   10     4.572e-04  
   11     2.519e-04  
   12     1.260e-04  
   13     1.011e-04  
   14     4.019e-05  
   15     1.394e-05  
   16     4.419e-06  
   17     1.361e-06  
   18     7.955e-07  Converged.
   ... Converged in 18 steps (norm: 7.955e-07)
------------------------------------
  Two-photon absorbption ...  CPU 104.83 s  wall 19.68 s
  Transition density matrix of state singlet_A_1 printed to ASCII file 'State_singlet_A_1_Transition.txt'
  Transition density matrix of state singlet_A_2 printed to ASCII file 'State_singlet_A_2_Transition.txt'
  Transition density matrix of state singlet_A_3 printed to ASCII file 'State_singlet_A_3_Transition.txt'
  Transition density matrix of state singlet_A_4 printed to ASCII file 'State_singlet_A_4_Transition.txt'
  Transition density matrix of state singlet_A_5 printed to ASCII file 'State_singlet_A_5_Transition.txt'
  Transition density matrix of state singlet_A_6 printed to ASCII file 'State_singlet_A_6_Transition.txt'
  Transition density matrix of state singlet_A_7 printed to ASCII file 'State_singlet_A_7_Transition.txt'
  Transition density matrix of state singlet_A_8 printed to ASCII file 'State_singlet_A_8_Transition.txt'
  Transition density matrix of state singlet_A_9 printed to ASCII file 'State_singlet_A_9_Transition.txt'
  Transition density matrix of state singlet_A_10 printed to ASCII file 'State_singlet_A_10_Transition.txt'
  Transition properties ...  CPU 0.15 s  wall 0.90 s
  Difference density matrix of state singlet_A_1 printed to ASCII file 'State_singlet_A_1_Difference.txt'
  Total density matrix of state singlet_A_1 printed to ASCII file 'State_singlet_A_1_Total.txt'
  Difference density matrix of state singlet_A_2 printed to ASCII file 'State_singlet_A_2_Difference.txt'
  Total density matrix of state singlet_A_2 printed to ASCII file 'State_singlet_A_2_Total.txt'
  Difference density matrix of state singlet_A_3 printed to ASCII file 'State_singlet_A_3_Difference.txt'
  Total density matrix of state singlet_A_3 printed to ASCII file 'State_singlet_A_3_Total.txt'
  Difference density matrix of state singlet_A_4 printed to ASCII file 'State_singlet_A_4_Difference.txt'
  Total density matrix of state singlet_A_4 printed to ASCII file 'State_singlet_A_4_Total.txt'
  Difference density matrix of state singlet_A_5 printed to ASCII file 'State_singlet_A_5_Difference.txt'
  Total density matrix of state singlet_A_5 printed to ASCII file 'State_singlet_A_5_Total.txt'
  Difference density matrix of state singlet_A_6 printed to ASCII file 'State_singlet_A_6_Difference.txt'
  Total density matrix of state singlet_A_6 printed to ASCII file 'State_singlet_A_6_Total.txt'
  Difference density matrix of state singlet_A_7 printed to ASCII file 'State_singlet_A_7_Difference.txt'
  Total density matrix of state singlet_A_7 printed to ASCII file 'State_singlet_A_7_Total.txt'
  Difference density matrix of state singlet_A_8 printed to ASCII file 'State_singlet_A_8_Difference.txt'
  Total density matrix of state singlet_A_8 printed to ASCII file 'State_singlet_A_8_Total.txt'
  Difference density matrix of state singlet_A_9 printed to ASCII file 'State_singlet_A_9_Difference.txt'
  Total density matrix of state singlet_A_9 printed to ASCII file 'State_singlet_A_9_Total.txt'
  Difference density matrix of state singlet_A_10 printed to ASCII file 'State_singlet_A_10_Difference.txt'
  Total density matrix of state singlet_A_10 printed to ASCII file 'State_singlet_A_10_Total.txt'
  Properties ...  CPU 0.27 s  wall 1.11 s
  ISR TDMS ...  CPU 7.79 s  wall 2.67 s
  ISR transition properties ...  CPU 0.14 s  wall 0.07 s
  Sum-over-states TPA ...  CPU 0.00 s  wall 0.00 s

--------------------------------------------------------------------------------
                   State-averaged natural transition orbitals
--------------------------------------------------------------------------------
--------------------------------------------------------------------------------
  SA-NTO decomposition ...  CPU 0.01 s  wall 0.06 s

--------------------------------------------------------------------------------
                             Excited State Summary
--------------------------------------------------------------------------------
--------------------------------------------------------------------------------

  Excited state 1 (singlet, A)                                     [converged]
  ----------------------------------------------------------------------------
  Term symbol:  2 (1) A                                     R^2 =  4.23034e-13

  Total energy:                                            -77.9981692820 a.u.
  Excitation energy:                                               8.739152 eV

  Osc. strength:                                                      0.446460
  Trans. dip. moment [a.u.]:           [   1.050425,   -0.990841,   -0.008710]
  <i|r^2|0> [a.u.]:                    [   6.159117,   -0.238994,   -0.002329]
  Two-photon absorption cross-section (SoS) [a.u.]:                   0.032621
  Two-photon absorption matrix (SoS) [a.u.]:
                                       |   -0.011595   -0.052224   -0.006712 |
                                       |   -0.052224   -0.012112   -0.006537 |
                                       |   -0.006712   -0.006537    0.044928 |
  Two-photon absorption cross-section [a.u.]:                         0.026134
  Two-photon absorption matrix [a.u.]:
                                       |   -0.004134   -0.034046    0.002285 |
                                       |   -0.034046    0.006369    0.000794 |
                                       |    0.002285    0.000794    0.051818 |

  Dip. moment [a.u.]:                  [  -0.006839,   -0.000209,   -0.000277]
  Total dipole [Debye]:                                               0.017405
  <r^2> [a.u.]:                        [ 176.068837,   35.663594,   11.901881]
  Total <r^2> [a.u.]:                                               223.634313

  V1^2 = 0.9713, V2^2 = 0.0287

  Important amplitudes:
      occ i     occ j     vir a      vir b          v   
    -----------------------------------------------------
     8 (A) A              9 (A) A                -0.6809
     6 (A) A             14 (A) A                 0.0618
     4 (A) A             10 (A) A                -0.0614
     7 (A) A             16 (A) A                 0.0569
     5 (A) A             13 (A) A                -0.0521
     6 (A) A             23 (A) A                -0.0484
     8 (A) A             20 (A) A                 0.0349
     6 (A) A             19 (A) A                 0.0301
     3 (A) A             12 (A) A                 0.0273
     5 (A) A             22 (A) A                -0.0214
     7 (A) A             11 (A) A                 0.0191
     4 (A) A             24 (A) A                -0.0188
     3 (A) A             26 (A) A                 0.0186
     8 (A) A   8 (A) B   17 (A) A   20 (A) B     -0.0184
     8 (A) A   8 (A) B    9 (A) A   28 (A) B      0.0168
     6 (A) A             26 (A) A                -0.0162
     7 (A) A             21 (A) A                -0.0153
     3 (A) A             14 (A) A                -0.0141
     6 (A) A             12 (A) A                 0.0134
     3 (A) A   4 (A) B    9 (A) A    9 (A) B      0.0129
     3 (A) A             19 (A) A                -0.0119
     8 (A) A   8 (A) B   18 (A) A   19 (A) B      0.0110
     7 (A) A             32 (A) A                -0.0091
     7 (A) A             36 (A) A                 0.0083
     3 (A) A             23 (A) A                 0.0082
     8 (A) A   8 (A) B   25 (A) A   29 (A) B      0.0076
     7 (A) A              9 (A) A                -0.0074
     3 (A) A             11 (A) A                 0.0074
     6 (A) A             40 (A) A                -0.0067
     3 (A) A   6 (A) B    9 (A) A   28 (A) B     -0.0064
     7 (A) A   8 (A) B   13 (A) A   20 (A) B     -0.0060
     5 (A) A   7 (A) B    9 (A) A    9 (A) B      0.0060
     6 (A) A   8 (A) A   19 (A) A   28 (A) A      0.0059
     5 (A) A   8 (A) B   16 (A) A    9 (A) B     -0.0059
     5 (A) A   8 (A) B   11 (A) A    9 (A) B      0.0059
     5 (A) A   8 (A) B   11 (A) A   20 (A) B      0.0058
     3 (A) A   5 (A) B    9 (A) A   25 (A) B      0.0058
     7 (A) A             12 (A) A                -0.0058
     5 (A) A             27 (A) A                -0.0058
     7 (A) A   8 (A) B   22 (A) A   20 (A) B     -0.0057
    -----------------------------------------------------

  Density matrix analysis:
  ------------------------
  NOs
    Occupation of frontier NOs:
       0.9491   1.0220
    Number of electrons: 16.000000
    Number of unpaired electrons: n_u =  2.31577, n_u,nl =  2.03311
    NO participation ratio (PR_NO):  2.871604
  
  
  Mulliken Population Analysis
  Atom      Charge (e)              h+              e-           Del q
  --------------------------------------------------------------------
   1 H        0.068499        0.020693       -0.012384        0.008309
   2 C       -0.134548        0.490840       -0.506871       -0.016031
   3 H        0.059095        0.020003       -0.012577        0.007426
   4 C       -0.110819        0.490587       -0.505968       -0.015381
   5 H        0.058454        0.020201       -0.012512        0.007689
   6 H        0.059319        0.020561       -0.012574        0.007988
  --------------------------------------------------------------------
  Sum:        0.000000        1.062885       -1.062885       -0.000000
  
  Multipole moment analysis of the density matrix
    Molecular charge:                      0.000000
    Number of electrons:                   16.000000
      Center of electronic charge [Ang]: [ -1.557850,  -0.065595,   0.001987]
    Total nuclear charge:                  16.000000
      Center of nuclear charge [Ang]:    [ -1.558076,  -0.065602,   0.001978]
    Dipole moment [D]:                     0.017405
      Cartesian components [D]:          [ -0.017383,  -0.000532,  -0.000704]
    RMS size of the density [Ang]:         1.217701
      Cartesian components [Ang]:        [  0.809087,   0.787321,   0.456399]
  
  Exciton analysis of the difference density matrix
    <r_h> [Ang]:                  [ -1.559274,  -0.065865,   0.001999]
    <r_e> [Ang]:                  [ -1.559513,  -0.065895,   0.001930]
    |<r_e - r_h>| [Ang]:            0.000252
    Hole size [Ang]:                1.286582
      Cartesian components [Ang]: [  0.730990,   0.712492,   0.783135]
    Electron size [Ang]:            1.463663
      Cartesian components [Ang]: [  0.855152,   0.830325,   0.849462]

  Transition density matrix analysis:
  -----------------------------------
  
  CT numbers (Mulliken)
    omega =     0.9533
    <Phe> =    -0.1601
  
  Exciton analysis of the transition density matrix
    Trans. dipole moment [D]:             1.835184
      Cartesian components [D]:         [  1.334957,  -1.259233,  -0.011069]
    <r_h> [Ang]:                        [ -1.560190,  -0.065709,   0.001968]
    <r_e> [Ang]:                        [ -1.559285,  -0.065870,   0.001940]
    |<r_e - r_h>| [Ang]:                  0.000920
    Hole size [Ang]:                      1.214199
      Cartesian components [Ang]:       [  0.650218,   0.636291,   0.804133]
    Electron size [Ang]:                  1.486541
      Cartesian components [Ang]:       [  0.865558,   0.839249,   0.869640]
    RMS electron-hole separation [Ang]:   1.936610
      Cartesian components [Ang]:       [  1.106932,   1.075024,   1.170248]
    Covariance(r_h, r_e) [Ang^2]:        -0.033186
    Correlation coefficient:             -0.018386
    Center-of-mass size [Ang]:            0.951014
      Cartesian components [Ang]:       [  0.528831,   0.515445,   0.599235]

  Decomposition into state-averaged NTOs
    H- 0 -> L+ 0: -0.6697 ( 89.7%)
    H- 2 -> L+ 5: -0.0832 (  1.4%)
                   omega =  95.3%
  ----------------------------------------------------------------------------


  Excited state 2 (singlet, A)                                     [converged]
  ----------------------------------------------------------------------------
  Term symbol:  3 (1) A                                     R^2 =  5.36936e-13

  Total energy:                                            -77.9888565457 a.u.
  Excitation energy:                                               8.992564 eV

  Osc. strength:                                                      0.000455
  Trans. dip. moment [a.u.]:           [   0.014310,   -0.009043,   -0.042185]
  <i|r^2|0> [a.u.]:                    [   0.016445,   -0.083072,    0.148519]
  Two-photon absorption cross-section (SoS) [a.u.]:                   5.581660
  Two-photon absorption matrix (SoS) [a.u.]:
                                       |   -0.061991   -0.063083    0.639711 |
                                       |   -0.063083   -0.065310    0.522392 |
                                       |    0.639711    0.522392    0.122835 |
  Two-photon absorption cross-section [a.u.]:                         0.166759
  Two-photon absorption matrix [a.u.]:
                                       |    0.006484    0.009597   -0.137304 |
                                       |    0.009597    0.010019   -0.041000 |
                                       |   -0.137304   -0.041000   -0.017209 |

  Dip. moment [a.u.]:                  [  -0.020803,   -0.072852,   -0.005505]
  Total dipole [Debye]:                                               0.193079
  <r^2> [a.u.]:                        [ 174.437249,   34.125341,   13.158995]
  Total <r^2> [a.u.]:                                               221.721585

  V1^2 = 0.9542, V2^2 = 0.0458

  Important amplitudes:
      occ i     occ j     vir a      vir b          v   
    -----------------------------------------------------
     7 (A) A              9 (A) A                 0.6628
     8 (A) A             11 (A) A                -0.1525
     8 (A) A             10 (A) A                 0.0803
     7 (A) A             20 (A) A                -0.0751
     5 (A) A   8 (A) B    9 (A) A    9 (A) B     -0.0312
     8 (A) A             16 (A) A                 0.0288
     8 (A) A             12 (A) A                 0.0274
     8 (A) A             21 (A) A                 0.0185
     5 (A) A             28 (A) A                -0.0148
     4 (A) A   7 (A) B    9 (A) A   19 (A) B     -0.0134
     5 (A) A   7 (A) B    9 (A) A   16 (A) B     -0.0132
     7 (A) A   8 (A) B   20 (A) A   17 (A) B      0.0105
     7 (A) A   8 (A) A    9 (A) A   28 (A) A      0.0097
     5 (A) A   8 (A) B    9 (A) A   20 (A) B      0.0094
     4 (A) A   6 (A) B    9 (A) A   16 (A) B     -0.0090
     5 (A) A   6 (A) A    9 (A) A   23 (A) A      0.0089
     5 (A) A   6 (A) A    9 (A) A   14 (A) A     -0.0088
     8 (A) A   7 (A) B    9 (A) A   28 (A) B     -0.0084
     4 (A) A   5 (A) A    9 (A) A   10 (A) A     -0.0084
     5 (A) A   6 (A) B    9 (A) A   19 (A) B     -0.0084
     6 (A) A   7 (A) B    9 (A) A   18 (A) B      0.0083
     5 (A) A   6 (A) B    9 (A) A   23 (A) B      0.0079
     3 (A) A   7 (A) B    9 (A) A   18 (A) B      0.0078
     5 (A) A   7 (A) A    9 (A) A   16 (A) A     -0.0077
     4 (A) A   8 (A) B    9 (A) A   25 (A) B     -0.0076
     7 (A) A   8 (A) B   17 (A) A   20 (A) B      0.0073
     4 (A) A   7 (A) B   19 (A) A    9 (A) B     -0.0073
     8 (A) A              9 (A) A                -0.0072
     5 (A) A   5 (A) B    9 (A) A   13 (A) B      0.0071
     7 (A) A   8 (A) B   19 (A) A   18 (A) B     -0.0070
     6 (A) A              9 (A) A                -0.0068
     5 (A) A   8 (A) A    9 (A) A   20 (A) A      0.0068
     4 (A) A   5 (A) B    9 (A) A   18 (A) B      0.0067
     7 (A) A   7 (A) B   20 (A) A   22 (A) B      0.0065
     7 (A) A   8 (A) B   17 (A) A    9 (A) B     -0.0064
     5 (A) A   6 (A) B    9 (A) A   14 (A) B     -0.0062
     4 (A) A   5 (A) B   10 (A) A    9 (A) B      0.0061
     4 (A) A   7 (A) A    9 (A) A   19 (A) A     -0.0060
     5 (A) A   7 (A) B   11 (A) A   20 (A) B     -0.0059
     4 (A) A   7 (A) B    9 (A) A   14 (A) B      0.0059
    -----------------------------------------------------

  Density matrix analysis:
  ------------------------
  NOs
    Occupation of frontier NOs:
       0.9402   1.0706
    Number of electrons: 16.000000
    Number of unpaired electrons: n_u =  2.35743, n_u,nl =  2.07608
    NO participation ratio (PR_NO):  3.134234
  
  
  Mulliken Population Analysis
  Atom      Charge (e)              h+              e-           Del q
  --------------------------------------------------------------------
   1 H        0.149822        0.135403       -0.045771        0.089632
   2 C       -0.305883        0.279603       -0.466968       -0.187365
   3 H        0.158891        0.120472       -0.013250        0.107222
   4 C       -0.288312        0.265061       -0.457935       -0.192874
   5 H        0.133135        0.120475       -0.038105        0.082370
   6 H        0.152347        0.116590       -0.015575        0.101015
  --------------------------------------------------------------------
  Sum:        0.000000        1.037604       -1.037604       -0.000000
  
  Multipole moment analysis of the density matrix
    Molecular charge:                      0.000000
    Number of electrons:                   16.000000
      Center of electronic charge [Ang]: [ -1.557388,  -0.063193,   0.002160]
    Total nuclear charge:                  16.000000
      Center of nuclear charge [Ang]:    [ -1.558076,  -0.065602,   0.001978]
    Dipole moment [D]:                     0.193079
      Cartesian components [D]:          [ -0.052876,  -0.185170,  -0.013993]
    RMS size of the density [Ang]:         1.204602
      Cartesian components [Ang]:        [  0.792152,   0.770234,   0.479897]
  
  Exciton analysis of the difference density matrix
    <r_h> [Ang]:                  [ -1.518921,  -0.072267,   0.003335]
    <r_e> [Ang]:                  [ -1.512045,  -0.035251,   0.005930]
    |<r_e - r_h>| [Ang]:            0.037739
    Hole size [Ang]:                1.492014
      Cartesian components [Ang]: [  1.020192,   0.984363,   0.465126]
    Electron size [Ang]:            1.494774
      Cartesian components [Ang]: [  0.907635,   0.862575,   0.816402]

  Transition density matrix analysis:
  -----------------------------------
  
  CT numbers (Mulliken)
    omega =     0.9215
    <Phe> =    -0.0113
  
  Exciton analysis of the transition density matrix
    Trans. dipole moment [D]:             0.057767
      Cartesian components [D]:         [  0.018186,  -0.011492,  -0.053612]
    <r_h> [Ang]:                        [ -1.516003,  -0.075250,   0.003254]
    <r_e> [Ang]:                        [ -1.512335,  -0.031083,   0.006190]
    |<r_e - r_h>| [Ang]:                  0.044416
    Hole size [Ang]:                      1.517598
      Cartesian components [Ang]:       [  1.041910,   1.004903,   0.455739]
    Electron size [Ang]:                  1.491849
      Cartesian components [Ang]:       [  0.899462,   0.852545,   0.830511]
    RMS electron-hole separation [Ang]:   2.109787
      Cartesian components [Ang]:       [  1.362171,   1.303733,   0.946558]
    Covariance(r_h, r_e) [Ang^2]:         0.039744
    Correlation coefficient:              0.017554
    Center-of-mass size [Ang]:            1.073336
      Cartesian components [Ang]:       [  0.695291,   0.666250,   0.474059]

  Decomposition into state-averaged NTOs
    H- 1 -> L+ 0: -0.6551 ( 85.8%)
    H- 0 -> L+ 2:  0.1626 (  5.3%)
                   omega =  92.2%
  ----------------------------------------------------------------------------


  Excited state 3 (singlet, A)                                     [converged]
  ----------------------------------------------------------------------------
  Term symbol:  4 (1) A                                     R^2 =  4.01496e-13

  Total energy:                                            -77.9835501095 a.u.
  Excitation energy:                                               9.136959 eV

  Osc. strength:                                                      0.023004
  Trans. dip. moment [a.u.]:           [  -0.011638,   -0.021943,    0.319604]
  <i|r^2|0> [a.u.]:                    [  -0.080389,   -0.010256,    0.013981]
  Two-photon absorption cross-section (SoS) [a.u.]:                   0.024088
  Two-photon absorption matrix (SoS) [a.u.]:
                                       |   -0.032681   -0.000528   -0.042777 |
                                       |   -0.000528    0.034956    0.005586 |
                                       |   -0.042777    0.005586   -0.003022 |
  Two-photon absorption cross-section [a.u.]:                         0.059495
  Two-photon absorption matrix [a.u.]:
                                       |   -0.019008    0.004237   -0.075035 |
                                       |    0.004237    0.030896   -0.032756 |
                                       |   -0.075035   -0.032756   -0.010723 |

  Dip. moment [a.u.]:                  [  -0.251211,   -0.001765,   -0.011716]
  Total dipole [Debye]:                                               0.639226
  <r^2> [a.u.]:                        [ 179.398734,   40.391237,   11.070978]
  Total <r^2> [a.u.]:                                               230.860949

  V1^2 = 0.9582, V2^2 = 0.0418

  Important amplitudes:
      occ i     occ j     vir a      vir b          v   
    -----------------------------------------------------
     8 (A) A             10 (A) A                -0.6835
     7 (A) A              9 (A) A                 0.0841
     8 (A) A             24 (A) A                -0.0500
     8 (A) A             18 (A) A                 0.0325
     4 (A) A              9 (A) A                -0.0246
     8 (A) A   8 (A) B    9 (A) A   12 (A) B      0.0211
     8 (A) A   8 (A) B   10 (A) A   17 (A) B     -0.0170
     5 (A) A   8 (A) B   11 (A) A   10 (A) B      0.0161
     8 (A) A             15 (A) A                -0.0158
     7 (A) A   8 (A) B   13 (A) A   10 (A) B     -0.0141
     6 (A) A   8 (A) A   10 (A) A   15 (A) A     -0.0110
     4 (A) A   8 (A) B   12 (A) A   10 (A) B      0.0108
     6 (A) A   8 (A) B   15 (A) A   10 (A) B      0.0107
     7 (A) A   8 (A) B   22 (A) A   10 (A) B     -0.0107
     4 (A) A   8 (A) A   10 (A) A   12 (A) A     -0.0103
     7 (A) A   8 (A) A   10 (A) A   22 (A) A      0.0097
     7 (A) A   8 (A) A   10 (A) A   13 (A) A      0.0097
     5 (A) A   8 (A) A   10 (A) A   11 (A) A     -0.0093
     7 (A) A             20 (A) A                -0.0093
     5 (A) A   8 (A) B   21 (A) A   10 (A) B     -0.0092
     8 (A) A             11 (A) A                 0.0089
     6 (A) A   8 (A) B   10 (A) A   10 (A) B     -0.0089
     6 (A) A   8 (A) A   10 (A) A   18 (A) A     -0.0087
     6 (A) A              9 (A) A                -0.0080
     3 (A) A   4 (A) B   10 (A) A    9 (A) B      0.0079
     7 (A) A   8 (A) A   12 (A) A   16 (A) A     -0.0078
     5 (A) A   8 (A) A   10 (A) A   21 (A) A      0.0078
     4 (A) A   8 (A) B   19 (A) A   10 (A) B     -0.0074
     8 (A) A   8 (A) B    9 (A) A   23 (A) B     -0.0074
     8 (A) A   8 (A) B   10 (A) A   28 (A) B      0.0073
     3 (A) A   8 (A) B   10 (A) A   10 (A) B     -0.0071
     3 (A) A   8 (A) A   10 (A) A   24 (A) A      0.0070
     8 (A) A   8 (A) B    9 (A) A   19 (A) B     -0.0069
     5 (A) A   8 (A) B   10 (A) A   11 (A) B      0.0069
     7 (A) A   8 (A) B   16 (A) A   12 (A) B      0.0067
     3 (A) A   8 (A) B   10 (A) A   18 (A) B      0.0067
     6 (A) A   8 (A) B   18 (A) A   10 (A) B      0.0066
     3 (A) A   6 (A) B   10 (A) A   28 (A) B     -0.0061
     8 (A) A   8 (A) B    9 (A) A   11 (A) B      0.0060
     6 (A) A             28 (A) A                 0.0057
    -----------------------------------------------------

  Density matrix analysis:
  ------------------------
  NOs
    Occupation of frontier NOs:
       0.9700   0.9960
    Number of electrons: 16.000000
    Number of unpaired electrons: n_u =  2.31790, n_u,nl =  2.03226
    NO participation ratio (PR_NO):  2.766978
  
  
  Mulliken Population Analysis
  Atom      Charge (e)              h+              e-           Del q
  --------------------------------------------------------------------
   1 H       -0.183062        0.054186       -0.297438       -0.243252
   2 C        0.299178        0.535155       -0.117460        0.417695
   3 H       -0.151643        0.055776       -0.259087       -0.203312
   4 C        0.305846        0.513066       -0.111782        0.401284
   5 H       -0.152884        0.054133       -0.257781       -0.203648
   6 H       -0.117435        0.056727       -0.225494       -0.168767
  --------------------------------------------------------------------
  Sum:        0.000000        1.269042       -1.269042        0.000000
  
  Multipole moment analysis of the density matrix
    Molecular charge:                      0.000000
    Number of electrons:                   16.000000
      Center of electronic charge [Ang]: [ -1.549768,  -0.065544,   0.002366]
    Total nuclear charge:                  16.000000
      Center of nuclear charge [Ang]:    [ -1.558076,  -0.065602,   0.001978]
    Dipole moment [D]:                     0.639226
      Cartesian components [D]:          [ -0.638516,  -0.004485,  -0.029779]
    RMS size of the density [Ang]:         1.278435
      Cartesian components [Ang]:        [  0.859079,   0.838226,   0.440178]
  
  Exciton analysis of the difference density matrix
    <r_h> [Ang]:                  [ -1.549830,  -0.073803,   0.001900]
    <r_e> [Ang]:                  [ -1.448130,  -0.073180,   0.006612]
    |<r_e - r_h>| [Ang]:            0.101811
    Hole size [Ang]:                1.416283
      Cartesian components [Ang]: [  0.841789,   0.823514,   0.786812]
    Electron size [Ang]:            2.077010
      Cartesian components [Ang]: [  1.383421,   1.368846,   0.725520]

  Transition density matrix analysis:
  -----------------------------------
  
  CT numbers (Mulliken)
    omega =     0.9252
    <Phe> =    -0.0113
  
  Exciton analysis of the transition density matrix
    Trans. dipole moment [D]:             0.407401
      Cartesian components [D]:         [ -0.014790,  -0.027886,   0.406176]
    <r_h> [Ang]:                        [ -1.563094,  -0.071141,   0.001462]
    <r_e> [Ang]:                        [ -1.414614,  -0.075166,   0.008035]
    |<r_e - r_h>| [Ang]:                  0.148680
    Hole size [Ang]:                      1.218012
      Cartesian components [Ang]:       [  0.643299,   0.632745,   0.818141]
    Electron size [Ang]:                  2.280983
      Cartesian components [Ang]:       [  1.517710,   1.503863,   0.798648]
    RMS electron-hole separation [Ang]:   2.579772
      Cartesian components [Ang]:       [  1.647120,   1.624386,   1.141747]
    Covariance(r_h, r_e) [Ang^2]:         0.026661
    Correlation coefficient:              0.009596
    Center-of-mass size [Ang]:            1.298052
      Cartesian components [Ang]:       [  0.828190,   0.819348,   0.572460]

  Decomposition into state-averaged NTOs
    H- 0 -> L+ 1:  0.6650 ( 88.5%)
    H- 0 -> L+ 2: -0.1115 (  2.5%)
    H- 1 -> L+ 0: -0.0832 (  1.4%)
                   omega =  92.5%
  ----------------------------------------------------------------------------


  Excited state 4 (singlet, A)                                     [converged]
  ----------------------------------------------------------------------------
  Term symbol:  5 (1) A                                     R^2 =  2.00559e-13

  Total energy:                                            -77.9606560277 a.u.
  Excitation energy:                                               9.759939 eV

  Osc. strength:                                                      0.000409
  Trans. dip. moment [a.u.]:           [   0.006409,   -0.001550,   -0.040846]
  <i|r^2|0> [a.u.]:                    [   0.058961,    0.008436,   -0.029940]
  Two-photon absorption cross-section (SoS) [a.u.]:                 134.410841
  Two-photon absorption matrix (SoS) [a.u.]:
                                       |    0.312693    0.306351   -3.179896 |
                                       |    0.306351    0.288503   -2.515073 |
                                       |   -3.179896   -2.515073   -0.599447 |
  Two-photon absorption cross-section [a.u.]:                        82.992637
  Two-photon absorption matrix [a.u.]:
                                       |    0.255014    0.241644   -2.536035 |
                                       |    0.241644    0.216486   -1.928303 |
                                       |   -2.536035   -1.928303   -0.468851 |

  Dip. moment [a.u.]:                  [   0.185561,    0.240920,    0.023324]
  Total dipole [Debye]:                                               0.775210
  <r^2> [a.u.]:                        [ 183.849283,   38.991932,   10.792113]
  Total <r^2> [a.u.]:                                               233.633328

  V1^2 = 0.9631, V2^2 = 0.0369

  Important amplitudes:
      occ i     occ j     vir a      vir b          v   
    -----------------------------------------------------
     8 (A) A             11 (A) A                 0.6630
     7 (A) A              9 (A) A                 0.1541
     8 (A) A             12 (A) A                -0.0773
     8 (A) A             21 (A) A                -0.0764
     8 (A) A             16 (A) A                -0.0654
     6 (A) A              9 (A) A                -0.0296
     8 (A) A             10 (A) A                 0.0282
     8 (A) A   8 (A) B    9 (A) A   13 (A) B     -0.0164
     5 (A) A   8 (A) B   11 (A) A   11 (A) B     -0.0155
     7 (A) A             20 (A) A                -0.0142
     8 (A) A   8 (A) B   11 (A) A   17 (A) B      0.0137
     7 (A) A   8 (A) B   13 (A) A   11 (A) B      0.0127
     5 (A) A   8 (A) A   11 (A) A   21 (A) A     -0.0107
     8 (A) A   8 (A) B    9 (A) A   22 (A) B     -0.0107
     4 (A) A   8 (A) B   12 (A) A   11 (A) B     -0.0103
     8 (A) A             19 (A) A                -0.0099
     7 (A) A   8 (A) A   11 (A) A   22 (A) A     -0.0094
     6 (A) A   8 (A) B   10 (A) A   11 (A) B      0.0089
     6 (A) A   8 (A) B   15 (A) A   11 (A) B     -0.0089
     7 (A) A   8 (A) B   22 (A) A   11 (A) B      0.0088
     3 (A) A   4 (A) B   11 (A) A    9 (A) B     -0.0082
     6 (A) A   8 (A) A   11 (A) A   15 (A) A      0.0079
     3 (A) A   8 (A) B   11 (A) A   18 (A) B     -0.0078
     7 (A) A   8 (A) A   13 (A) A   16 (A) A      0.0078
     7 (A) A   8 (A) A   11 (A) A   13 (A) A     -0.0075
     5 (A) A   8 (A) B   21 (A) A   11 (A) B      0.0069
     4 (A) A   8 (A) B   19 (A) A   11 (A) B      0.0069
     5 (A) A   8 (A) B    9 (A) A    9 (A) B     -0.0069
     4 (A) A   8 (A) A   11 (A) A   12 (A) A      0.0062
     6 (A) A   8 (A) A   11 (A) A   18 (A) A      0.0061
     3 (A) A   6 (A) B   11 (A) A   28 (A) B      0.0060
     6 (A) A   8 (A) B   18 (A) A   11 (A) B     -0.0059
     7 (A) A   8 (A) B   16 (A) A   13 (A) B     -0.0056
     3 (A) A   8 (A) B   11 (A) A   30 (A) B     -0.0055
     3 (A) A   8 (A) A   11 (A) A   18 (A) A     -0.0054
     5 (A) A   8 (A) B   10 (A) A   10 (A) B     -0.0054
     3 (A) A   5 (A) B   11 (A) A   25 (A) B     -0.0054
     8 (A) A             24 (A) A                 0.0053
     8 (A) A   8 (A) B   20 (A) A   22 (A) B      0.0053
     6 (A) A   8 (A) B   11 (A) A   10 (A) B      0.0053
    -----------------------------------------------------

  Density matrix analysis:
  ------------------------
  NOs
    Occupation of frontier NOs:
       0.9366   1.0317
    Number of electrons: 16.000000
    Number of unpaired electrons: n_u =  2.32169, n_u,nl =  2.05252
    NO participation ratio (PR_NO):  2.943227
  
  
  Mulliken Population Analysis
  Atom      Charge (e)              h+              e-           Del q
  --------------------------------------------------------------------
   1 H       -0.143283        0.044326       -0.247799       -0.203473
   2 C        0.242595        0.496929       -0.135817        0.361112
   3 H       -0.110037        0.049073       -0.210779       -0.161706
   4 C        0.272853        0.493545       -0.125254        0.368291
   5 H       -0.026862        0.048456       -0.126083       -0.077627
   6 H       -0.235266        0.044870       -0.331467       -0.286597
  --------------------------------------------------------------------
  Sum:        0.000000        1.177199       -1.177199        0.000000
  
  Multipole moment analysis of the density matrix
    Molecular charge:                      0.000000
    Number of electrons:                   16.000000
      Center of electronic charge [Ang]: [ -1.564213,  -0.073570,   0.001207]
    Total nuclear charge:                  16.000000
      Center of nuclear charge [Ang]:    [ -1.558076,  -0.065602,   0.001978]
    Dipole moment [D]:                     0.775209
      Cartesian components [D]:          [  0.471649,   0.612358,   0.059285]
    RMS size of the density [Ang]:         1.279383
      Cartesian components [Ang]:        [  0.878024,   0.822810,   0.434603]
  
  Exciton analysis of the difference density matrix
    <r_h> [Ang]:                  [ -1.564000,  -0.072696,   0.001302]
    <r_e> [Ang]:                  [ -1.650705,  -0.181117,  -0.009370]
    |<r_e - r_h>| [Ang]:            0.139236
    Hole size [Ang]:                1.396580
      Cartesian components [Ang]: [  0.823366,   0.805719,   0.789507]
    Electron size [Ang]:            2.112591
      Cartesian components [Ang]: [  1.558358,   1.256004,   0.676031]

  Transition density matrix analysis:
  -----------------------------------
  
  CT numbers (Mulliken)
    omega =     0.9292
    <Phe> =    -0.0143
  
  Exciton analysis of the transition density matrix
    Trans. dipole moment [D]:             0.052582
      Cartesian components [D]:         [  0.008146,  -0.001969,  -0.051910]
    <r_h> [Ang]:                        [ -1.559059,  -0.065875,   0.001973]
    <r_e> [Ang]:                        [ -1.665935,  -0.204328,  -0.011508]
    |<r_e - r_h>| [Ang]:                  0.175423
    Hole size [Ang]:                      1.229154
      Cartesian components [Ang]:       [  0.654842,   0.657444,   0.806083]
    Electron size [Ang]:                  2.246295
      Cartesian components [Ang]:       [  1.664408,   1.327134,   0.717148]
    RMS electron-hole separation [Ang]:   2.555509
      Cartesian components [Ang]:       [  1.782125,   1.480379,   1.078487]
    Covariance(r_h, r_e) [Ang^2]:         0.028402
    Correlation coefficient:              0.010287
    Center-of-mass size [Ang]:            1.285833
      Cartesian components [Ang]:       [  0.899110,   0.744090,   0.539719]

  Decomposition into state-averaged NTOs
    H- 0 -> L+ 2: -0.6460 ( 83.5%)
    H- 1 -> L+ 0: -0.1520 (  4.6%)
    H- 0 -> L+ 1: -0.1278 (  3.3%)
                   omega =  92.9%
  ----------------------------------------------------------------------------


  Excited state 5 (singlet, A)                                     [converged]
  ----------------------------------------------------------------------------
  Term symbol:  6 (1) A                                     R^2 =  2.69316e-13

  Total energy:                                            -77.9451296329 a.u.
  Excitation energy:                                              10.182434 eV

  Osc. strength:                                                      0.000042
  Trans. dip. moment [a.u.]:           [  -0.000863,   -0.001683,    0.012766]
  <i|r^2|0> [a.u.]:                    [  -0.084578,    0.104264,   -0.025811]
  Two-photon absorption cross-section (SoS) [a.u.]:                 195.560051
  Two-photon absorption matrix (SoS) [a.u.]:
                                       |   -0.289424    0.009848    3.005982 |
                                       |    0.009848    0.456201   -3.904668 |
                                       |    3.005982   -3.904668   -0.181930 |
[...]
    16   -1.345888355084e-03
    17   -1.768869289847e-03
    18    7.472876875301e-04
    19   -3.497537644309e-03
    20    1.250674871492e-02
    21    9.268752538161e-01
    22   -5.052781704749e-04
    23    1.383124986210e-02
    24    8.042829643247e-04
    25    6.688280950405e-02
    26   -4.807799395990e-02
    27   -1.352924684468e+00
    28    9.288346231113e-02
    29   -9.602875073636e-02
    30   -1.691430685756e-03
    31    3.605198020442e-01
    32   -3.655429216063e-01
    33   -6.102559951131e-03
    34    1.500232264948e-02
    35   -1.422431428636e-03
    36   -1.656436401966e-03
    37   -1.138461001264e-03
    38   -2.547058901726e-03
    39    1.289044961991e-02
    40    9.308991351444e-01
    41    3.155335378782e-04
    42   -1.373192230705e-02
    43   -8.274601505286e-04
    44    5.879175861225e-03
    45    8.688219531457e-01
    46    1.345660761421e-02
    47   -2.024391700403e-04
    48    6.118365757258e-04
Sym=X
Ene= 0.230941
Spin=Alpha
Occup=0
     1   -3.628172284564e-02
     2   -1.341256983834e+00
     3    1.462363610094e-02
     4    5.177850222103e-03
     5    9.617396812364e-04
     6   -1.960255172656e-02
     7    2.145794307599e-02
     8    2.765874223863e-01
     9    1.663357454425e-01
    10    1.478160913499e-01
    11    1.613291676863e-02
    12    5.746830406575e-01
    13    5.021538519536e-01
    14    5.510283533201e-02
    15   -2.854054875417e-03
    16    2.762927921264e-04
    17    3.970687497455e-04
    18   -4.465778585422e-04
    19    1.809577738993e-03
    20    1.850157311657e-02
    21    9.268977455152e-01
    22    1.177319700643e-03
    23    1.049407449788e-02
    24    6.598932567930e-04
    25    2.523858578659e-02
    26   -2.482969724148e-02
    27   -4.409619334025e-01
    28    1.621869647906e-01
    29    1.360435649992e-01
    30    1.600351378195e-02
    31    5.892819499781e-01
    32    4.552381553225e-01
    33    5.596487811079e-02
    34    6.076319072359e-03
    35   -6.095252273093e-04
    36   -8.484916814971e-04
    37    1.744562106910e-03
    38   -3.321954813691e-03
    39   -2.371303648396e-02
    40   -8.225588166612e-01
    41    6.078141972649e-04
    42    8.359746257643e-03
    43    5.465716959056e-04
    44    3.313152649196e-02
    45    1.442704744506e+00
    46    1.731079855671e-02
    47    5.774348749315e-03
    48    1.167841487538e-03
Sym=X
Ene= 0.238110
Spin=Alpha
Occup=0
     1   -1.368933632907e-02
     2   -7.068073463372e-01
     3    1.120494410231e-02
     4    7.984130182293e-03
     5    9.879149101461e-04
     6   -8.242712279274e-02
     7    7.679557478399e-02
     8    1.477451948791e+00
     9    1.929404963593e-02
    10   -9.079670502875e-02
    11   -4.559032473513e-03
    12    8.077969865668e-02
    13   -3.445180930402e-01
    14   -1.678926999044e-02
    15   -2.037562783078e-02
    16    2.328358140474e-03
    17    2.745006832296e-03
    18   -1.207777430419e-03
    19    1.219898889181e-02
    20   -2.378349705950e-02
    21   -1.325741615885e+00
    22   -8.553634392383e-03
    23   -1.971209271851e-02
    24   -1.572997184444e-03
    25    8.551190020800e-02
    26   -7.920761964708e-02
    27   -1.570917648533e+00
    28    1.748460666613e-02
    29   -9.794637205260e-02
    30   -5.165227142688e-03
    31    8.623507376260e-02
    32   -3.797178033161e-01
    33   -1.913020741472e-02
    34    2.213589166746e-02
    35   -2.492030519221e-03
    36   -3.004007682748e-03
    37    1.707144779062e-03
    38   -1.255954282184e-02
    39    2.019942656949e-02
    40    1.393600731803e+00
    41   -8.844810440842e-03
    42   -2.097053071780e-02
    43   -1.678587955270e-03
    44    1.188234464474e-02
    45    7.573118770656e-01
    46    1.271014993098e-02
    47    8.302109309521e-03
    48    1.082763435402e-03
Sym=X
Ene= 0.302942
Spin=Alpha
Occup=0
     1   -1.593679976884e-02
     2    1.592676193180e+00
     3   -2.233599472750e-02
     4    4.859860220044e-04
     5   -1.005421375575e-03
     6   -1.434050407405e-03
     7    2.055060184495e-04
     8    9.538383995349e-02
     9   -1.353018292438e-01
    10   -1.389420194257e-01
    11   -1.436059273926e-02
    12   -1.127857288798e+00
    13   -1.168598752516e+00
    14   -1.214210510277e-01
    15   -2.279518376970e-03
    16   -1.288560401961e-03
    17    2.156084392854e-03
    18   -3.218757532273e-02
    19   -8.506407025256e-06
    20    2.163253289050e-02
    21   -1.677249542769e+00
    22    7.860359576606e-04
    23   -2.341714076199e-02
    24   -1.332685459022e-03
    25    5.633540028620e-04
    26    1.567351976006e-03
    27   -3.852322987512e-02
    28    1.377589277616e-01
    29    1.414295564813e-01
    30    1.502510273466e-02
    31    1.136564445184e+00
    32    1.207580711804e+00
    33    1.254477609194e-01
    34    2.878347149484e-04
    35   -1.720588735715e-03
    36    1.926574032090e-03
    37   -3.403603750578e-02
    38   -1.901639549474e-03
    39    2.242868307968e-02
    40   -1.690712356402e+00
    41   -1.832263903686e-03
    42    2.294050741449e-02
    43    1.283571640701e-03
    44   -2.263305533115e-02
    45    1.717214769187e+00
    46    2.383956840274e-02
    47   -2.602278807192e-04
    48    1.119020492820e-03
Sym=X
Ene= 0.461869
Spin=Alpha
Occup=0
     1   -1.184734086347e-01
     2   -6.484353830164e-01
     3   -1.508471916479e-02
     4   -1.094178057682e-02
     5   -1.336280207325e-03
     6    6.198854126279e-02
     7    1.700382620814e-02
     8   -3.640369921636e+00
     9    1.042040143076e-01
    10   -1.019160683418e-01
    11   -1.423871607987e-03
    12    2.389828041465e+00
    13   -2.321220445893e+00
    14   -2.447617441467e-02
    15    5.391099968735e-02
    16   -3.254863876974e-03
    17   -4.433798314716e-03
    18   -2.240596116337e-03
    19    1.989243423219e-02
    20   -1.191779139370e-01
    21   -7.232771220510e-01
    22    8.661290877008e-03
    23    1.572995053242e-02
    24    1.309896129906e-03
    25   -6.108349250835e-02
    26   -1.791829776821e-02
    27    3.596548746758e+00
    28    1.023228859465e-01
    29   -9.816461484723e-02
    30   -1.258487195995e-03
    31    2.438966616422e+00
    32   -2.294616215688e+00
    33   -2.052313391929e-02
    34   -5.293891248563e-02
    35    3.255609948758e-03
    36    4.642171147172e-03
    37    6.894849122064e-05
    38   -1.885680099556e-02
    39    1.165835173789e-01
    40    6.950277773080e-01
    41    8.843376307295e-03
    42    1.646662373924e-02
    43    1.408292737245e-03
    44    1.124381497016e-01
    45    7.235770182705e-01
    46   -1.516363997324e-02
    47   -1.020899259678e-02
    48   -1.340592345276e-03
Sym=X
Ene= 0.578159
Spin=Alpha
Occup=0
     1    2.170929597609e-01
     2    3.592204427290e-02
     3   -2.495180274343e-02
     4    3.060048762789e-02
     5    6.540739938679e-04
     6   -6.168296079132e-03
     7   -1.631455156683e-01
     8   -3.967977874387e-01
     9    2.952359283160e-01
    10   -2.924954743064e-01
    11   -3.354655000243e-03
    12   -7.086231058220e-01
    13    7.546103947432e-01
    14    1.173206180134e-02
    15   -5.086136394430e-03
    16    3.606322120686e-03
    17    3.836504806907e-03
    18   -8.138625230350e-03
    19    6.001881967000e-02
    20    2.709354490810e-01
    21    4.173520454849e-02
    22   -2.518127601764e-02
    23    1.565660262350e-02
    24   -2.393242316626e-04
    25   -5.036822667953e-03
    26   -1.612069145442e-01
    27   -4.491837382893e-01
    28   -3.017219745448e-01
    29    2.876651094982e-01
    30    2.783334180702e-03
    31    7.359705631739e-01
    32   -7.065392675074e-01
    33   -7.621683202815e-03
    34   -4.179096570620e-03
    35    3.975000918588e-03
    36    3.209770886814e-03
    37    1.001408482239e-03
    38    6.016226580415e-02
    39    2.291871478588e-01
    40    5.403459607296e-02
    41    2.843103827626e-02
    42   -1.979030685484e-02
    43    1.549227355506e-04
    44    2.635423313053e-01
    45    3.748370417568e-02
    46    1.686405848388e-02
    47   -2.385740573869e-02
    48   -6.353742610075e-04
Sym=X
Ene= 0.612375
Spin=Alpha
Occup=0
     1    5.725099154982e-01
     2   -3.160112804134e-01
     3    6.273551651914e-02
     4   -3.506314779668e-02
     5    8.625284177697e-04
     6    1.966858026659e-03
     7   -1.416081335120e-02
     8    3.509194494910e-02
     9    3.722241028506e-02
    10    2.397151541583e-02
    11    3.297777600235e-03
    12   -2.627166906331e-01
    13   -2.213843378602e-01
    14   -2.461052857360e-02
    15   -1.067983467651e-02
    16    8.499773563181e-03
    17   -7.445188491504e-03
    18    1.515262675671e-01
    19    1.086890810561e-02
    20   -4.736238384118e-01
    21    2.206051025623e-01
    22   -4.415233770864e-02
    23    5.702459449119e-02
    24    1.359993112858e-03
    25   -6.550626966152e-04
    26    3.302421844265e-03
    27   -4.712809586492e-02
    28    3.591707526248e-02
    29    4.733190232900e-02
    30    4.364972283315e-03
    31   -2.767055645898e-01
    32   -3.355202757703e-01
    33   -3.372342506649e-02
    34   -2.334497006573e-06
    35   -6.935786039345e-03
    36    8.708759469823e-03
    37   -1.469072023381e-01
    38   -1.791236700126e-03
    39    5.243666858246e-01
    40   -1.851911904613e-01
    41   -3.834474928837e-02
    42    5.699027823105e-02
    43    1.571740188946e-03
    44   -5.014605879450e-01
    45    2.062239884659e-01
    46    6.046922825000e-02
    47   -3.867144433155e-02
    48    4.974925186680e-04
Sym=X
Ene= 0.688694
Spin=Alpha
Occup=0
     1    3.081144586246e-04
     2    8.272453043145e-04
     3    6.100902146869e-04
     4    8.542217214715e-04
     5   -1.445367010065e-02
     6    2.748510376495e-05
     7   -1.722057410209e-04
     8    5.804265785409e-04
     9    3.104813715371e-02
    10    3.947783650578e-02
    11   -6.716287497701e-01
    12   -2.924846249140e-02
    13   -3.471922237848e-02
    14    6.126320057338e-01
    15   -1.362872603193e-03
    16    8.184986122671e-02
    17   -7.839002776965e-02
    18   -8.611011940307e-03
    19   -1.047091268639e-03
    20    4.861012593051e-04
    21    2.526728720635e-04
    22    8.875750323482e-04
    23    1.260857971119e-03
    24   -2.129910692522e-02
    25   -1.401431198844e-05
    26    2.132943187202e-04
    27   -6.552801193839e-04
    28    3.170806534775e-02
    29    4.003510468197e-02
    30   -6.692134663488e-01
    31   -3.031334362743e-02
    32   -3.581194686986e-02
    33    6.131911335985e-01
    34    1.291691068082e-03
    35   -8.284993605607e-02
    36    7.894334660077e-02
    37    8.440283100516e-03
    38    1.087033332601e-03
    39   -2.027462917560e-04
    40   -9.119297180315e-04
    41    1.004831262316e-03
    42    1.328767441032e-03
    43   -2.101344828334e-02
    44   -3.426253492456e-04
    45   -2.465994226268e-04
    46    9.664464515416e-04
    47    1.338680077928e-03
    48   -2.089159728381e-02
Sym=X
Ene= 0.704999
Spin=Alpha
Occup=0
     1   -5.065308578144e-01
     2    2.812259846811e-01
     3   -8.390238077483e-02
     4   -4.548561619491e-02
     5   -6.620689315674e-03
     6   -5.055190364098e-02
     7   -2.890204965667e-01
     8    4.903635607302e-01
     9    2.149078519068e-01
    10   -1.705845557996e-01
    11   -1.415096247088e-04
    12   -1.849617281150e-01
    13    3.940110288206e-02
    14   -6.978182328851e-03
    15    2.006038341865e-01
    16   -2.063854348391e-02
    17   -2.450128682026e-02
    18    4.658845766520e-03
    19   -7.777318344070e-02
    20   -5.194548984346e-01
    21    1.434610215507e-01
    22    3.972435944177e-02
    23    8.486888746791e-02
    24    6.793606901729e-03
    25   -4.195949262644e-02
    26   -3.233660015826e-01
    27    4.274984867814e-01
    28   -2.061442413695e-01
    29    1.919746580332e-01
    30    1.616321871259e-03
    31    3.431143085727e-02
    32   -2.742115346895e-02
    33    8.029498207582e-04
    34    1.814043512970e-01
    35   -1.962952405375e-02
    36   -2.208679976005e-02
    37   -4.236107169294e-03
    38   -7.481634572570e-02
    39   -4.211384934335e-01
    40    9.002504435375e-02
    41   -4.236776858237e-02
    42   -7.147475795065e-02
    43   -6.227798040759e-03
    44   -4.735408218651e-01
    45    1.317310664068e-01
    46    7.824893692052e-02
    47    4.009280711992e-02
    48    6.133369510657e-03
Sym=X
Ene= 0.778846
Spin=Alpha
Occup=0
     1    5.122540229766e-01
     2   -5.874019939295e-01
     3    1.089595882699e-01
     4    2.670131176189e-02
     5    6.603824308719e-03
     6    8.585354115284e-02
     7   -2.637182052021e-01
     8   -5.535162471359e-01
     9    7.582504293773e-02
    10   -1.455707883423e-01
    11   -4.838327089343e-03
    12    4.243186901695e-01
    13   -2.107626249407e-01
    14    7.335893389125e-03
    15   -1.880404547437e-01
    16    1.567708823766e-02
    17    1.914933906489e-02
    18    6.460149351253e-03
    19    6.057167443732e-03
    20    5.097841600420e-01
    21   -3.978608211631e-01
    22   -1.623620079699e-02
    23   -9.816200547685e-02
    24   -6.503738194411e-03
    25   -9.319410861717e-02
    26    1.799969508014e-01
    27    6.990568881515e-01
    28    9.316847319567e-02
    29   -9.207697929071e-02
    30   -8.664024649199e-04
    31    3.264902220822e-01
    32   -2.914486339530e-01
    33   -1.853302879718e-03
    34    2.176962949774e-01
    35   -1.871079532451e-02
    36   -2.368470426038e-02
    37    2.858513324568e-03
    38   -1.499392637412e-02
    39   -5.841329040317e-01
    40    4.718113259758e-01
    41   -1.922499594607e-02
    42   -1.177400008805e-01
    43   -7.946777466975e-03
    44   -5.343414693565e-01
    45    4.729545346111e-01
    46    1.112920094539e-01
    47    3.317936145402e-02
    48    7.269610082816e-03
Sym=X
Ene= 0.807631
Spin=Alpha
Occup=0
     1    5.932968943960e-06
     2   -8.660103990430e-04
     3    1.243920859450e-03
     4    1.650432193211e-03
     5   -2.618199799343e-02
     6    9.211549757769e-06
     7   -3.308924411817e-04
     8    1.722380336200e-04
     9    3.515457253628e-02
    10    4.452186332210e-02
    11   -7.637079513019e-01
    12   -5.172641786905e-02
    13   -6.524533593292e-02
    14    1.124471209049e+00
    15    1.081841308794e-03
    16   -6.529542975415e-02
    17    6.228302987253e-02
    18    7.010395560797e-03
    19    9.101173750112e-04
    20   -2.937060864691e-05
    21    1.158804102918e-03
    22    1.677956492385e-03
    23    2.276294868659e-03
    24   -3.514845797150e-02
    25    2.174401167694e-05
    26   -3.263474354054e-04
    27    1.533497717605e-04
    28   -3.652294000328e-02
    29   -4.583328198457e-02
    30    7.639873977649e-01
    31    5.395308271690e-02
    32    6.767408589829e-02
    33   -1.126778645772e+00
    34    1.071032367557e-03
    35   -6.511289804727e-02
    36    6.245432645232e-02
    37    6.482691534659e-03
    38    8.465752829544e-04
    39    7.384195016379e-05
    40   -9.301359644605e-04
    41   -1.525405084829e-03
    42   -2.000829537885e-03
    43    3.439380887639e-02
    44   -1.476660897709e-06
    45    1.000072519421e-03
    46   -1.423416278759e-03
    47   -1.952223810120e-03
    48    3.383226393548e-02
Sym=X
Ene= 0.859677
Spin=Alpha
Occup=0
     1    5.396037279800e-03
     2   -1.086077403594e+00
     3    1.462920937744e-01
     4    5.654281376831e-02
     5    1.002907216882e-02
     6   -5.576612558274e-03
     7   -2.196791968752e-02
     8    5.620666843120e-03
     9   -4.502974353748e-01
    10   -4.360915159537e-01
    11   -4.582786859832e-02
    12    9.941280218996e-01
    13    1.004463240294e+00
    14    1.036592617327e-01
    15    1.917892680460e-02
    16    9.803559253791e-03
    17   -1.537504127993e-02
    18    2.322702142971e-01
    19    9.621543180103e-03
    20   -4.847595762550e-02
    21    1.125919351742e+00
    22    4.983547507383e-02
    23    1.615543850395e-01
    24    1.191094146251e-02
    25    3.625848172407e-03
    26   -2.534677372341e-02
    27    3.342167133701e-02
    28   -3.983415272870e-01
    29   -3.986513775453e-01
    30   -4.337086839516e-02
    31    9.069679166984e-01
    32    9.558827932592e-01
    33    1.015356573396e-01
    34   -8.142282252224e-03
    35   -1.083687864419e-02
    36    1.374005278443e-02
    37   -2.281928952901e-01
    38   -1.530654819892e-02
    39    1.403199147182e-02
    40   -1.077112179444e+00
    41    4.943733604355e-02
    42    1.482007548973e-01
    43    1.124802464986e-02
    44    1.764884510378e-02
    45    1.029160465119e+00
    46    1.351058602917e-01
    47    5.711322872912e-02
    48    9.707040604153e-03
Sym=X
Ene= 0.930915
Spin=Alpha
Occup=0
     1    1.118424473702e-01
     2   -1.236223903174e+00
     3    1.756369039592e-01
     4   -6.212724294823e-04
     5    8.117409756919e-03
     6   -6.936362710111e-03
     7   -6.898245126037e-02
     8    4.503869948826e-02
     9   -5.021345280325e-01
    10   -4.374146613981e-01
    11   -4.910892775532e-02
    12    1.477116198375e+00
    13    1.321868311614e+00
    14    1.466059369096e-01
    15    2.524345724852e-02
    16    3.782808358101e-03
    17   -7.629682358468e-03
    18    1.033157981947e-01
    19    1.913740804153e-02
    20   -1.444094853808e-01
    21    1.117803717283e+00
    22   -1.932301710338e-02
    23    1.696309305676e-01
    24    8.991181421505e-03
    25    3.782744625499e-03
    26   -5.199614513157e-02
    27    1.436098711228e-01
    28    4.562816925347e-01
    29    5.408996351828e-01
    30    5.377690120177e-02
    31   -1.392028350931e+00
    32   -1.589228495997e+00
    33   -1.603401323799e-01
    34   -7.610794326254e-03
    35    6.672253956670e-03
    36   -8.092621346221e-03
    37    1.390004752848e-01
    38   -1.109798122093e-02
    39   -1.254046845921e-01
    40    1.310699534767e+00
    41    8.497811588185e-03
    42   -1.854917215800e-01
    43   -1.065210592327e-02
    44    1.407997476516e-01
    45   -1.305522067782e+00
    46   -1.934289354749e-01
    47    7.878656096269e-03
    48   -8.753039824663e-03
Sym=X
Ene= 0.971107
Spin=Alpha
Occup=0
     1    6.081895029584e-02
     2   -8.005651459450e-01
     3    7.636254628843e-02
     4    9.580736904090e-02
     5    9.107749388057e-03
     6   -2.735793894504e-02
     7   -3.094156247380e-01
     8   -4.198489262010e-01
     9   -4.521978043226e-01
    10    5.047521782761e-01
    11    8.780599671357e-03
    12    1.353482317959e+00
    13   -1.559275356040e+00
    14   -2.896881778288e-02
    15    6.073342126714e-02
    16    1.143386261302e-02
    17    1.005472025861e-02
    18   -3.114832113865e-02
    19    3.030515365004e-01
    20    6.468953468681e-02
    21   -1.061890434259e+00
    22   -9.710369466075e-02
    23   -1.139382179560e-01
    24   -1.136781296657e-02
    25    2.578322743409e-02
    26    1.842808060875e-01
    27    6.232890914770e-01
    28   -4.982326791629e-01
    29    4.171534315947e-01
    30    1.365416650496e-03
    31    1.549090971343e+00
    32   -1.270247249720e+00
    33   -2.490102086160e-03
    34   -5.434755119030e-02
    35   -1.231552319873e-02
    36   -8.938262789828e-03
    37    1.000842504301e-02
    38   -2.923155377596e-01
    39   -5.227220657035e-02
    40    7.780247565471e-01
    41   -9.185829557530e-02
    42   -7.438979231147e-02
    43   -8.825344415652e-03
    44   -6.118474413243e-02
    45    9.433313872742e-01
    46    9.162446451085e-02
    47    9.381670921878e-02
    48    9.800089504030e-03
[5D]

======= END OF MOLDEN-FORMATTED INPUT FILE =======


        *************************************************************
        *                                                           *
        *  Thank you very much for using Q-Chem.  Have a nice day.  *
        *                                                           *
        *************************************************************


