                  Welcome to Q-Chem
     A Quantum Leap Into The Future Of Chemistry


 Q-Chem 5.4 (devel), Q-Chem, Inc., Pleasanton, CA (2021)

 E. Epifanovsky,  A. T. B. Gilbert,  Xintian Feng,  Joonho Lee,  Yuezhi Mao,  
 N. Mardirossian,  P. Pokhilko,  A. White,  M. Wormit,  M. P. Coons,  
 A. L. Dempwolff,  Zhengting Gan,  D. Hait,  P. R. Horn,  L. D. Jacobson,  
 I. Kaliman,  J. Kussmann,  A. W. Lange,  Ka Un Lao,  D. S. Levine,  Jie Liu,  
 S. C. McKenzie,  A. F. Morrison,  K. Nanda,  F. Plasser,  D. R. Rehn,  
 M. L. Vidal,  Zhi-Qiang You,  Ying Zhu,  B. Alam,  B. Albrecht,  
 A. Aldossary,  E. Alguire,  J. H. Andersen,  D. Barton,  K. Begam,  A. Behn,  
 Y. A. Bernard,  E. J. Berquist,  H. Burton,  A. Carreras,  K. Carter-Fenk,  
 R. Chakraborty,  A. D. Chien,  K. D. Closser,  V. Cofer-Shabica,  
 S. Dasgupta,  Jia Deng,  M. de Wergifosse,  M. Diedenhofen,  Hainam Do,  
 S. Ehlert,  Po-Tung Fang,  S. Fatehi,  Qingguo Feng,  T. Friedhoff,  
 J. Gayvert,  Qinghui Ge,  G. Gidofalvi,  M. Goldey,  J. Gomes,  
 C. Gonzalez-Espinoza,  S. Gulania,  A. Gunina,  M. W. D. Hanson-Heine,  
 P. H. P. Harbach,  A. W. Hauser,  M. F. Herbst,  M. Hernandez Vera,  
 M. Hodecker,  Z. C. Holden,  S. Houck,  Xunkun Huang,  Kerwin Hui,  
 B. C. Huynh,  M. Ivanov,  Hyunjun Ji,  Hanjie Jiang,  B. Kaduk,  S. Kaehler,  
 K. Khistyaev,  Jaehoon Kim,  P. Klunzinger,  Z. Koczor-Benda,  
 Joong Hoon Koh,  D. Kosenkov,  L. Koulias,  T. Kowalczyk,  C. M. Krauter,  
 K. Kue,  A. Kunitsa,  T. Kus,  A. Landau,  K. V. Lawler,  D. Lefrancois,  
 S. Lehtola,  Rain Li,  Yi-Pei Li,  Jiashu Liang,  M. Liebenthal,  
 Hung-Hsuan Lin,  You-Sheng Lin,  Fenglai Liu,  Kuan-Yu Liu,  
 M. Loipersberger,  A. Luenser,  A. Manjanath,  P. Manohar,  E. Mansoor,  
 S. F. Manzer,  Shan-Ping Mao,  A. V. Marenich,  T. Markovich,  S. Mason,  
 S. A. Maurer,  P. F. McLaughlin,  M. F. S. J. Menger,  J.-M. Mewes,  
 S. A. Mewes,  P. Morgante,  J. W. Mullinax,  K. J. Oosterbaan,  G. Paran,  
 Alexander C. Paul,  Suranjan K. Paul,  F. Pavosevic,  Zheng Pei,  S. Prager,  
 E. I. Proynov,  E. Ramos,  B. Rana,  A. E. Rask,  A. Rettig,  R. M. Richard,  
 F. Rob,  E. Rossomme,  T. Scheele,  M. Scheurer,  M. Schneider,  
 N. Sergueev,  S. M. Sharada,  W. Skomorowski,  D. W. Small,  C. J. Stein,  
 Yu-Chuan Su,  E. J. Sundstrom,  Zhen Tao,  J. Thirman,  T. Tsuchimochi,  
 N. M. Tubman,  S. P. Veccham,  O. Vydrov,  J. Wenzel,  J. Witte,  A. Yamada,  
 Kun Yao,  S. Yeganeh,  S. R. Yost,  A. Zech,  Igor Ying Zhang,  Xing Zhang,  
 Yu Zhang,  D. Zuev,  A. Aspuru-Guzik,  A. T. Bell,  N. A. Besley,  
 K. B. Bravaya,  B. R. Brooks,  D. Casanova,  Jeng-Da Chai,  S. Coriani,  
 C. J. Cramer,  A. E. DePrince, III,  R. A. DiStasio Jr.,  A. Dreuw,  
 B. D. Dunietz,  T. R. Furlani,  W. A. Goddard III,  S. Grimme,  
 S. Hammes-Schiffer,  T. Head-Gordon,  W. J. Hehre,  Chao-Ping Hsu,  
 T.-C. Jagau,  Yousung Jung,  A. Klamt,  Jing Kong,  D. S. Lambrecht,  
 WanZhen Liang,  N. J. Mayhall,  C. W. McCurdy,  J. B. Neaton,  
 C. Ochsenfeld,  J. A. Parkhill,  R. Peverati,  V. A. Rassolov,  Yihan Shao,  
 L. V. Slipchenko,  T. Stauch,  R. P. Steele,  J. E. Subotnik,  
 A. J. W. Thom,  A. Tkatchenko,  D. G. Truhlar,  T. Van Voorhis,  
 T. A. Wesolowski,  K. B. Whaley,  H. L. Woodcock III,  P. M. Zimmerman,  
 S. Faraji,  P. M. W. Gill,  M. Head-Gordon,  J. M. Herbert,  A. I. Krylov

 Additional authors for Version 5.4.1: 
 S. Kotaru,  Shaozhi Li,  Xiangyuan Li,  F. Matz,  A. Molle,  Haisheng Ren,  
 Yingli Su,  Hung-Yi Tsai,  C. Utku,  Fang Wang

 Contributors to earlier versions of Q-Chem not listed above: 
 R. D. Adamson,  B. Austin,  R. Baer,  J. Baker,  G. J. O. Beran,  
 K. Brandhorst,  S. T. Brown,  E. F. C. Byrd,  A. K. Chakraborty,  
 G. K. L. Chan,  Chun-Min Chang,  Yunqing Chen,  C.-L. Cheng,  
 Siu Hung Chien,  D. M. Chipman,  D. L. Crittenden,  H. Dachsel,  
 R. J. Doerksen,  A. D. Dutoi,  R. G. Edgar,  J. Fosso-Tande,  
 L. Fusti-Molnar,  D. Ghosh,  A. Ghysels,  A. Golubeva-Zadorozhnaya,  
 J. Gonthier,  M. S. Gordon,  S. R. Gwaltney,  G. Hawkins,  J. E. Herr,  
 A. Heyden,  S. Hirata,  E. G. Hohenstein,  G. Kedziora,  F. J. Keil,  
 C. Kelley,  Jihan Kim,  R. A. King,  R. Z. Khaliullin,  P. P. Korambath,  
 W. Kurlancheek,  A. Laurent,  A. M. Lee,  M. S. Lee,  S. V. Levchenko,  
 Ching Yeh Lin,  D. Liotard,  E. Livshits,  R. C. Lochan,  I. Lotan,  
 L. A. Martinez-Martinez,  P. E. Maslen,  N. Nair,  D. P. O'Neill,  
 D. Neuhauser,  E. Neuscamman,  C. M. Oana,  R. Olivares-Amaya,  R. Olson,  
 T. M. Perrine,  B. Peters,  P. A. Pieniazek,  A. Prociuk,  Y. M. Rhee,  
 J. Ritchie,  M. A. Rohrdanz,  E. Rosta,  N. J. Russ,  H. F. Schaefer III,  
 M. W. Schmidt,  N. E. Schultz,  S. Sharma,  N. Shenvi,  C. D. Sherrill,  
 A. C. Simmonett,  A. Sodt,  T. Stein,  D. Stuck,  K. S. Thanthiriwatte,  
 V. Vanovschi,  L. Vogt,  Tao Wang,  A. Warshel,  M. A. Watson,  
 C. F. Williams,  Q. Wu,  X. Xu,  Jun Yang,  W. Zhang,  Yan Zhao

 Please cite Q-Chem as follows:
 Y. Shao et al., Mol. Phys. 113, 184-215 (2015)
 DOI: 10.1080/00268976.2014.952696

 Q-Chem 5.4.1 for Intel X86 EM64T Linux

 Parts of Q-Chem use Armadillo 9.800.1 (Horizon Scraper).
 http://arma.sourceforge.net/

 Q-Chem begins on Mon Mar 20 18:18:29 2023  

 Host: cpu186.baobab
0

     Scratch files written to /scratch/fum/qchem73183//
 Processing $rem in /home/share/wesolowski/qc5.aug2021.FDE/config/preferences:
 Processing $rem in /home/fum/.qchemrc:

 Checking the input file for inconsistencies... 	...done.

--------------------------------------------------------------
User input:
--------------------------------------------------------------
$comment
generated from CCJob.Templates
$end

$rem
sym_ignore = true
method = adc(2)
ee_states = 10
basis = cc-pVDZ
mem_static = 1024
mem_total = 40000
adc_davidson_maxiter = 900
adc_davidson_conv = 6
adc_print = 3
adc_prop_es = true
adc_prop_es2es = true
adc_prop_tpa = true
molden_format = True
state_analysis = true
print_orbitals = 15
gen_scfman = false
fde_export_density = true
fde_details = 3
$end

$molecule
0 1
H -0.013543899294904974 -0.283946088831665 0.06318218619785326
C -1.0910631407279574 -0.5119281010668115 -0.0022426204555871967
H -1.263834077952456 -1.5991641093734372 -0.07616625920623442
C -2.057907074730026 0.4063298326349244 0.006730759844228129
H -1.784135865154229 1.4563549641268583 0.0834502832947259
H -3.0931292387959393 0.07943801247040336 -0.06274630710207287                     
$end
--------------------------------------------------------------
 ----------------------------------------------------------------
             Standard Nuclear Orientation (Angstroms)
    I     Atom           X                Y                Z
 ----------------------------------------------------------------
    1      H      -0.0135438993    -0.2839460888     0.0631821862
    2      C      -1.0910631407    -0.5119281011    -0.0022426205
    3      H      -1.2638340780    -1.5991641094    -0.0761662592
    4      C      -2.0579070747     0.4063298326     0.0067307598
    5      H      -1.7841358652     1.4563549641     0.0834502833
    6      H      -3.0931292388     0.0794380125    -0.0627463071
 ----------------------------------------------------------------
 Nuclear Repulsion Energy =          33.19762134 hartrees
 There are        8 alpha and        8 beta electrons
 Requested basis set is cc-pVDZ
 There are 24 shells and 48 basis functions
 Total memory of 40000 MB is distributed as follows: 
   MEM_STATIC is set to 1024 MB
   QALLOC/CCMAN JOB total memory use is  38976 MB
 Warning: actual memory use might exceed 40000 MB

 Total QAlloc Memory Limit  40000 MB
 Mega-Array Size      1001 MB
 MEM_STATIC part      1024 MB

                       Distance Matrix (Angstroms)
             H (  1)   C (  2)   H (  3)   C (  4)   H (  5)
   C (  2)  1.103315
   H (  3)  1.820012  1.103357
   C (  4)  2.158492  1.333441  2.158571
   H (  5)  2.482751  2.088500  3.103609  1.087837
   H (  6)  3.103506  2.088455  2.482782  1.087828  1.905449

 A cutoff of  1.0D-11 yielded    300 shell pairs
 There are      1220 function pairs (      1329 Cartesian)
 Smallest overlap matrix eigenvalue = 4.79E-03

 Scale SEOQF with 1.000000e-01/1.000000e-01/1.000000e+00

 Standard Electronic Orientation quadrupole field applied
 Nucleus-field energy     =     0.0000000022 hartrees
 Guess from superposition of atomic densities
 Warning:  Energy on first SCF cycle will be non-variational
 SAD guess density has 16.000000 electrons
 A restricted Hartree-Fock SCF calculation will be
 performed using Pulay DIIS extrapolation
 SCF converges when DIIS error is below 1.0E-08
 using 10 threads for integral computing
 -------------------------------------------------------
 OpenMP Integral computing Module                
 Release: version 1.0, May 2013, Q-Chem Inc. Pittsburgh 
 -------------------------------------------------------
 ---------------------------------------
  Cycle       Energy         DIIS Error
 ---------------------------------------
    1     -78.3953499810      9.92E-02
    2     -78.0157900597      7.12E-03
    3     -78.0362425842      1.82E-03
    4     -78.0377202831      5.65E-04
    5     -78.0378384746      5.94E-05
    6     -78.0378404200      1.24E-05
    7     -78.0378404988      4.27E-06
    8     -78.0378405081      1.62E-06
    9     -78.0378405094      3.56E-07
   10     -78.0378405095      8.96E-08
   11     -78.0378405095      6.52E-09 Convergence criterion met
 ---------------------------------------
 SCF time:  CPU 2.10 s  wall 3.35 s
 SCF   energy in the final basis set = -78.03784051
 Total energy in the final basis set = -78.03784051
Exporting Density Matrix to file 'Densmat_SCF.txt'.
Export successful
================================================================================
|                                                                              |
|                                 A D C  M A N                                 |
|                                                                              |
 ------------------------------------------------------------------------------ 
|                                                                              |
| Components:                                                                  |
|                                                                              |
| - libvmm - 1.3-trunk                                                         |
|   Authors:                                                                   |
|   Evgeny Epifanovsky, Ilya Kaliman                                           |
|                                                                              |
| - libtensor - 2.5-trunk                                                      |
|   Authors:                                                                   |
|   Evgeny Epifanovsky, Michael Wormit, Dmitry Zuev, Sam Manzer,               |
|   Ilya Kaliman                                                               |
|                                                                              |
| - libwfa - 1.1-trunk                                                         |
|   Authors:                                                                   |
|   Felix Plasser, Stefanie Mewes (Baeppler), Benjamin Thomitzni,              |
|   Michael Wormit, Feng Chen, Anna I. Krylov, Pavel Pokhilko                  |
|                                                                              |
| - libadc - 1.1-trunk                                                         |
|   Authors:                                                                   |
|   Michael Wormit, Adrian L. Dempwolff, Philipp H. P. Harbach,                |
|   Caroline Krauter, Dirk Rehn, Matthias Schneider, Jan Wenzel                |
|                                                                              |
| - adcman - 2.6-trunk                                                         |
|   Authors:                                                                   |
|   Michael Wormit, Adrian L. Dempwolff, Philipp H. P. Harbach,                |
|   Caroline Krauter, Daniel Lefrancois, Jan-Michael Mewes, Dirk Rehn,         |
|   Matthias Schneider, Jan Wenzel, Andreas Dreuw                              |
|                                                                              |
| Authors of earlier versions of ADCMAN:                                       |
| Andreas Dreuw, Jan Hendrik Starcke, Dirk Rehn, Michael Wormit                |
|                                                                              |
================================================================================

 Created directory /scratch/fum/qchem73183/plots
  Import QC data ...  CPU 0.00 s  wall 0.00 s

 Alpha MOs, Restricted
 -- Occupied --                  
-11.240 -11.237  -1.030  -0.786  -0.636  -0.582  -0.498  -0.375
  1 A     2 A     3 A     4 A     5 A     6 A     7 A     8 A                  
 -- Virtual --                   
  0.168   0.202   0.231   0.236   0.303   0.459   0.582   0.609
  9 A    10 A    11 A    12 A    13 A    14 A    15 A    16 A                  
  0.688   0.706   0.777   0.807   0.858   0.928   0.969   1.005
 17 A    18 A    19 A    20 A    21 A    22 A    23 A    24 A                  
  1.129   1.236   1.241   1.262   1.292   1.592   1.685   1.783
 25 A    26 A    27 A    28 A    29 A    30 A    31 A    32 A                  
  1.809   1.828   1.875   1.905   1.962   1.965   2.229   2.246
 33 A    34 A    35 A    36 A    37 A    38 A    39 A    40 A                  
  2.357   2.422   2.465   2.640   2.677   2.792   3.107   3.370
 41 A    42 A    43 A    44 A    45 A    46 A    47 A    48 A                  

 Beta MOs, Restricted
 -- Occupied --                  
-11.240 -11.237  -1.030  -0.786  -0.636  -0.582  -0.498  -0.375
  1 A     2 A     3 A     4 A     5 A     6 A     7 A     8 A                  
 -- Virtual --                   
  0.168   0.202   0.231   0.236   0.303   0.459   0.582   0.609
  9 A    10 A    11 A    12 A    13 A    14 A    15 A    16 A                  
  0.688   0.706   0.777   0.807   0.858   0.928   0.969   1.005
 17 A    18 A    19 A    20 A    21 A    22 A    23 A    24 A                  
  1.129   1.236   1.241   1.262   1.292   1.592   1.685   1.783
 25 A    26 A    27 A    28 A    29 A    30 A    31 A    32 A                  
  1.809   1.828   1.875   1.905   1.962   1.965   2.229   2.246
 33 A    34 A    35 A    36 A    37 A    38 A    39 A    40 A                  
  2.357   2.422   2.465   2.640   2.677   2.792   3.107   3.370
 41 A    42 A    43 A    44 A    45 A    46 A    47 A    48 A                  
  Import AO data ...  CPU 0.00 s  wall 0.00 s
  Using point group: C1
  Irreducible representations in point group: A
  Molecular orbitals: 
  Occupied MOs:
  Block   0:   1 (  A) A   2 (  A) A   3 (  A) A   4 (  A) A   5 (  A) A
                  -11.24      -11.24       -1.03     -0.7855     -0.6358
               6 (  A) A   7 (  A) A   8 (  A) A
                 -0.5817     -0.4976     -0.3746
  Block   1:   1 (  A) B   2 (  A) B   3 (  A) B   4 (  A) B   5 (  A) B
                  -11.24      -11.24       -1.03     -0.7855     -0.6358
               6 (  A) B   7 (  A) B   8 (  A) B
                 -0.5817     -0.4976     -0.3746
  Virtual MOs:
  Block   0:   9 (  A) A  10 (  A) A  11 (  A) A  12 (  A) A  13 (  A) A
                  0.1679      0.2023      0.2308      0.2359      0.3028
              14 (  A) A  15 (  A) A  16 (  A) A  17 (  A) A  18 (  A) A
                  0.4594      0.5825      0.6089      0.6885      0.7057
              19 (  A) A  20 (  A) A  21 (  A) A  22 (  A) A
                  0.7765      0.8073      0.8584      0.9278
  Block   1:  23 (  A) A  24 (  A) A  25 (  A) A  26 (  A) A  27 (  A) A
                  0.9694       1.005       1.129       1.236       1.241
              28 (  A) A  29 (  A) A  30 (  A) A  31 (  A) A  32 (  A) A
                   1.262       1.292       1.592       1.685       1.783
              33 (  A) A  34 (  A) A  35 (  A) A  36 (  A) A
                   1.809       1.828       1.875       1.905
  Block   2:  37 (  A) A  38 (  A) A  39 (  A) A  40 (  A) A  41 (  A) A
                   1.962       1.965       2.229       2.246       2.357
              42 (  A) A  43 (  A) A  44 (  A) A  45 (  A) A  46 (  A) A
                   2.422       2.465        2.64       2.677       2.792
              47 (  A) A  48 (  A) A
                   3.107        3.37
  Block   3:   9 (  A) B  10 (  A) B  11 (  A) B  12 (  A) B  13 (  A) B
                  0.1679      0.2023      0.2308      0.2359      0.3028
              14 (  A) B  15 (  A) B  16 (  A) B  17 (  A) B  18 (  A) B
                  0.4594      0.5825      0.6089      0.6885      0.7057
              19 (  A) B  20 (  A) B  21 (  A) B  22 (  A) B
                  0.7765      0.8073      0.8584      0.9278
  Block   4:  23 (  A) B  24 (  A) B  25 (  A) B  26 (  A) B  27 (  A) B
                  0.9694       1.005       1.129       1.236       1.241
              28 (  A) B  29 (  A) B  30 (  A) B  31 (  A) B  32 (  A) B
                   1.262       1.292       1.592       1.685       1.783
              33 (  A) B  34 (  A) B  35 (  A) B  36 (  A) B
                   1.809       1.828       1.875       1.905
  Block   5:  37 (  A) B  38 (  A) B  39 (  A) B  40 (  A) B  41 (  A) B
                   1.962       1.965       2.229       2.246       2.357
              42 (  A) B  43 (  A) B  44 (  A) B  45 (  A) B  46 (  A) B
                   2.422       2.465        2.64       2.677       2.792
              47 (  A) B  48 (  A) B
                   3.107        3.37
  Import MO data ...  CPU 0.09 s  wall 0.03 s
  Import HF data ...  CPU 0.40 s  wall 0.13 s
  Import 2e integrals ...  CPU 1.16 s  wall 0.21 s

--------------------------------------------------------------------------------
                                   HF Summary                                   
--------------------------------------------------------------------------------
  Energy:                                                  -78.0378405095 a.u.
  Dip. moment [a.u.]:                  [   0.011414,   -0.010832,   -0.000083]
  Total dipole [Debye]:                                               0.039997
  <r^2> [a.u.]:                        [ 176.663466,   35.289174,   11.685855]
  Total <r^2> [a.u.]:                                               223.638495
--------------------------------------------------------------------------------
  HF properties ...  CPU 0.03 s  wall 0.02 s
  MP(1) calculation ...  CPU 0.01 s  wall 0.01 s
  N^6 prerequesite intermediates ...  CPU 0.77 s  wall 0.13 s
  Difference density matrix of state mp2_gs printed to ASCII file 'State_mp2_gs_Difference.txt'
Exporting MP density matrix to file 'Densmat_MP.txt'.
Export successful
  Total density matrix of state mp2_gs printed to ASCII file 'State_mp2_gs_Total.txt'
Exporting MP density matrix to file 'Densmat_MP.txt'.
Export successful

--------------------------------------------------------------------------------
                                 MP(2) Summary                                  
--------------------------------------------------------------------------------
  MP energy contribution:                                   -0.2807018064 a.u.
  Total energy:                                            -78.3185423159 a.u.
  Dip. moment [a.u.]:                  [   0.010208,   -0.009687,   -0.000072]
  Total dipole [Debye]:                                               0.035769
  <r^2> [a.u.]:                        [ 176.695877,   35.324535,   11.512831]
  Total <r^2> [a.u.]:                                               223.533243

  Density matrix analysis:
  ------------------------
  NOs
    Occupation of frontier NOs:
       0.0455   1.9380
    Number of electrons: 16.000000
    Number of unpaired electrons: n_u =  0.40795, n_u,nl =  0.04594
    NO participation ratio (PR_NO): 13.901137
  
  
  Mulliken Population Analysis
  Atom      Charge (e)              h+              e-           Del q
  --------------------------------------------------------------------
   1 H        0.053229        0.014198       -0.011344        0.002854
   2 C       -0.131178        0.094121       -0.101349       -0.007227
   3 H        0.053241        0.014197       -0.011344        0.002853
   4 C       -0.088997        0.095724       -0.098538       -0.002814
   5 H        0.056855        0.013515       -0.011348        0.002167
   6 H        0.056850        0.013515       -0.011348        0.002167
  --------------------------------------------------------------------
  Sum:        0.000000        0.245271       -0.245271        0.000000
  
  Multipole moment analysis of the density matrix
    Molecular charge:                      0.000000
    Number of electrons:                   16.000000
      Center of electronic charge [Ang]: [ -1.565867,  -0.060986,   0.002168]
    Total nuclear charge:                  16.000000
      Center of nuclear charge [Ang]:    [ -1.565529,  -0.061307,   0.002166]
    Dipole moment [D]:                     0.035769
      Cartesian components [D]:          [  0.025945,  -0.024622,  -0.000182]
    RMS size of the density [Ang]:         1.206884
      Cartesian components [Ang]:        [  0.800346,   0.783915,   0.448877]
  
  Exciton analysis of the difference density matrix
    <r_h> [Ang]:                  [ -1.565310,  -0.061518,   0.002159]
    <r_e> [Ang]:                  [ -1.562707,  -0.063989,   0.002136]
    |<r_e - r_h>| [Ang]:            0.003589
    Hole size [Ang]:                1.402496
      Cartesian components [Ang]: [  0.853687,   0.840938,   0.728721]
    Electron size [Ang]:            1.361859
      Cartesian components [Ang]: [  0.879732,   0.864430,   0.577488]
--------------------------------------------------------------------------------
  MP(2) calculation ...  CPU 0.41 s  wall 0.22 s
  Start ADC(2)-s ...  CPU 0.02 s  wall 0.02 s
  ADC(2) intermediates ...  CPU 0.05 s  wall 0.02 s
  Starting Davidson for singlet states of irrep A ... 
--------------------------------------------------------------------------------
   It NVec Conv  Avg. Norm  Max. Norm  Conv. states           Remark
--------------------------------------------------------------------------------
        10    0  1.329e-01  4.687e-01  0.4115 n n n n n n n n Guess.
    1   20    0  2.387e-02  1.228e-01  0.3262 n n n n n n n n 
    2   30    0  6.104e-03  2.920e-02  0.3213 n n n n n n n n 
    3   40    0  2.254e-03  1.479e-02  0.3209 n n n n n n n n 
    4   50    0  8.586e-04  7.370e-03  0.3209 n n n n n n n n 
    5   20    0  4.196e-04  3.469e-03  0.3209 n n n n n n n n Subspace collapsed.
    6   30    0  3.837e-04  3.661e-03  0.3209 n n n n n n n n 
    7   40    0  2.656e-04  2.577e-03  0.3209 n n n n n n n n 
    8   50    0  1.025e-04  9.713e-04  0.3209 n n n n n n n n 
    9   20    1  4.299e-05  3.732e-04  0.3209 n n n y n n n n Subspace collapsed.
   10   30    3  4.094e-05  3.682e-04  0.3209 n n y y n y n n 
   11   40    6  1.854e-05  1.382e-04  0.3209 y y y y y y n n 
   12   50    6  1.301e-05  1.058e-04  0.3209 y y y y y y n n 
   13   20    6  6.341e-06  4.737e-05  0.3209 y y y y y y n n Subspace collapsed.
   14   30    6  6.152e-06  5.061e-05  0.3209 y y y y y y n n 
   15   40    6  3.147e-06  2.034e-05  0.3209 y y y y y y n n 
   16   50    6  2.341e-06  1.525e-05  0.3209 y y y y y y n n 
   17   20    6  1.402e-06  9.214e-06  0.3209 y y y y y y n n Subspace collapsed.
   18   30    6  1.303e-06  9.571e-06  0.3209 y y y y y y n n 
   19   40    6  7.918e-07  5.664e-06  0.3209 y y y y y y n n 
   20   50    6  7.898e-07  6.968e-06  0.3209 y y y y y y n n 
   21   20    8  4.102e-07  3.574e-06  0.3209 y y y y y y y y Subspace collapsed.
   22   30    8  4.944e-07  4.637e-06  0.3209 y y y y y y y y 
   23   40    9  3.656e-07  3.480e-06  0.3209 y y y y y y y y 
   24   49    8  3.977e-07  3.805e-06  0.3209 y y y y y y y y 
   25   50    8  3.969e-07  3.799e-06  0.3209 y y y y y y y y 
   26   17    9  1.842e-07  1.751e-06  0.3209 y y y y y y y y Subspace collapsed.
   27   22    9  2.234e-07  2.139e-06  0.3209 y y y y y y y y 
   28   27    9  1.574e-07  1.507e-06  0.3209 y y y y y y y y 
   29   27    9  1.574e-07  1.507e-06  0.3209 y y y y y y y y 
   30   37    9  2.072e-07  1.976e-06  0.3209 y y y y y y y y 
   31   41    9  1.685e-07  1.587e-06  0.3209 y y y y y y y y 
   32   45   10  9.030e-08  8.360e-07  0.3209 y y y y y y y y Converged.
--------------------------------------------------------------------------------
  Davidson Summary: 
 ------------------------------------------------------------
  State  0: excitation energy =   0.3209 a.u.   (converged)
  State  1: excitation energy =   0.3274 a.u.   (converged)
  State  2: excitation energy =   0.3356 a.u.   (converged)
  State  3: excitation energy =   0.3576 a.u.   (converged)
  State  4: excitation energy =   0.3727 a.u.   (converged)
  State  5: excitation energy =   0.3862 a.u.   (converged)
  State  6: excitation energy =   0.4180 a.u.   (converged)
  State  7: excitation energy =   0.4438 a.u.   (converged)
  State  8: excitation energy =   0.4535 a.u.   (converged)
  State  9: excitation energy =   0.4569 a.u.   (converged)
 ------------------------------------------------------------

  Singlet states of irrep A ...  CPU 208.81 s  wall 66.72 s
  TDMs ...  CPU 2.49 s  wall 0.95 s
  SDMs ...  CPU 5.07 s  wall 1.59 s
  Starting TPA DIIS iterations ... 
------------------------------------ 
   It     Res. Norm  Remark
------------------------------------
                       Guess.
    1     4.395e+00  
    2     5.830e+00  
    3     1.086e+00  
    4     2.630e-01  
    5     6.539e-02  
    6     2.779e-02  
    7     8.476e-03  
    8     1.568e-03  
    9     5.909e-04  
   10     9.887e-05  
   11     3.174e-05  
   12     4.965e-06  
   13     1.679e-06  
   14     4.977e-07  Converged.
   ... Converged in 14 steps (norm: 4.97681e-07)
------------------------------------
  Starting TPA DIIS iterations ... 
------------------------------------ 
   It     Res. Norm  Remark
------------------------------------
                       Guess.
    1     4.185e+00  
    2     5.542e+00  
    3     1.037e+00  
    4     2.610e-01  
    5     6.512e-02  
    6     2.779e-02  
    7     8.332e-03  
    8     1.587e-03  
    9     5.996e-04  
   10     9.840e-05  
   11     3.205e-05  
   12     4.933e-06  
   13     1.707e-06  
   14     4.932e-07  Converged.
   ... Converged in 14 steps (norm: 4.93159e-07)
------------------------------------
  Starting TPA DIIS iterations ... 
------------------------------------ 
   It     Res. Norm  Remark
------------------------------------
                       Guess.
    1     6.862e-01  
    2     4.805e-01  
    3     1.688e-01  
    4     6.383e-02  
    5     1.896e-02  
    6     6.931e-03  
    7     1.180e-03  
    8     4.313e-04  
    9     1.505e-04  
   10     2.051e-05  
   11     8.551e-06  
   12     2.994e-06  
   13     1.663e-06  
   14     6.503e-07  Converged.
   ... Converged in 14 steps (norm: 6.50295e-07)
------------------------------------
  Starting TPA DIIS iterations ... 
------------------------------------ 
   It     Res. Norm  Remark
------------------------------------
                       Guess.
    1     4.550e+00  
    2     6.108e+00  
    3     1.131e+00  
    4     2.788e-01  
    5     6.987e-02  
    6     2.985e-02  
    7     9.097e-03  
    8     1.682e-03  
    9     6.364e-04  
   10     1.068e-04  
   11     3.447e-05  
   12     5.421e-06  
   13     1.840e-06  
   14     5.449e-07  Converged.
   ... Converged in 14 steps (norm: 5.44936e-07)
------------------------------------
  Starting TPA DIIS iterations ... 
------------------------------------ 
   It     Res. Norm  Remark
------------------------------------
                       Guess.
    1     4.333e+00  
    2     5.806e+00  
    3     1.079e+00  
    4     2.765e-01  
    5     6.958e-02  
    6     2.986e-02  
    7     8.943e-03  
    8     1.703e-03  
    9     6.460e-04  
   10     1.063e-04  
   11     3.480e-05  
   12     5.384e-06  
   13     1.872e-06  
   14     5.398e-07  Converged.
   ... Converged in 14 steps (norm: 5.39817e-07)
------------------------------------
  Starting TPA DIIS iterations ... 
------------------------------------ 
   It     Res. Norm  Remark
------------------------------------
                       Guess.
    1     6.929e-01  
    2     4.899e-01  
    3     1.741e-01  
    4     6.830e-02  
    5     1.978e-02  
    6     7.268e-03  
    7     1.258e-03  
    8     4.619e-04  
    9     1.609e-04  
   10     2.204e-05  
   11     9.169e-06  
   12     3.222e-06  
   13     1.837e-06  
   14     7.213e-07  Converged.
   ... Converged in 14 steps (norm: 7.21326e-07)
------------------------------------
  Starting TPA DIIS iterations ... 
------------------------------------ 
   It     Res. Norm  Remark
------------------------------------
                       Guess.
    1     4.760e+00  
    2     6.489e+00  
    3     1.190e+00  
    4     3.007e-01  
    5     7.608e-02  
    6     3.274e-02  
    7     9.960e-03  
    8     1.840e-03  
    9     7.000e-04  
   10     1.180e-04  
   11     3.832e-05  
   12     6.065e-06  
   13     2.070e-06  
   14     6.119e-07  Converged.
   ... Converged in 14 steps (norm: 6.11866e-07)
------------------------------------
  Starting TPA DIIS iterations ... 
------------------------------------ 
   It     Res. Norm  Remark
------------------------------------
                       Guess.
    1     4.532e+00  
    2     6.167e+00  
    3     1.136e+00  
    4     2.981e-01  
    5     7.577e-02  
    6     3.275e-02  
    7     9.792e-03  
    8     1.865e-03  
    9     7.108e-04  
   10     1.174e-04  
   11     3.867e-05  
   12     6.022e-06  
   13     2.107e-06  
   14     6.059e-07  Converged.
   ... Converged in 14 steps (norm: 6.0591e-07)
------------------------------------
  Starting TPA DIIS iterations ... 
------------------------------------ 
   It     Res. Norm  Remark
------------------------------------
                       Guess.
    1     7.015e-01  
    2     5.023e-01  
    3     1.811e-01  
    4     7.459e-02  
    5     2.086e-02  
    6     7.733e-03  
    7     1.367e-03  
    8     5.041e-04  
    9     1.751e-04  
   10     2.424e-05  
   11     1.003e-05  
   12     3.538e-06  
   13     2.087e-06  
   14     8.259e-07  Converged.
   ... Converged in 14 steps (norm: 8.25942e-07)
------------------------------------
  Starting TPA DIIS iterations ... 
------------------------------------ 
   It     Res. Norm  Remark
------------------------------------
                       Guess.
    1     5.411e+00  
    2     7.698e+00  
    3     1.374e+00  
    4     3.728e-01  
    5     9.653e-02  
    6     4.233e-02  
    7     1.281e-02  
    8     2.362e-03  
    9     9.116e-04  
   10     1.551e-04  
   11     5.141e-05  
   12     8.262e-06  
   13     2.871e-06  
   14     8.422e-07  Converged.
   ... Converged in 14 steps (norm: 8.4221e-07)
------------------------------------
  Starting TPA DIIS iterations ... 
------------------------------------ 
   It     Res. Norm  Remark
------------------------------------
                       Guess.
    1     5.149e+00  
    2     7.316e+00  
    3     1.311e+00  
    4     3.689e-01  
    5     9.617e-02  
    6     4.240e-02  
    7     1.260e-02  
    8     2.398e-03  
    9     9.266e-04  
   10     1.544e-04  
   11     5.181e-05  
   12     8.191e-06  
   13     2.925e-06  
   14     8.335e-07  Converged.
   ... Converged in 14 steps (norm: 8.33545e-07)
------------------------------------
  Starting TPA DIIS iterations ... 
------------------------------------ 
   It     Res. Norm  Remark
------------------------------------
                       Guess.
    1     7.258e-01  
    2     5.387e-01  
    3     2.024e-01  
    4     9.587e-02  
    5     2.418e-02  
    6     9.247e-03  
    7     1.731e-03  
    8     6.397e-04  
    9     2.206e-04  
   10     3.201e-05  
   11     1.286e-05  
   12     4.568e-06  
   13     2.958e-06  
   14     1.207e-06  
   15     3.231e-07  Converged.
   ... Converged in 15 steps (norm: 3.23065e-07)
------------------------------------
  Starting TPA DIIS iterations ... 
------------------------------------ 
   It     Res. Norm  Remark
------------------------------------
                       Guess.
    1     5.943e+00  
    2     8.722e+00  
    3     1.524e+00  
    4     4.364e-01  
    5     1.145e-01  
    6     5.089e-02  
    7     1.532e-02  
    8     2.820e-03  
    9     1.100e-03  
   10     1.883e-04  
   11     6.330e-05  
   12     1.026e-05  
   13     3.617e-06  
   14     1.057e-06  
   15     3.467e-07  Converged.
   ... Converged in 15 steps (norm: 3.46713e-07)
------------------------------------
  Starting TPA DIIS iterations ... 
------------------------------------ 
   It     Res. Norm  Remark
------------------------------------
                       Guess.
    1     5.654e+00  
    2     8.288e+00  
    3     1.453e+00  
    4     4.312e-01  
    5     1.141e-01  
    6     5.102e-02  
    7     1.507e-02  
    8     2.867e-03  
    9     1.119e-03  
   10     1.875e-04  
   11     6.372e-05  
   12     1.016e-05  
   13     3.687e-06  
   14     1.046e-06  
   15     3.457e-07  Converged.
   ... Converged in 15 steps (norm: 3.45734e-07)
------------------------------------
  Starting TPA DIIS iterations ... 
------------------------------------ 
   It     Res. Norm  Remark
------------------------------------
                       Guess.
    1     7.433e-01  
    2     5.666e-01  
    3     2.193e-01  
    4     1.151e-01  
    5     2.691e-02  
    6     1.056e-02  
    7     2.057e-03  
    8     7.525e-04  
    9     2.591e-04  
   10     3.936e-05  
   11     1.535e-05  
   12     5.466e-06  
   13     3.764e-06  
   14     1.567e-06  
   15     4.054e-07  Converged.
   ... Converged in 15 steps (norm: 4.05362e-07)
------------------------------------
  Starting TPA DIIS iterations ... 
------------------------------------ 
   It     Res. Norm  Remark
------------------------------------
                       Guess.
    1     6.496e+00  
    2     9.814e+00  
    3     1.679e+00  
    4     5.062e-01  
    5     1.343e-01  
    6     6.038e-02  
    7     1.808e-02  
    8     3.322e-03  
    9     1.309e-03  
   10     2.250e-04  
   11     7.660e-05  
   12     1.251e-05  
   13     4.465e-06  
   14     1.306e-06  
   15     4.332e-07  Converged.
   ... Converged in 15 steps (norm: 4.33216e-07)
------------------------------------
  Starting TPA DIIS iterations ... 
------------------------------------ 
   It     Res. Norm  Remark
------------------------------------
                       Guess.
    1     6.179e+00  
    2     9.325e+00  
    3     1.600e+00  
    4     4.995e-01  
    5     1.338e-01  
    6     6.058e-02  
    7     1.779e-02  
    8     3.382e-03  
    9     1.332e-03  
   10     2.241e-04  
   11     7.703e-05  
   12     1.238e-05  
   13     4.552e-06  
   14     1.293e-06  
   15     4.314e-07  Converged.
   ... Converged in 15 steps (norm: 4.31368e-07)
------------------------------------
  Starting TPA DIIS iterations ... 
------------------------------------ 
   It     Res. Norm  Remark
------------------------------------
                       Guess.
    1     7.598e-01  
    2     5.940e-01  
    3     2.363e-01  
    4     1.365e-01  
    5     2.980e-02  
    6     1.200e-02  
    7     2.420e-03  
    8     8.677e-04  
    9     2.996e-04  
   10     4.779e-05  
   11     1.805e-05  
   12     6.442e-06  
   13     4.665e-06  
   14     1.970e-06  
   15     5.092e-07  Converged.
   ... Converged in 15 steps (norm: 5.09171e-07)
------------------------------------
  Starting TPA DIIS iterations ... 
------------------------------------ 
   It     Res. Norm  Remark
------------------------------------
                       Guess.
    1     8.193e+00  
    2     1.334e+01  
    3     2.146e+00  
    4     7.416e-01  
    5     2.009e-01  
    6     9.306e-02  
    7     2.742e-02  
    8     5.014e-03  
    9     2.025e-03  
   10     3.511e-04  
   11     1.219e-04  
   12     2.029e-05  
   13     7.391e-06  
   14     2.251e-06  
   15     7.464e-07  Converged.
   ... Converged in 15 steps (norm: 7.46435e-07)
------------------------------------
  Starting TPA DIIS iterations ... 
------------------------------------ 
   It     Res. Norm  Remark
------------------------------------
                       Guess.
    1     7.790e+00  
    2     1.267e+01  
    3     2.044e+00  
    4     7.292e-01  
    5     2.003e-01  
    6     9.354e-02  
    7     2.699e-02  
    8     5.119e-03  
    9     2.063e-03  
   10     3.497e-04  
   11     1.223e-04  
   12     2.003e-05  
   13     7.528e-06  
   14     2.229e-06  
   15     7.400e-07  Converged.
   ... Converged in 15 steps (norm: 7.40038e-07)
------------------------------------
  Starting TPA DIIS iterations ... 
------------------------------------ 
   It     Res. Norm  Remark
------------------------------------
                       Guess.
    1     8.021e-01  
    2     6.702e-01  
    3     2.857e-01  
    4     2.088e-01  
    5     3.917e-02  
    6     1.674e-02  
    7     3.681e-03  
    8     1.190e-03  
    9     4.253e-04  
   10     7.702e-05  
   11     2.682e-05  
   12     9.629e-06  
   13     7.568e-06  
   14     3.283e-06  
   15     9.359e-07  Converged.
   ... Converged in 15 steps (norm: 9.35893e-07)
------------------------------------
  Starting TPA DIIS iterations ... 
------------------------------------ 
   It     Res. Norm  Remark
------------------------------------
                       Guess.
    1     1.015e+01  
    2     1.769e+01  
    3     2.672e+00  
    4     1.044e+00  
    5     2.873e-01  
    6     1.365e-01  
    7     3.954e-02  
    8     7.199e-03  
    9     2.972e-03  
   10     5.168e-04  
   11     1.787e-04  
   12     3.079e-05  
   13     1.110e-05  
   14     3.682e-06  
   15     1.248e-06  
   16     4.030e-07  Converged.
   ... Converged in 16 steps (norm: 4.03024e-07)
------------------------------------
  Starting TPA DIIS iterations ... 
------------------------------------ 
   It     Res. Norm  Remark
------------------------------------
                       Guess.
    1     9.649e+00  
    2     1.680e+01  
    3     2.544e+00  
    4     1.023e+00  
    5     2.865e-01  
    6     1.374e-01  
    7     3.895e-02  
    8     7.368e-03  
    9     3.028e-03  
   10     5.145e-04  
   11     1.791e-04  
   12     3.036e-05  
   13     1.130e-05  
   14     3.632e-06  
   15     1.237e-06  
   16     4.036e-07  Converged.
   ... Converged in 16 steps (norm: 4.03573e-07)
------------------------------------
  Starting TPA DIIS iterations ... 
------------------------------------ 
   It     Res. Norm  Remark
------------------------------------
                       Guess.
    1     8.404e-01  
    2     7.479e-01  
    3     3.385e-01  
    4     2.959e-01  
    5     5.078e-02  
    6     2.251e-02  
    7     5.337e-03  
    8     1.495e-03  
    9     5.693e-04  
   10     1.131e-04  
   11     3.725e-05  
   12     1.364e-05  
   13     1.059e-05  
   14     4.840e-06  
   15     1.415e-06  
   16     6.516e-07  Converged.
   ... Converged in 16 steps (norm: 6.51594e-07)
------------------------------------
  Starting TPA DIIS iterations ... 
------------------------------------ 
   It     Res. Norm  Remark
------------------------------------
                       Guess.
    1     1.109e+01  
    2     1.988e+01  
    3     2.920e+00  
    4     1.199e+00  
    5     3.319e-01  
    6     1.593e-01  
    7     4.581e-02  
    8     8.326e-03  
    9     3.466e-03  
   10     6.029e-04  
   11     2.070e-04  
   12     3.647e-05  
   13     1.304e-05  
   14     4.488e-06  
   15     1.592e-06  
   16     5.286e-07  Converged.
   ... Converged in 16 steps (norm: 5.28561e-07)
------------------------------------
  Starting TPA DIIS iterations ... 
------------------------------------ 
   It     Res. Norm  Remark
------------------------------------
                       Guess.
    1     1.054e+01  
    2     1.888e+01  
    3     2.780e+00  
    4     1.173e+00  
    5     3.310e-01  
    6     1.604e-01  
    7     4.513e-02  
    8     8.528e-03  
    9     3.533e-03  
   10     6.000e-04  
   11     2.075e-04  
   12     3.593e-05  
   13     1.327e-05  
   14     4.418e-06  
   15     1.579e-06  
   16     5.264e-07  Converged.
   ... Converged in 16 steps (norm: 5.26359e-07)
------------------------------------
  Starting TPA DIIS iterations ... 
------------------------------------ 
   It     Res. Norm  Remark
------------------------------------
                       Guess.
    1     8.561e-01  
    2     7.824e-01  
    3     3.627e-01  
    4     3.361e-01  
    5     5.660e-02  
    6     2.527e-02  
    7     6.185e-03  
    8     1.625e-03  
    9     6.376e-04  
   10     1.304e-04  
   11     4.225e-05  
   12     1.581e-05  
   13     1.197e-05  
   14     5.611e-06  
   15     1.599e-06  
   16     7.699e-07  Converged.
   ... Converged in 16 steps (norm: 7.69931e-07)
------------------------------------
  Starting TPA DIIS iterations ... 
------------------------------------ 
   It     Res. Norm  Remark
------------------------------------
                       Guess.
    1     1.145e+01  
    2     2.072e+01  
    3     3.013e+00  
    4     1.259e+00  
    5     3.493e-01  
    6     1.682e-01  
    7     4.825e-02  
    8     8.763e-03  
    9     3.659e-03  
   10     6.363e-04  
   11     2.179e-04  
   12     3.874e-05  
   13     1.382e-05  
   14     4.812e-06  
   15     1.744e-06  
   16     5.818e-07  Converged.
   ... Converged in 16 steps (norm: 5.81837e-07)
------------------------------------
  Starting TPA DIIS iterations ... 
------------------------------------ 
   It     Res. Norm  Remark
------------------------------------
                       Guess.
    1     1.088e+01  
    2     1.969e+01  
    3     2.868e+00  
    4     1.231e+00  
    5     3.483e-01  
    6     1.694e-01  
    7     4.753e-02  
    8     8.979e-03  
    9     3.729e-03  
   10     6.333e-04  
   11     2.185e-04  
   12     3.815e-05  
   13     1.406e-05  
   14     4.733e-06  
   15     1.730e-06  
   16     5.777e-07  Converged.
   ... Converged in 16 steps (norm: 5.77728e-07)
------------------------------------
  Starting TPA DIIS iterations ... 
------------------------------------ 
   It     Res. Norm  Remark
------------------------------------
                       Guess.
    1     8.616e-01  
    2     7.950e-01  
    3     3.716e-01  
    4     3.507e-01  
    5     5.883e-02  
    6     2.630e-02  
    7     6.512e-03  
    8     1.672e-03  
    9     6.633e-04  
   10     1.368e-04  
   11     4.412e-05  
   12     1.670e-05  
   13     1.252e-05  
   14     5.910e-06  
   15     1.661e-06  
   16     8.110e-07  Converged.
   ... Converged in 16 steps (norm: 8.11035e-07)
------------------------------------
  Two-photon absorbption ...  CPU 169.71 s  wall 46.53 s
  Transition density matrix of state singlet_A_1 printed to ASCII file 'State_singlet_A_1_Transition.txt'
  Transition density matrix of state singlet_A_2 printed to ASCII file 'State_singlet_A_2_Transition.txt'
  Transition density matrix of state singlet_A_3 printed to ASCII file 'State_singlet_A_3_Transition.txt'
  Transition density matrix of state singlet_A_4 printed to ASCII file 'State_singlet_A_4_Transition.txt'
  Transition density matrix of state singlet_A_5 printed to ASCII file 'State_singlet_A_5_Transition.txt'
  Transition density matrix of state singlet_A_6 printed to ASCII file 'State_singlet_A_6_Transition.txt'
  Transition density matrix of state singlet_A_7 printed to ASCII file 'State_singlet_A_7_Transition.txt'
  Transition density matrix of state singlet_A_8 printed to ASCII file 'State_singlet_A_8_Transition.txt'
  Transition density matrix of state singlet_A_9 printed to ASCII file 'State_singlet_A_9_Transition.txt'
  Transition density matrix of state singlet_A_10 printed to ASCII file 'State_singlet_A_10_Transition.txt'
  Transition properties ...  CPU 0.43 s  wall 0.61 s
  Difference density matrix of state singlet_A_1 printed to ASCII file 'State_singlet_A_1_Difference.txt'
  Total density matrix of state singlet_A_1 printed to ASCII file 'State_singlet_A_1_Total.txt'
  Difference density matrix of state singlet_A_2 printed to ASCII file 'State_singlet_A_2_Difference.txt'
  Total density matrix of state singlet_A_2 printed to ASCII file 'State_singlet_A_2_Total.txt'
  Difference density matrix of state singlet_A_3 printed to ASCII file 'State_singlet_A_3_Difference.txt'
  Total density matrix of state singlet_A_3 printed to ASCII file 'State_singlet_A_3_Total.txt'
  Difference density matrix of state singlet_A_4 printed to ASCII file 'State_singlet_A_4_Difference.txt'
  Total density matrix of state singlet_A_4 printed to ASCII file 'State_singlet_A_4_Total.txt'
  Difference density matrix of state singlet_A_5 printed to ASCII file 'State_singlet_A_5_Difference.txt'
  Total density matrix of state singlet_A_5 printed to ASCII file 'State_singlet_A_5_Total.txt'
  Difference density matrix of state singlet_A_6 printed to ASCII file 'State_singlet_A_6_Difference.txt'
  Total density matrix of state singlet_A_6 printed to ASCII file 'State_singlet_A_6_Total.txt'
  Difference density matrix of state singlet_A_7 printed to ASCII file 'State_singlet_A_7_Difference.txt'
  Total density matrix of state singlet_A_7 printed to ASCII file 'State_singlet_A_7_Total.txt'
  Difference density matrix of state singlet_A_8 printed to ASCII file 'State_singlet_A_8_Difference.txt'
  Total density matrix of state singlet_A_8 printed to ASCII file 'State_singlet_A_8_Total.txt'
  Difference density matrix of state singlet_A_9 printed to ASCII file 'State_singlet_A_9_Difference.txt'
  Total density matrix of state singlet_A_9 printed to ASCII file 'State_singlet_A_9_Total.txt'
  Difference density matrix of state singlet_A_10 printed to ASCII file 'State_singlet_A_10_Difference.txt'
  Total density matrix of state singlet_A_10 printed to ASCII file 'State_singlet_A_10_Total.txt'
  Properties ...  CPU 0.64 s  wall 1.02 s
  ISR TDMS ...  CPU 31.04 s  wall 9.89 s
  ISR transition properties ...  CPU 0.50 s  wall 0.24 s
  Sum-over-states TPA ...  CPU 0.00 s  wall 0.00 s

--------------------------------------------------------------------------------
                   State-averaged natural transition orbitals
--------------------------------------------------------------------------------
--------------------------------------------------------------------------------
  SA-NTO decomposition ...  CPU 0.01 s  wall 0.03 s

--------------------------------------------------------------------------------
                             Excited State Summary
--------------------------------------------------------------------------------
--------------------------------------------------------------------------------

  Excited state 1 (singlet, A)                                     [converged]
  ----------------------------------------------------------------------------
  Term symbol:  2 (1) A                                     R^2 =  7.94552e-14

  Total energy:                                            -77.9976391009 a.u.
  Excitation energy:                                               8.732221 eV

  Osc. strength:                                                      0.445467
  Trans. dip. moment [a.u.]:           [   1.046287,   -0.993699,   -0.009702]
  <i|r^2|0> [a.u.]:                    [   6.209059,   -0.209676,   -0.005074]
  Two-photon absorption cross-section (SoS) [a.u.]:                   0.212789
  Two-photon absorption matrix (SoS) [a.u.]:
                                       |   -0.100077   -0.019301   -0.004240 |
                                       |   -0.019301   -0.102031   -0.004844 |
                                       |   -0.004240   -0.004844   -0.043168 |
  Two-photon absorption cross-section [a.u.]:                         0.080314
  Two-photon absorption matrix [a.u.]:
                                       |    0.070818    0.021400    0.006134 |
                                       |    0.021400    0.072874    0.007097 |
                                       |    0.006134    0.007097   -0.013466 |

  Dip. moment [a.u.]:                  [   0.007329,   -0.006954,   -0.000036]
  Total dipole [Debye]:                                               0.025680
  <r^2> [a.u.]:                        [ 177.425043,   36.011090,   11.923329]
  Total <r^2> [a.u.]:                                               225.359462

  V1^2 = 0.9713, V2^2 = 0.0287

  Important amplitudes:
      occ i     occ j     vir a      vir b          v   
    -----------------------------------------------------
     8 (A) A              9 (A) A                -0.6808
     6 (A) A             14 (A) A                -0.0615
     4 (A) A             10 (A) A                -0.0615
     7 (A) A             16 (A) A                 0.0573
     5 (A) A             13 (A) A                -0.0529
     6 (A) A             23 (A) A                -0.0485
     8 (A) A             20 (A) A                -0.0349
     6 (A) A             19 (A) A                 0.0296
     3 (A) A             12 (A) A                 0.0285
     5 (A) A             22 (A) A                -0.0217
     7 (A) A             11 (A) A                -0.0189
     4 (A) A             24 (A) A                -0.0188
     3 (A) A             26 (A) A                -0.0187
     8 (A) A   8 (A) B   17 (A) A   20 (A) B      0.0184
     8 (A) A   8 (A) B    9 (A) A   28 (A) B     -0.0168
     6 (A) A             26 (A) A                -0.0164
     7 (A) A             21 (A) A                -0.0155
     3 (A) A             14 (A) A                -0.0143
     6 (A) A             12 (A) A                -0.0140
     3 (A) A   4 (A) B    9 (A) A    9 (A) B      0.0129
     3 (A) A             19 (A) A                 0.0119
     8 (A) A   8 (A) B   18 (A) A   19 (A) B     -0.0109
     6 (A) A             15 (A) A                -0.0097
     3 (A) A             23 (A) A                -0.0083
     7 (A) A             36 (A) A                 0.0083
     7 (A) A             32 (A) A                -0.0079
     8 (A) A   8 (A) B   25 (A) A   29 (A) B     -0.0075
     6 (A) A             10 (A) A                -0.0075
     6 (A) A             40 (A) A                 0.0067
     3 (A) A   6 (A) B    9 (A) A   28 (A) B     -0.0064
     5 (A) A   8 (A) B   11 (A) A    9 (A) B     -0.0061
     7 (A) A   8 (A) B   13 (A) A   20 (A) B      0.0060
     5 (A) A             27 (A) A                 0.0060
     5 (A) A   8 (A) B   11 (A) A   20 (A) B      0.0060
     7 (A) A             31 (A) A                -0.0059
     5 (A) A   7 (A) B    9 (A) A    9 (A) B      0.0059
     6 (A) A   8 (A) A   19 (A) A   28 (A) A     -0.0059
     5 (A) A   8 (A) B   16 (A) A    9 (A) B     -0.0059
     3 (A) A   5 (A) B    9 (A) A   25 (A) B      0.0058
     7 (A) A   8 (A) B   22 (A) A   20 (A) B      0.0057
    -----------------------------------------------------

  Density matrix analysis:
  ------------------------
  NOs
    Occupation of frontier NOs:
       0.9487   1.0223
    Number of electrons: 16.000000
    Number of unpaired electrons: n_u =  2.31712, n_u,nl =  2.03346
    NO participation ratio (PR_NO):  2.877083
  
  
  Mulliken Population Analysis
  Atom      Charge (e)              h+              e-           Del q
  --------------------------------------------------------------------
   1 H        0.061935        0.020804       -0.012098        0.008706
   2 C       -0.151281        0.488950       -0.509053       -0.020104
   3 H        0.061949        0.020806       -0.012098        0.008708
   4 C       -0.100801        0.492292       -0.504096       -0.011804
   5 H        0.064103        0.020099       -0.012851        0.007248
   6 H        0.064096        0.020098       -0.012852        0.007246
  --------------------------------------------------------------------
  Sum:        0.000000        1.063048       -1.063048        0.000000
  
  Multipole moment analysis of the density matrix
    Molecular charge:                      0.000000
    Number of electrons:                   16.000000
      Center of electronic charge [Ang]: [ -1.565771,  -0.061077,   0.002167]
    Total nuclear charge:                  16.000000
      Center of nuclear charge [Ang]:    [ -1.565529,  -0.061307,   0.002166]
    Dipole moment [D]:                     0.025680
      Cartesian components [D]:          [  0.018628,  -0.017675,  -0.000091]
    RMS size of the density [Ang]:         1.220171
      Cartesian components [Ang]:        [  0.808464,   0.791535,   0.456809]
  
  Exciton analysis of the difference density matrix
    <r_h> [Ang]:                  [ -1.572504,  -0.054681,   0.002219]
    <r_e> [Ang]:                  [ -1.571071,  -0.056041,   0.002201]
    |<r_e - r_h>| [Ang]:            0.001976
    Hole size [Ang]:                1.287456
      Cartesian components [Ang]: [  0.730374,   0.714974,   0.782885]
    Electron size [Ang]:            1.463885
      Cartesian components [Ang]: [  0.854417,   0.831799,   0.849142]

  Transition density matrix analysis:
  -----------------------------------
  
  CT numbers (Mulliken)
    omega =     0.9531
    <Phe> =    -0.1599
  
  Exciton analysis of the transition density matrix
    Trans. dipole moment [D]:             1.833869
      Cartesian components [D]:         [  1.329697,  -1.262866,  -0.012330]
    <r_h> [Ang]:                        [ -1.576471,  -0.050913,   0.002257]
    <r_e> [Ang]:                        [ -1.570610,  -0.056479,   0.002195]
    |<r_e - r_h>| [Ang]:                  0.008084
    Hole size [Ang]:                      1.214347
      Cartesian components [Ang]:       [  0.649951,   0.637091,   0.803939]
    Electron size [Ang]:                  1.486736
      Cartesian components [Ang]:       [  0.864856,   0.840644,   0.869326]
    RMS electron-hole separation [Ang]:   1.936960
      Cartesian components [Ang]:       [  1.106691,   1.076212,   1.169965]
    Covariance(r_h, r_e) [Ang^2]:        -0.033362
    Correlation coefficient:             -0.018479
    Center-of-mass size [Ang]:            0.951091
      Cartesian components [Ang]:       [  0.528227,   0.516462,   0.599014]

  Decomposition into state-averaged NTOs
    H- 0 -> L+ 0:  0.6696 ( 89.7%)
    H- 2 -> L+ 5: -0.0831 (  1.4%)
                   omega =  95.3%
  ----------------------------------------------------------------------------


  Excited state 2 (singlet, A)                                     [converged]
  ----------------------------------------------------------------------------
  Term symbol:  3 (1) A                                     R^2 =  5.12331e-13

  Total energy:                                            -77.9911494316 a.u.
  Excitation energy:                                               8.908813 eV

  Osc. strength:                                                      0.000002
  Trans. dip. moment [a.u.]:           [  -0.002063,    0.001979,   -0.000008]
  <i|r^2|0> [a.u.]:                    [   0.053392,    0.086853,   -0.152022]
  Two-photon absorption cross-section (SoS) [a.u.]:                   4.156166
  Two-photon absorption matrix (SoS) [a.u.]:
                                       |    0.047914    0.054781   -0.490778 |
                                       |    0.054781    0.062778   -0.516219 |
                                       |   -0.490778   -0.516219   -0.110057 |
  Two-photon absorption cross-section [a.u.]:                         0.240238
  Two-photon absorption matrix [a.u.]:
                                       |   -0.010700   -0.013263    0.118051 |
                                       |   -0.013263   -0.015845    0.124030 |
                                       |    0.118051    0.124030    0.026516 |

  Dip. moment [a.u.]:                  [   0.198625,   -0.188612,   -0.001802]
  Total dipole [Debye]:                                               0.696223
  <r^2> [a.u.]:                        [ 176.854508,   34.277319,   13.230567]
  Total <r^2> [a.u.]:                                               224.362394

  V1^2 = 0.9540, V2^2 = 0.0460

  Important amplitudes:
      occ i     occ j     vir a      vir b          v   
    -----------------------------------------------------
     7 (A) A              9 (A) A                -0.6701
     8 (A) A             11 (A) A                -0.1438
     7 (A) A             20 (A) A                -0.0757
     5 (A) A   8 (A) B    9 (A) A    9 (A) B      0.0310
     8 (A) A             16 (A) A                -0.0272
     8 (A) A             21 (A) A                -0.0169
     5 (A) A             28 (A) A                -0.0148
     4 (A) A   7 (A) B    9 (A) A   19 (A) B     -0.0137
     5 (A) A   7 (A) B    9 (A) A   16 (A) B      0.0131
     7 (A) A   8 (A) B   20 (A) A   17 (A) B      0.0106
     7 (A) A   8 (A) A    9 (A) A   28 (A) A      0.0099
     5 (A) A   8 (A) B    9 (A) A   20 (A) B      0.0093
     8 (A) A             13 (A) A                -0.0092
     4 (A) A   6 (A) B    9 (A) A   16 (A) B     -0.0090
     5 (A) A   6 (A) A    9 (A) A   23 (A) A     -0.0089
     5 (A) A   6 (A) A    9 (A) A   14 (A) A     -0.0087
     8 (A) A   7 (A) B    9 (A) A   28 (A) B     -0.0086
     6 (A) A   7 (A) B    9 (A) A   18 (A) B      0.0085
     4 (A) A   5 (A) A    9 (A) A   10 (A) A      0.0084
     5 (A) A   6 (A) B    9 (A) A   19 (A) B      0.0083
     3 (A) A   7 (A) B    9 (A) A   18 (A) B     -0.0080
     5 (A) A   6 (A) B    9 (A) A   23 (A) B     -0.0079
     5 (A) A   7 (A) A    9 (A) A   16 (A) A      0.0077
     4 (A) A   7 (A) B   19 (A) A    9 (A) B     -0.0075
     4 (A) A   8 (A) B    9 (A) A   25 (A) B      0.0075
     7 (A) A   8 (A) B   17 (A) A   20 (A) B      0.0074
     5 (A) A   5 (A) B    9 (A) A   13 (A) B     -0.0072
     7 (A) A   8 (A) B   19 (A) A   18 (A) B     -0.0070
     4 (A) A   5 (A) B    9 (A) A   18 (A) B     -0.0068
     5 (A) A   8 (A) A    9 (A) A   20 (A) A      0.0067
     7 (A) A   7 (A) B   20 (A) A   22 (A) B      0.0065
     7 (A) A   8 (A) B   17 (A) A    9 (A) B      0.0065
     7 (A) A   8 (A) B    9 (A) A    9 (A) B      0.0065
     5 (A) A   7 (A) B   11 (A) A   20 (A) B      0.0061
     4 (A) A   7 (A) A    9 (A) A   19 (A) A     -0.0061
     5 (A) A   6 (A) B    9 (A) A   14 (A) B     -0.0061
     4 (A) A   5 (A) B   10 (A) A    9 (A) B     -0.0060
     5 (A) A             38 (A) A                 0.0059
     4 (A) A   8 (A) A    9 (A) A   25 (A) A      0.0056
     6 (A) A   7 (A) A   19 (A) A   28 (A) A     -0.0055
    -----------------------------------------------------

  Density matrix analysis:
  ------------------------
  NOs
    Occupation of frontier NOs:
       0.9603   1.0502
    Number of electrons: 16.000000
    Number of unpaired electrons: n_u =  2.35797, n_u,nl =  2.06153
    NO participation ratio (PR_NO):  3.017160
  
  
  Mulliken Population Analysis
  Atom      Charge (e)              h+              e-           Del q
  --------------------------------------------------------------------
   1 H        0.176915        0.146754       -0.023068        0.123686
   2 C       -0.328907        0.310336       -0.508066       -0.197730
   3 H        0.176898        0.146742       -0.023084        0.123657
   4 C       -0.295040        0.241356       -0.447399       -0.206043
   5 H        0.135063        0.104650       -0.026442        0.078208
   6 H        0.135071        0.104672       -0.026451        0.078221
  --------------------------------------------------------------------
  Sum:        0.000000        1.054509       -1.054509        0.000000
  
  Multipole moment analysis of the density matrix
    Molecular charge:                      0.000000
    Number of electrons:                   16.000000
      Center of electronic charge [Ang]: [ -1.572098,  -0.055069,   0.002225]
    Total nuclear charge:                  16.000000
      Center of nuclear charge [Ang]:    [ -1.565529,  -0.061307,   0.002166]
    Dipole moment [D]:                     0.696223
      Cartesian components [D]:          [  0.504853,  -0.479405,  -0.004580]
    RMS size of the density [Ang]:         1.205077
      Cartesian components [Ang]:        [  0.789795,   0.772581,   0.481200]
  
  Exciton analysis of the difference density matrix
    <r_h> [Ang]:                  [ -1.454663,  -0.166621,   0.001132]
    <r_e> [Ang]:                  [ -1.549215,  -0.076832,   0.002000]
    |<r_e - r_h>| [Ang]:            0.130395
    Hole size [Ang]:                1.490276
      Cartesian components [Ang]: [  1.009449,   0.997236,   0.455471]
    Electron size [Ang]:            1.476123
      Cartesian components [Ang]: [  0.881527,   0.859214,   0.814618]

  Transition density matrix analysis:
  -----------------------------------
  
  CT numbers (Mulliken)
    omega =     0.9213
    <Phe> =    -0.0118
  
  Exciton analysis of the transition density matrix
    Trans. dipole moment [D]:             0.003633
      Cartesian components [D]:         [ -0.002622,   0.002515,  -0.000010]
    <r_h> [Ang]:                        [ -1.434167,  -0.186090,   0.000944]
    <r_e> [Ang]:                        [ -1.563715,  -0.063063,   0.002131]
    |<r_e - r_h>| [Ang]:                  0.178661
    Hole size [Ang]:                      1.519093
      Cartesian components [Ang]:       [  1.032860,   1.020794,   0.445896]
    Electron size [Ang]:                  1.470469
      Cartesian components [Ang]:       [  0.868809,   0.845543,   0.832170]
    RMS electron-hole separation [Ang]:   2.102515
      Cartesian components [Ang]:       [  1.340456,   1.316755,   0.943347]
    Covariance(r_h, r_e) [Ang^2]:         0.040636
    Correlation coefficient:              0.018191
    Center-of-mass size [Ang]:            1.066676
      Cartesian components [Ang]:       [  0.682499,   0.669929,   0.472429]

  Decomposition into state-averaged NTOs
    H- 1 -> L+ 0: -0.6623 ( 87.7%)
    H- 0 -> L+ 2: -0.1440 (  4.1%)
                   omega =  92.1%
  ----------------------------------------------------------------------------


  Excited state 3 (singlet, A)                                     [converged]
  ----------------------------------------------------------------------------
  Term symbol:  4 (1) A                                     R^2 =  9.54742e-14

  Total energy:                                            -77.9829473838 a.u.
  Excitation energy:                                               9.132003 eV

  Osc. strength:                                                      0.023190
  Trans. dip. moment [a.u.]:           [  -0.015270,   -0.019512,    0.320992]
  <i|r^2|0> [a.u.]:                    [  -0.089653,   -0.005436,   -0.002385]
  Two-photon absorption cross-section (SoS) [a.u.]:                   0.094745
  Two-photon absorption matrix (SoS) [a.u.]:
                                       |    0.003137    0.000906   -0.078853 |
                                       |    0.000906   -0.004743    0.074883 |
                                       |   -0.078853    0.074883    0.001243 |
  Two-photon absorption cross-section [a.u.]:                         0.231627
  Two-photon absorption matrix [a.u.]:
                                       |    0.008512    0.001605   -0.123191 |
                                       |    0.001605   -0.011072    0.116939 |
                                       |   -0.123191    0.116939    0.002158 |

  Dip. moment [a.u.]:                  [  -0.019009,    0.018239,    0.000155]
  Total dipole [Debye]:                                               0.066960
  <r^2> [a.u.]:                        [ 182.034137,   40.992185,   11.055588]
  Total <r^2> [a.u.]:                                               234.081910

  V1^2 = 0.9579, V2^2 = 0.0421

  Important amplitudes:
      occ i     occ j     vir a      vir b          v   
    -----------------------------------------------------
     8 (A) A             10 (A) A                -0.6880
     8 (A) A             24 (A) A                -0.0506
     8 (A) A             18 (A) A                 0.0333
     8 (A) A             12 (A) A                -0.0283
     4 (A) A              9 (A) A                -0.0248
     8 (A) A   8 (A) B    9 (A) A   12 (A) B      0.0223
     8 (A) A   8 (A) B   10 (A) A   17 (A) B     -0.0171
     5 (A) A   8 (A) B   11 (A) A   10 (A) B     -0.0168
     7 (A) A   8 (A) B   13 (A) A   10 (A) B     -0.0144
     8 (A) A             14 (A) A                -0.0133
     8 (A) A             15 (A) A                 0.0129
     6 (A) A   8 (A) A   10 (A) A   15 (A) A     -0.0113
     4 (A) A   8 (A) B   12 (A) A   10 (A) B      0.0112
     6 (A) A   8 (A) B   15 (A) A   10 (A) B      0.0109
     4 (A) A   8 (A) A   10 (A) A   12 (A) A     -0.0108
     7 (A) A   8 (A) B   22 (A) A   10 (A) B     -0.0108
     7 (A) A   8 (A) A   10 (A) A   13 (A) A      0.0099
     7 (A) A   8 (A) A   10 (A) A   22 (A) A      0.0098
     5 (A) A   8 (A) A   10 (A) A   11 (A) A      0.0096
     5 (A) A   8 (A) B   21 (A) A   10 (A) B     -0.0092
     6 (A) A   8 (A) B   10 (A) A   10 (A) B      0.0090
     6 (A) A              9 (A) A                -0.0086
     6 (A) A   8 (A) A   10 (A) A   18 (A) A      0.0084
     7 (A) A   8 (A) A   12 (A) A   16 (A) A     -0.0083
     3 (A) A   4 (A) B   10 (A) A    9 (A) B      0.0079
     5 (A) A   8 (A) A   10 (A) A   21 (A) A      0.0078
     4 (A) A   8 (A) B   19 (A) A   10 (A) B      0.0075
     8 (A) A   8 (A) B    9 (A) A   23 (A) B      0.0075
     8 (A) A   8 (A) B   10 (A) A   28 (A) B     -0.0074
     7 (A) A   8 (A) B   16 (A) A   12 (A) B      0.0072
     5 (A) A   8 (A) B   10 (A) A   11 (A) B     -0.0072
     3 (A) A   8 (A) A   10 (A) A   24 (A) A      0.0071
     3 (A) A   8 (A) B   10 (A) A   10 (A) B     -0.0071
     8 (A) A   8 (A) B    9 (A) A   19 (A) B      0.0070
     3 (A) A   8 (A) B   10 (A) A   18 (A) B      0.0067
     6 (A) A   8 (A) B   18 (A) A   10 (A) B     -0.0063
     3 (A) A   6 (A) B   10 (A) A   28 (A) B     -0.0062
     7 (A) A   8 (A) B   12 (A) A   11 (A) B      0.0059
     6 (A) A             28 (A) A                 0.0059
     5 (A) A   8 (A) A   10 (A) A   16 (A) A      0.0057
    -----------------------------------------------------

  Density matrix analysis:
  ------------------------
  NOs
    Occupation of frontier NOs:
       0.9813   0.9844
    Number of electrons: 16.000000
    Number of unpaired electrons: n_u =  2.28957, n_u,nl =  2.02524
    NO participation ratio (PR_NO):  2.703639
  
  
  Mulliken Population Analysis
  Atom      Charge (e)              h+              e-           Del q
  --------------------------------------------------------------------
   1 H       -0.153893        0.055322       -0.262444       -0.207122
   2 C        0.291700        0.534628       -0.111750        0.422878
   3 H       -0.153904        0.055323       -0.262467       -0.207145
   4 C        0.324455        0.541319       -0.127867        0.413451
   5 H       -0.154159        0.053251       -0.264265       -0.211014
   6 H       -0.154199        0.053248       -0.264297       -0.211049
  --------------------------------------------------------------------
  Sum:        0.000000        1.293090       -1.293090        0.000000
  
  Multipole moment analysis of the density matrix
    Molecular charge:                      0.000000
    Number of electrons:                   16.000000
      Center of electronic charge [Ang]: [ -1.564900,  -0.061910,   0.002160]
    Total nuclear charge:                  16.000000
      Center of nuclear charge [Ang]:    [ -1.565529,  -0.061307,   0.002166]
    Dipole moment [D]:                     0.066960
      Cartesian components [D]:          [ -0.048316,   0.046358,   0.000395]
    RMS size of the density [Ang]:         1.282225
      Cartesian components [Ang]:        [  0.858492,   0.844751,   0.439873]
  
  Exciton analysis of the difference density matrix
    <r_h> [Ang]:                  [ -1.568083,  -0.058881,   0.002182]
    <r_e> [Ang]:                  [ -1.556127,  -0.070309,   0.002089]
    |<r_e - r_h>| [Ang]:            0.016540
    Hole size [Ang]:                1.412940
      Cartesian components [Ang]: [  0.836657,   0.822762,   0.787062]
    Electron size [Ang]:            2.077660
      Cartesian components [Ang]: [  1.376005,   1.379433,   0.721420]

  Transition density matrix analysis:
  -----------------------------------
  
  CT numbers (Mulliken)
    omega =     0.9249
    <Phe> =    -0.0110
  
  Exciton analysis of the transition density matrix
    Trans. dipole moment [D]:             0.409154
      Cartesian components [D]:         [ -0.019406,  -0.024798,   0.407940]
    <r_h> [Ang]:                        [ -1.576988,  -0.050416,   0.002259]
    <r_e> [Ang]:                        [ -1.554981,  -0.071423,   0.002083]
    |<r_e - r_h>| [Ang]:                  0.030424
    Hole size [Ang]:                      1.212649
      Cartesian components [Ang]:       [  0.636267,   0.623729,   0.822583]
    Electron size [Ang]:                  2.299664
      Cartesian components [Ang]:       [  1.522140,   1.528236,   0.797522]
    RMS electron-hole separation [Ang]:   2.589837
      Cartesian components [Ang]:       [  1.642236,   1.643567,   1.144118]
    Covariance(r_h, r_e) [Ang^2]:         0.026322
    Correlation coefficient:              0.009439
    Center-of-mass size [Ang]:            1.304954
      Cartesian components [Ang]:       [  0.828709,   0.828887,   0.573665]

  Decomposition into state-averaged NTOs
    H- 0 -> L+ 1: -0.6779 ( 91.9%)
                   omega =  92.5%
  ----------------------------------------------------------------------------


  Excited state 4 (singlet, A)                                     [converged]
  ----------------------------------------------------------------------------
  Term symbol:  5 (1) A                                     R^2 =  7.01920e-14

  Total energy:                                            -77.9609017216 a.u.
  Excitation energy:                                               9.731896 eV

  Osc. strength:                                                      0.000000
  Trans. dip. moment [a.u.]:           [   0.000504,   -0.000481,    0.000028]
  <i|r^2|0> [a.u.]:                    [   0.017459,    0.019036,   -0.033668]
  Two-photon absorption cross-section (SoS) [a.u.]:                 132.637348
  Two-photon absorption matrix (SoS) [a.u.]:
                                       |    0.268431    0.309317   -2.773095 |
                                       |    0.309317    0.353575   -2.915769 |
                                       |   -2.773095   -2.915769   -0.622399 |
  Two-photon absorption cross-section [a.u.]:                        78.696763
  Two-photon absorption matrix [a.u.]:
                                       |    0.207461    0.238271   -2.135929 |
                                       |    0.238271    0.271760   -2.246056 |
                                       |   -2.135929   -2.246056   -0.479407 |

  Dip. moment [a.u.]:                  [  -0.003851,    0.003387,   -0.000015]
  Total dipole [Debye]:                                               0.013035
  <r^2> [a.u.]:                        [ 182.270427,   41.031901,   10.777187]
  Total <r^2> [a.u.]:                                               234.079514

  V1^2 = 0.9633, V2^2 = 0.0367

  Important amplitudes:
      occ i     occ j     vir a      vir b          v   
    -----------------------------------------------------
     8 (A) A             11 (A) A                -0.6699
     7 (A) A              9 (A) A                 0.1462
     8 (A) A             21 (A) A                -0.0779
     8 (A) A             16 (A) A                -0.0677
     8 (A) A             13 (A) A                -0.0237
     8 (A) A   8 (A) B    9 (A) A   13 (A) B     -0.0167
     5 (A) A   8 (A) B   11 (A) A   11 (A) B     -0.0156
     8 (A) A   8 (A) B   11 (A) A   17 (A) B     -0.0137
     7 (A) A             20 (A) A                 0.0132
     7 (A) A   8 (A) B   13 (A) A   11 (A) B     -0.0128
     4 (A) A   8 (A) B   12 (A) A   11 (A) B      0.0111
     8 (A) A   8 (A) B    9 (A) A   22 (A) B     -0.0110
     5 (A) A   8 (A) A   11 (A) A   21 (A) A      0.0109
     7 (A) A   8 (A) A   11 (A) A   22 (A) A      0.0094
     6 (A) A   8 (A) B   10 (A) A   11 (A) B      0.0091
     6 (A) A   8 (A) B   15 (A) A   11 (A) B      0.0090
     7 (A) A   8 (A) B   22 (A) A   11 (A) B     -0.0088
     3 (A) A   4 (A) B   11 (A) A    9 (A) B      0.0083
     6 (A) A   8 (A) A   11 (A) A   15 (A) A     -0.0080
     3 (A) A   8 (A) B   11 (A) A   18 (A) B      0.0080
     7 (A) A   8 (A) A   13 (A) A   16 (A) A      0.0079
     7 (A) A   8 (A) A   11 (A) A   13 (A) A      0.0076
     4 (A) A   8 (A) B   19 (A) A   11 (A) B      0.0070
     5 (A) A   8 (A) B   21 (A) A   11 (A) B     -0.0069
     5 (A) A   8 (A) B    9 (A) A    9 (A) B     -0.0064
     4 (A) A   8 (A) A   11 (A) A   12 (A) A     -0.0062
     3 (A) A   6 (A) B   11 (A) A   28 (A) B     -0.0060
     6 (A) A   8 (A) A   11 (A) A   18 (A) A      0.0058
     6 (A) A   8 (A) B   18 (A) A   11 (A) B     -0.0057
     7 (A) A   8 (A) B   16 (A) A   13 (A) B     -0.0057
     3 (A) A   8 (A) B   11 (A) A   30 (A) B      0.0056
     5 (A) A   8 (A) B   10 (A) A   10 (A) B     -0.0055
     7 (A) A   8 (A) B   12 (A) A   10 (A) B      0.0055
     6 (A) A   8 (A) B   11 (A) A   10 (A) B      0.0055
     8 (A) A   8 (A) B   20 (A) A   22 (A) B     -0.0055
     3 (A) A   5 (A) B   11 (A) A   25 (A) B      0.0054
     3 (A) A   8 (A) A   11 (A) A   18 (A) A      0.0054
     3 (A) A   8 (A) A   11 (A) A   24 (A) A      0.0052
     5 (A) A   8 (A) A   11 (A) A   16 (A) A      0.0049
     6 (A) A   8 (A) A   10 (A) A   16 (A) A     -0.0047
    -----------------------------------------------------

  Density matrix analysis:
  ------------------------
  NOs
    Occupation of frontier NOs:
       0.9431   1.0250
    Number of electrons: 16.000000
    Number of unpaired electrons: n_u =  2.32265, n_u,nl =  2.04809
    NO participation ratio (PR_NO):  2.908277
  
  
  Mulliken Population Analysis
  Atom      Charge (e)              h+              e-           Del q
  --------------------------------------------------------------------
   1 H       -0.120270        0.046463       -0.219963       -0.173499
   2 C        0.223245        0.499829       -0.145407        0.354422
   3 H       -0.120493        0.046451       -0.220184       -0.173733
   4 C        0.284157        0.495697       -0.122544        0.373154
   5 H       -0.133485        0.044527       -0.234867       -0.190340
   6 H       -0.133154        0.044538       -0.234542       -0.190004
  --------------------------------------------------------------------
  Sum:        0.000000        1.177507       -1.177507        0.000000
  
  Multipole moment analysis of the density matrix
    Molecular charge:                      0.000000
    Number of electrons:                   16.000000
      Center of electronic charge [Ang]: [ -1.565402,  -0.061419,   0.002166]
    Total nuclear charge:                  16.000000
      Center of nuclear charge [Ang]:    [ -1.565529,  -0.061307,   0.002166]
    Dipole moment [D]:                     0.013035
      Cartesian components [D]:          [ -0.009788,   0.008609,  -0.000037]
    RMS size of the density [Ang]:         1.281620
      Cartesian components [Ang]:        [  0.859985,   0.845198,   0.434299]
  
  Exciton analysis of the difference density matrix
    <r_h> [Ang]:                  [ -1.565056,  -0.061746,   0.002154]
    <r_e> [Ang]:                  [ -1.558738,  -0.067622,   0.002128]
    |<r_e - r_h>| [Ang]:            0.008628
    Hole size [Ang]:                1.393543
      Cartesian components [Ang]: [  0.818168,   0.804905,   0.790373]
    Electron size [Ang]:            2.114000
      Cartesian components [Ang]: [  1.419452,   1.415771,   0.670629]

  Transition density matrix analysis:
  -----------------------------------
  
  CT numbers (Mulliken)
    omega =     0.9292
    <Phe> =    -0.0143
  
  Exciton analysis of the transition density matrix
    Trans. dipole moment [D]:             0.000886
      Cartesian components [D]:         [  0.000641,  -0.000611,   0.000036]
    <r_h> [Ang]:                        [ -1.567784,  -0.059162,   0.002174]
    <r_e> [Ang]:                        [ -1.552939,  -0.073104,   0.002079]
    |<r_e - r_h>| [Ang]:                  0.020366
    Hole size [Ang]:                      1.227519
      Cartesian components [Ang]:       [  0.659593,   0.647126,   0.808064]
    Electron size [Ang]:                  2.250106
      Cartesian components [Ang]:       [  1.510689,   1.508088,   0.711666]
    RMS electron-hole separation [Ang]:   2.552263
      Cartesian components [Ang]:       [  1.639764,   1.633059,   1.076263]
    Covariance(r_h, r_e) [Ang^2]:         0.028075
    Correlation coefficient:              0.010165
    Center-of-mass size [Ang]:            1.287044
      Cartesian components [Ang]:       [  0.828535,   0.824548,   0.538640]

  Decomposition into state-averaged NTOs
    H- 0 -> L+ 2: -0.6657 ( 88.6%)
    H- 1 -> L+ 0:  0.1441 (  4.2%)
                   omega =  92.9%
  ----------------------------------------------------------------------------


  Excited state 5 (singlet, A)                                     [converged]
  ----------------------------------------------------------------------------
  Term symbol:  6 (1) A                                     R^2 =  1.12575e-13

  Total energy:                                            -77.9458446299 a.u.
  Excitation energy:                                              10.141620 eV

  Osc. strength:                                                      0.000115
  Trans. dip. moment [a.u.]:           [  -0.001106,   -0.001393,    0.021441]
  <i|r^2|0> [a.u.]:                    [  -0.087028,    0.095746,   -0.015823]
  Two-photon absorption cross-section (SoS) [a.u.]:                 219.420537
  Two-photon absorption matrix (SoS) [a.u.]:
                                       |   -0.364145   -0.055468    3.788978 |
                                       |   -0.055468    0.433066   -3.592435 |
                                       |    3.788978   -3.592435   -0.070390 |
  Two-photon absorption cross-section [a.u.]:                       113.787458
  Two-photon absorption matrix [a.u.]:
                                       |   -0.262813   -0.040340    2.728527 |
                                       |   -0.040340    0.311260   -2.587023 |
                                       |    2.728527   -2.587023   -0.050564 |

  Dip. moment [a.u.]:                  [  -0.128709,    0.122334,    0.001210]
  Total dipole [Debye]:                                               0.451353
  <r^2> [a.u.]:                        [ 180.439775,   39.829794,   11.582664]
  Total <r^2> [a.u.]:                                               231.852234

  V1^2 = 0.9552, V2^2 = 0.0448

  Important amplitudes:
      occ i     occ j     vir a      vir b          v   
    -----------------------------------------------------
[...]
    16   -1.400513725812e-03
    17   -1.734411173372e-03
    18    5.943619620082e-05
    19   -1.433978056560e-03
    20    8.141816542082e-03
    21    9.654659787555e-01
    22    5.124570669445e-04
    23    1.375091266384e-02
    24    8.552296411893e-04
    25    6.821683561248e-02
    26   -4.831284486626e-02
    27   -1.399917485651e+00
    28    9.948712023982e-02
    29   -9.447599607608e-02
    30   -9.615222809113e-04
    31    3.309806739855e-01
    32   -3.143140550902e-01
    33   -3.216817762960e-03
    34    1.423008153619e-02
    35   -1.433825032879e-03
    36   -1.717021004449e-03
    37    2.021125892880e-04
    38   -4.166254509357e-03
    39    1.680457843232e-02
    40    8.863940851261e-01
    41    1.465332237496e-03
    42   -1.381193492104e-02
    43   -7.668178993455e-04
    44    1.681217808092e-02
    45    8.864230929814e-01
    46    1.387544616486e-02
    47   -7.564243677895e-04
    48    6.201745618813e-04
Sym=X
Ene= 0.230752
Spin=Alpha
Occup=0
     1    3.006100597295e-02
     2    1.096567258846e+00
     3   -1.259449901244e-02
     4   -3.070696590919e-03
     5   -7.874312452324e-04
     6   -5.985770927399e-05
     7    6.104322165529e-05
     8    9.352971107861e-04
     9   -1.563211455209e-01
    10   -1.645112921739e-01
    11   -1.740265455268e-02
    12   -4.828030242132e-01
    13   -5.082446460412e-01
    14   -5.372337039485e-02
    15   -9.862554521130e-06
    16   -4.842654339310e-05
    17    6.233566178974e-05
    18   -1.051131173463e-03
    19   -4.705333724088e-05
    20   -3.009886830586e-02
    21   -1.097951190801e+00
    22   -2.438819470092e-03
    23   -1.274513097410e-02
    24   -8.851921407868e-04
    25    6.733456814050e-05
    26   -7.322052538325e-05
    27   -1.085358783995e-03
    28   -1.523920060360e-01
    29   -1.603722915856e-01
    30   -1.705069758458e-02
    31   -5.801767587792e-01
    32   -6.106622810323e-01
    33   -6.493025385143e-02
    34    1.671163888551e-05
    35   -2.094903178782e-04
    36    2.274807588890e-04
    37   -4.045968784908e-03
    38   -2.152605259468e-04
    39    3.027124242068e-02
    40    1.240842837403e+00
    41   -3.436587624495e-03
    42   -1.338046046981e-02
    43   -9.762729046543e-04
    44   -3.023695920169e-02
    45   -1.239263471328e+00
    46   -1.317326756034e-02
    47   -4.101646247875e-03
    48   -8.823732496285e-04
Sym=X
Ene= 0.235893
Spin=Alpha
Occup=0
     1   -1.965028139704e-02
     2   -1.043149634012e+00
     3    1.512344240552e-02
     4    1.039666208514e-02
     5    1.353381649303e-03
     6   -8.388160516575e-02
     7    7.582291945518e-02
     8    1.495608689160e+00
     9    6.155870149809e-02
    10   -5.824705188191e-02
    11   -5.647168757092e-04
    12    2.585436587126e-01
    13   -2.448553577903e-01
    14   -2.372058665523e-03
    15   -2.047031270794e-02
    16    2.384837136169e-03
    17    2.744779651222e-03
    18   -5.682037654101e-04
    19    1.152883604670e-02
    20   -1.961806679432e-02
    21   -1.041564449764e+00
    22   -9.613541235206e-03
    23   -1.560638408862e-02
    24   -1.404046306410e-03
    25    9.019719244365e-02
    26   -8.951687635667e-02
    27   -1.574480243976e+00
    28    5.652216190023e-02
    29   -5.345173065096e-02
    30   -5.353911422263e-04
    31    2.306929329895e-01
    32   -2.181918410900e-01
    33   -2.174826591229e-03
    34    2.168965264653e-02
    35   -2.604013430147e-03
    36   -2.979608034041e-03
    37    6.717545139472e-04
    38   -1.351303607427e-02
    39    2.135299609218e-02
    40    1.095958287602e+00
    41   -7.207758830929e-03
    42   -1.704027571938e-02
    43   -1.377876849350e-03
    44    2.138509333902e-02
    45    1.097813757410e+00
    46    1.668025087497e-02
    47    8.069926975951e-03
    48    1.287698832635e-03
Sym=X
Ene= 0.302820
Spin=Alpha
Occup=0
     1   -1.206629466497e-02
     2    1.658988833201e+00
     3   -2.303562659892e-02
     4    1.560938161375e-03
     5   -1.011145794029e-03
     6    2.447584663676e-06
     7   -1.534368178878e-06
     8   -1.039112971423e-04
     9   -1.425301560908e-01
    10   -1.499288326639e-01
    11   -1.587542183504e-02
    12   -1.103255793945e+00
    13   -1.160484206279e+00
    14   -1.230043626251e-01
    15    3.101634415136e-05
    16   -1.555935640911e-03
    17    1.761720825817e-03
    18   -3.044637256774e-02
    19   -1.557220737725e-03
    20    1.206195152664e-02
    21   -1.658893966731e+00
    22    2.735143991072e-03
    23   -2.291196087406e-02
    24   -1.250116084595e-03
    25   -7.643422928348e-07
    26   -3.645140939851e-06
    27    6.117055594628e-05
    28    1.296304005908e-01
    29    1.363646265191e-01
    30    1.448219729608e-02
    31    1.136732232636e+00
    32    1.195673012621e+00
    33    1.268881475594e-01
    34    3.361105948687e-05
    35   -1.867179592383e-03
    36    2.122177776660e-03
    37   -3.656282103957e-02
    38   -1.868038421619e-03
    39    2.965580883012e-02
    40   -1.644488227290e+00
    41   -2.819761962372e-04
    42    2.324309972984e-02
    43    1.392028513006e-03
    44   -2.965219965890e-02
    45    1.644430430059e+00
    46    2.323744590105e-02
    47    9.038503079706e-04
    48    1.172153486083e-03
Sym=X
Ene= 0.459438
Spin=Alpha
Occup=0
     1   -5.919058631379e-02
     2   -7.226303361144e-01
     3   -1.306368017557e-02
     4   -7.104557954960e-03
     5   -1.054313840220e-03
     6    6.376915562878e-02
     7    2.215600281605e-03
     8   -3.599346486724e+00
     9    1.229200743789e-01
    10   -1.167278680774e-01
    11   -1.161341865092e-03
    12    2.339715327905e+00
    13   -2.222093158262e+00
    14   -2.170245909418e-02
    15    4.274522566585e-02
    16   -1.752033311193e-03
    17   -2.882127317408e-03
    18   -1.637203197584e-03
    19    3.126024042426e-02
    20   -5.915740706586e-02
    21   -7.226355742570e-01
    22    6.438148600426e-03
    23    1.339948292857e-02
    24    1.116698619884e-03
    25   -5.965657609433e-02
    26   -2.749403160190e-02
    27    3.570333224806e+00
    28    8.233837932865e-02
    29   -7.819333449453e-02
    30   -7.979734567267e-04
    31    2.435837955087e+00
    32   -2.313413435749e+00
    33   -2.266133359939e-02
    34   -6.241124732044e-02
    35    4.776584761266e-03
    36    6.168300439392e-03
    37    4.603751315876e-04
    38   -7.861228979150e-03
    39    1.709771605542e-01
    40    6.285128565646e-01
    41    1.173843377227e-02
    42    1.781197989815e-02
    43    1.641477090732e-03
    44    1.710121383480e-01
    45    6.284422252796e-01
    46   -1.720175759040e-02
    47   -1.262094918657e-02
    48   -1.592373738955e-03
Sym=X
Ene= 0.582478
Spin=Alpha
Occup=0
     1   -2.031674390742e-01
     2   -2.428472416262e-01
     3    2.825920949270e-02
     4   -3.309348716398e-02
     5   -6.411448702496e-04
     6    2.142116103434e-02
     7    1.800098149887e-01
     8   -2.251632608192e-01
     9   -2.845594334306e-01
    10    2.702197280517e-01
    11    2.629040090945e-03
    12    1.183421510391e+00
    13   -1.123732764855e+00
    14   -1.101877581038e-02
    15   -2.822363088563e-03
    16   -3.199940606779e-03
    17   -2.740745538961e-03
    18    2.987944146507e-03
    19   -5.902130874923e-02
    20   -2.029582799281e-01
    21   -2.429876098347e-01
    22    3.452384569638e-02
    23   -2.654212642250e-02
    24    5.424609847632e-05
    25   -6.563079876026e-03
    26    1.650561716910e-01
    27    1.037012049958e+00
    28    3.326262319468e-01
    29   -3.158875484068e-01
    30   -3.105099776630e-03
    31   -3.118024745501e-01
    32    2.960782012683e-01
    33    2.959243994300e-03
    34   -2.210909960814e-04
    35   -3.385400914935e-03
    36   -2.984293530085e-03
    37    2.996673037787e-03
    38   -5.844398355123e-02
    39   -2.436052611961e-01
    40    1.327535432088e-01
    41   -2.090455594426e-02
    42    1.724972125085e-02
    43    3.928395145653e-05
    44   -2.435073107863e-01
    45    1.327357369517e-01
    46   -1.831563821990e-02
    47    1.999887393059e-02
    48    3.291465869198e-04
Sym=X
Ene= 0.608949
Spin=Alpha
Occup=0
     1    5.592183093217e-01
     2   -3.316744105716e-01
     3    6.192227433907e-02
     4   -3.294742415453e-02
     5    9.857485958403e-04
     6   -3.248094988795e-07
     7    4.863906335905e-05
     8   -2.457319616545e-04
     9    3.603876494658e-02
    10    3.800804397212e-02
    11    4.034609541138e-03
    12   -2.691430492565e-01
    13   -2.836935828942e-01
    14   -2.996956853396e-02
    15   -1.328687742306e-04
    16    8.416264389474e-03
    17   -9.539303742421e-03
    18    1.646833375470e-01
    19    8.412273448484e-03
    20   -5.594083826125e-01
    21    3.316688875795e-01
    22   -3.606238037627e-02
    23    6.012726578769e-02
    24    1.902564883353e-03
    25    2.549886993046e-06
    26    1.655525606892e-05
    27    3.480877442058e-04
    28    3.340304763273e-02
    29    3.505143361199e-02
    30    3.703811357592e-03
    31   -2.435444318217e-01
    32   -2.563062128783e-01
    33   -2.726989743899e-02
    34    1.080665874617e-04
    35   -6.793143185004e-03
    36    7.713994724143e-03
    37   -1.329806253394e-01
    38   -6.810949423441e-03
    39    4.766627632732e-01
    40   -1.694470987131e-01
    41   -4.403443344689e-02
    42    5.581585751021e-02
    43    1.255715390605e-03
    44   -4.766510758555e-01
    45    1.694619622329e-01
    46    5.800535321504e-02
    47   -4.110466127241e-02
    48    2.976662380571e-04
Sym=X
Ene= 0.688499
Spin=Alpha
Occup=0
     1   -1.937023229220e-05
     2    1.030631766261e-04
     3    8.380675318812e-04
     4    1.067739472015e-03
     5   -1.774902315735e-02
     6   -2.567186145340e-06
     7   -3.568535832803e-05
     8    5.705491830629e-05
     9    3.214271756914e-02
    10    4.038076029644e-02
    11   -6.695455362779e-01
    12   -2.927892411725e-02
    13   -3.660434032331e-02
    14    6.084869149628e-01
    15   -1.320981102867e-03
    16    8.319383554079e-02
    17   -7.893228981872e-02
    18   -8.781256252004e-03
    19   -1.222248579200e-03
    20    5.139044897620e-07
    21    1.488548610337e-05
    22    8.441412319904e-04
    23    1.075274982210e-03
    24   -1.774091805653e-02
    25   -6.532890392187e-06
    26   -2.249124999210e-06
    27    2.286064291239e-06
    28    3.227626005207e-02
    29    4.064169386943e-02
    30   -6.716921565566e-01
    31   -2.973774235183e-02
    32   -3.725373917847e-02
    33    6.167455388399e-01
    34    1.331982731713e-03
    35   -8.198184537730e-02
    36    7.777656022109e-02
    37    8.625096634863e-03
    38    1.193317614778e-03
    39   -5.904757628440e-05
    40   -7.258250423733e-05
    41    9.377161173730e-04
    42    1.181587943938e-03
    43   -1.952093258423e-02
    44   -7.467283168216e-05
    45    6.880220254950e-07
    46    9.409269429028e-04
    47    1.193193543285e-03
    48   -1.952199006163e-02
Sym=X
Ene= 0.705660
Spin=Alpha
Occup=0
     1   -4.813918615447e-01
     2    5.917165149613e-02
     3   -7.675800201490e-02
     4   -4.333349536002e-02
     5   -6.300874712737e-03
     6   -3.664479300890e-02
     7   -2.914521544898e-01
     8   -5.858387691182e-02
     9    1.894834189255e-01
    10   -1.800066308994e-01
    11   -1.712095532779e-03
    12    2.890325989056e-01
    13   -2.742975164310e-01
    14   -2.793217316589e-03
    15    1.959163825068e-01
    16   -1.980886438589e-02
    17   -2.359331580905e-02
    18    2.819754799100e-03
    19   -5.850053376542e-02
    20   -4.814057114008e-01
    21    5.938032253964e-02
    22    3.937803649910e-02
    23    7.884139199158e-02
    24    6.644540990638e-03
    25   -5.461265402427e-02
    26   -3.010725252595e-01
    27    9.910586937602e-01
    28   -1.906922611555e-01
    29    1.811267706424e-01
    30    1.834394789324e-03
    31    3.768998019206e-01
    32   -3.580895551960e-01
    33   -3.483539427370e-03
    34    1.865755862884e-01
    35   -2.131498082812e-02
    36   -2.467520560728e-02
    37    4.826095223316e-03
    38   -9.760260153376e-02
    39   -4.995106561810e-01
    40    2.654601102246e-01
    41   -4.332434067649e-02
    42   -8.057043440235e-02
    43   -6.947703874096e-03
    44   -4.994822512574e-01
    45    2.653219820283e-01
    46    7.828077035112e-02
    47    4.736333299509e-02
    48    6.631979465850e-03
Sym=X
Ene= 0.776522
Spin=Alpha
Occup=0
     1   -5.783834195456e-01
     2    4.583274327015e-01
     3   -1.047971943311e-01
     4   -3.185531346929e-02
     5   -6.950324505400e-03
     6   -8.863721071840e-02
     7    2.475066635142e-01
     8    5.873538182357e-01
     9   -1.143063131309e-01
    10    1.084773960939e-01
    11    1.011795601755e-03
    12   -1.947443492091e-01
    13    1.852485747564e-01
    14    1.887014065472e-03
    15    2.053894283182e-01
    16   -1.728787302620e-02
    17   -2.168309811058e-02
    18   -8.441790951303e-05
    19   -2.038629720176e-03
    20   -5.783072770006e-01
    21    4.585422434367e-01
    22    2.649088716984e-02
    23    1.062365008885e-01
    24    7.679539621468e-03
    25    8.685574942185e-02
    26   -2.125649611768e-01
    27   -4.362678493196e-01
    28   -8.587159591641e-02
    29    8.153786009144e-02
    30    8.142355824562e-04
    31   -3.376736861486e-01
    32    3.207597032215e-01
    33    3.093681375320e-03
    34   -2.019838391014e-01
    35    1.780983426461e-02
    36    2.206237016773e-02
    37   -5.802153306570e-04
    38    1.508207810388e-02
    39    4.977059908794e-01
    40   -4.885231371820e-01
    41    1.794486729011e-02
    42    1.124544206335e-01
    43    7.664674477007e-03
    44    4.977991344584e-01
    45   -4.884934687489e-01
    46   -1.114629189028e-01
    47   -2.363557199232e-02
    48   -6.789702242564e-03
Sym=X
Ene= 0.807250
Spin=Alpha
Occup=0
     1   -1.904007371947e-05
     2    1.339659475972e-04
     3   -1.334381213638e-03
     4   -1.668678666458e-03
     5    2.749448411737e-02
     6   -4.779258635373e-06
     7    4.115587705710e-05
     8   -2.342200934252e-05
     9   -3.677859860942e-02
    10   -4.622174165600e-02
    11    7.669268888031e-01
    12    5.386190825693e-02
    13    6.772342422951e-02
    14   -1.123890063672e+00
    15   -1.038305907183e-03
    16    6.518599660514e-02
    17   -6.184579235215e-02
    18   -6.898544273165e-03
    19   -9.569151753789e-04
    20   -1.932916631447e-05
    21   -1.017575656697e-04
    22   -1.324536375496e-03
    23   -1.672647863081e-03
    24    2.748142931027e-02
    25    2.074297045938e-06
    26    2.059123978605e-05
    27   -5.074193947938e-06
    28    3.664326805690e-02
    29    4.607389462426e-02
    30   -7.615156909220e-01
    31   -5.413857014820e-02
    32   -6.801118169785e-02
    33    1.124449383763e+00
    34   -1.070746228509e-03
    35    6.572672611362e-02
    36   -6.235551460481e-02
    37   -6.895688092848e-03
    38   -9.652728082345e-04
    39    1.111705632279e-05
    40    7.324228918238e-05
    41    1.670520782836e-03
    42    2.121163929529e-03
    43   -3.502477895816e-02
    44    2.388011249820e-05
    45   -1.415203747575e-04
    46    1.657574761971e-03
    47    2.109058118107e-03
    48   -3.503244549654e-02
Sym=X
Ene= 0.858412
Spin=Alpha
Occup=0
     1    1.083525046787e-02
     2   -1.096782700335e+00
     3    1.560264266818e-01
     4    4.305585381447e-02
     5    1.007969533086e-02
     6    5.883478296860e-06
     7    2.431792771067e-05
     8    1.881585871896e-07
     9   -4.418896522505e-01
    10   -4.648367101303e-01
    11   -4.917664100446e-02
    12    9.945995391028e-01
    13    1.046208734663e+00
    14    1.106931080437e-01
    15   -2.409075474561e-04
    16    1.239802011230e-02
    17   -1.404687098204e-02
    18    2.424852148774e-01
    19    1.239954154147e-02
    20   -1.077752833892e-02
    21    1.096699382828e+00
    22    3.505361741425e-02
    23    1.579208830900e-01
    24    1.121916672939e-02
    25   -3.955955030785e-06
    26    1.619838708939e-05
    27   -4.896503522546e-05
    28   -3.828033086169e-01
    29   -4.026654103549e-01
    30   -4.283412068346e-02
    31    8.759445892132e-01
    32    9.213401187330e-01
    33    9.799841251577e-02
    34    2.055802122343e-04
    35   -1.090362197602e-02
    36    1.236143409771e-02
    37   -2.133346365006e-01
    38   -1.090512935652e-02
    39    1.874774871456e-02
    40   -1.049841371541e+00
    41    6.060752900481e-02
    42    1.374252443103e-01
    43    1.122786880569e-02
    44   -1.878698876048e-02
    45    1.049940651119e+00
    46    1.342425697888e-01
    47    6.751341820704e-02
    48    1.052593413677e-02
Sym=X
Ene= 0.927768
Spin=Alpha
Occup=0
     1    1.441528252571e-01
     2   -1.167983681240e+00
     3    1.702500151933e-01
     4   -1.692159343940e-02
     5    7.150467128292e-03
     6    6.964149876216e-06
     7    8.057042518456e-05
     8   -5.703514305262e-05
     9   -4.556737332270e-01
    10   -4.793934751904e-01
    11   -5.080560334895e-02
    12    1.311403086245e+00
    13    1.379720770537e+00
    14    1.462282854573e-01
    15   -1.269545015533e-04
    16    5.462511053579e-03
    17   -6.167614978848e-03
    18    1.069815011556e-01
    19    5.464678560923e-03
    20   -1.441035041967e-01
    21    1.168137852950e+00
    22   -2.559291501261e-02
    23    1.690783136752e-01
    24    8.966564633562e-03
    25   -2.312604565740e-06
    26    6.240052426983e-05
    27   -2.016464225264e-04
    28    4.922414297068e-01
    29    5.176975452152e-01
    30    5.495057264187e-02
    31   -1.459353795785e+00
    32   -1.534900413355e+00
    33   -1.629176102925e-01
    34   -1.258071151258e-04
    35    7.004367256603e-03
    36   -7.935181839964e-03
    37    1.366596883725e-01
    38    7.015089764737e-03
    39   -1.380933275348e-01
    40    1.295075552798e+00
    41    3.283759125669e-03
    42   -1.914905830510e-01
    43   -1.142155173020e-02
    44    1.381001797688e-01
    45   -1.295083213701e+00
    46   -1.915061761185e-01
    47   -6.513210547921e-03
    48   -9.606202825074e-03
Sym=X
Ene= 0.969382
Spin=Alpha
Occup=0
     1   -6.436393614282e-02
     2    8.489001259381e-01
     3   -8.305809537408e-02
     4   -8.987048883916e-02
     5   -9.410524644133e-03
     6    2.647071358878e-02
     7    1.556128889247e-01
     8    6.582050086068e-01
     9    4.786629261777e-01
    10   -4.545292270846e-01
    11   -4.454436338300e-03
    12   -1.477976174545e+00
    13    1.403431628550e+00
    14    1.373860295405e-02
    15   -5.098673083886e-02
    16   -1.179993379750e-02
    17   -8.870419030693e-03
    18    1.414038596690e-02
    19   -2.761665184051e-01
    20   -6.437570228435e-02
    21    8.486934893982e-01
    22    8.555175691477e-02
    23    8.746799459729e-02
    24    9.395830824049e-03
    25   -2.830960562452e-02
    26   -3.449556927221e-01
    27   -3.581718816762e-01
    28    4.844384089129e-01
    29   -4.601398578214e-01
    30   -4.541300426227e-03
    31   -1.448026227953e+00
    32    1.375431110609e+00
    33    1.356048933960e-02
    34    6.692438729392e-02
    35    1.280906337042e-02
    36    9.272300306116e-03
    37   -1.623708478849e-02
    38    3.165382904345e-01
    39    4.833156464150e-02
    40   -9.288099280406e-01
    41    9.854836251307e-02
    42    9.540383572291e-02
    43    1.051446741112e-02
    44    4.830838842039e-02
    45   -9.286287759818e-01
    46   -9.027380684105e-02
    47   -1.032452929070e-01
    48   -1.056204926330e-02
[5D]

======= END OF MOLDEN-FORMATTED INPUT FILE =======


        *************************************************************
        *                                                           *
        *  Thank you very much for using Q-Chem.  Have a nice day.  *
        *                                                           *
        *************************************************************


