                  Welcome to Q-Chem
     A Quantum Leap Into The Future Of Chemistry


 Q-Chem 5.4 (devel), Q-Chem, Inc., Pleasanton, CA (2021)

 E. Epifanovsky,  A. T. B. Gilbert,  Xintian Feng,  Joonho Lee,  Yuezhi Mao,  
 N. Mardirossian,  P. Pokhilko,  A. White,  M. Wormit,  M. P. Coons,  
 A. L. Dempwolff,  Zhengting Gan,  D. Hait,  P. R. Horn,  L. D. Jacobson,  
 I. Kaliman,  J. Kussmann,  A. W. Lange,  Ka Un Lao,  D. S. Levine,  Jie Liu,  
 S. C. McKenzie,  A. F. Morrison,  K. Nanda,  F. Plasser,  D. R. Rehn,  
 M. L. Vidal,  Zhi-Qiang You,  Ying Zhu,  B. Alam,  B. Albrecht,  
 A. Aldossary,  E. Alguire,  J. H. Andersen,  D. Barton,  K. Begam,  A. Behn,  
 Y. A. Bernard,  E. J. Berquist,  H. Burton,  A. Carreras,  K. Carter-Fenk,  
 R. Chakraborty,  A. D. Chien,  K. D. Closser,  V. Cofer-Shabica,  
 S. Dasgupta,  Jia Deng,  M. de Wergifosse,  M. Diedenhofen,  Hainam Do,  
 S. Ehlert,  Po-Tung Fang,  S. Fatehi,  Qingguo Feng,  T. Friedhoff,  
 J. Gayvert,  Qinghui Ge,  G. Gidofalvi,  M. Goldey,  J. Gomes,  
 C. Gonzalez-Espinoza,  S. Gulania,  A. Gunina,  M. W. D. Hanson-Heine,  
 P. H. P. Harbach,  A. W. Hauser,  M. F. Herbst,  M. Hernandez Vera,  
 M. Hodecker,  Z. C. Holden,  S. Houck,  Xunkun Huang,  Kerwin Hui,  
 B. C. Huynh,  M. Ivanov,  Hyunjun Ji,  Hanjie Jiang,  B. Kaduk,  S. Kaehler,  
 K. Khistyaev,  Jaehoon Kim,  P. Klunzinger,  Z. Koczor-Benda,  
 Joong Hoon Koh,  D. Kosenkov,  L. Koulias,  T. Kowalczyk,  C. M. Krauter,  
 K. Kue,  A. Kunitsa,  T. Kus,  A. Landau,  K. V. Lawler,  D. Lefrancois,  
 S. Lehtola,  Rain Li,  Yi-Pei Li,  Jiashu Liang,  M. Liebenthal,  
 Hung-Hsuan Lin,  You-Sheng Lin,  Fenglai Liu,  Kuan-Yu Liu,  
 M. Loipersberger,  A. Luenser,  A. Manjanath,  P. Manohar,  E. Mansoor,  
 S. F. Manzer,  Shan-Ping Mao,  A. V. Marenich,  T. Markovich,  S. Mason,  
 S. A. Maurer,  P. F. McLaughlin,  M. F. S. J. Menger,  J.-M. Mewes,  
 S. A. Mewes,  P. Morgante,  J. W. Mullinax,  K. J. Oosterbaan,  G. Paran,  
 Alexander C. Paul,  Suranjan K. Paul,  F. Pavosevic,  Zheng Pei,  S. Prager,  
 E. I. Proynov,  E. Ramos,  B. Rana,  A. E. Rask,  A. Rettig,  R. M. Richard,  
 F. Rob,  E. Rossomme,  T. Scheele,  M. Scheurer,  M. Schneider,  
 N. Sergueev,  S. M. Sharada,  W. Skomorowski,  D. W. Small,  C. J. Stein,  
 Yu-Chuan Su,  E. J. Sundstrom,  Zhen Tao,  J. Thirman,  T. Tsuchimochi,  
 N. M. Tubman,  S. P. Veccham,  O. Vydrov,  J. Wenzel,  J. Witte,  A. Yamada,  
 Kun Yao,  S. Yeganeh,  S. R. Yost,  A. Zech,  Igor Ying Zhang,  Xing Zhang,  
 Yu Zhang,  D. Zuev,  A. Aspuru-Guzik,  A. T. Bell,  N. A. Besley,  
 K. B. Bravaya,  B. R. Brooks,  D. Casanova,  Jeng-Da Chai,  S. Coriani,  
 C. J. Cramer,  A. E. DePrince, III,  R. A. DiStasio Jr.,  A. Dreuw,  
 B. D. Dunietz,  T. R. Furlani,  W. A. Goddard III,  S. Grimme,  
 S. Hammes-Schiffer,  T. Head-Gordon,  W. J. Hehre,  Chao-Ping Hsu,  
 T.-C. Jagau,  Yousung Jung,  A. Klamt,  Jing Kong,  D. S. Lambrecht,  
 WanZhen Liang,  N. J. Mayhall,  C. W. McCurdy,  J. B. Neaton,  
 C. Ochsenfeld,  J. A. Parkhill,  R. Peverati,  V. A. Rassolov,  Yihan Shao,  
 L. V. Slipchenko,  T. Stauch,  R. P. Steele,  J. E. Subotnik,  
 A. J. W. Thom,  A. Tkatchenko,  D. G. Truhlar,  T. Van Voorhis,  
 T. A. Wesolowski,  K. B. Whaley,  H. L. Woodcock III,  P. M. Zimmerman,  
 S. Faraji,  P. M. W. Gill,  M. Head-Gordon,  J. M. Herbert,  A. I. Krylov

 Additional authors for Version 5.4.1: 
 S. Kotaru,  Shaozhi Li,  Xiangyuan Li,  F. Matz,  A. Molle,  Haisheng Ren,  
 Yingli Su,  Hung-Yi Tsai,  C. Utku,  Fang Wang

 Contributors to earlier versions of Q-Chem not listed above: 
 R. D. Adamson,  B. Austin,  R. Baer,  J. Baker,  G. J. O. Beran,  
 K. Brandhorst,  S. T. Brown,  E. F. C. Byrd,  A. K. Chakraborty,  
 G. K. L. Chan,  Chun-Min Chang,  Yunqing Chen,  C.-L. Cheng,  
 Siu Hung Chien,  D. M. Chipman,  D. L. Crittenden,  H. Dachsel,  
 R. J. Doerksen,  A. D. Dutoi,  R. G. Edgar,  J. Fosso-Tande,  
 L. Fusti-Molnar,  D. Ghosh,  A. Ghysels,  A. Golubeva-Zadorozhnaya,  
 J. Gonthier,  M. S. Gordon,  S. R. Gwaltney,  G. Hawkins,  J. E. Herr,  
 A. Heyden,  S. Hirata,  E. G. Hohenstein,  G. Kedziora,  F. J. Keil,  
 C. Kelley,  Jihan Kim,  R. A. King,  R. Z. Khaliullin,  P. P. Korambath,  
 W. Kurlancheek,  A. Laurent,  A. M. Lee,  M. S. Lee,  S. V. Levchenko,  
 Ching Yeh Lin,  D. Liotard,  E. Livshits,  R. C. Lochan,  I. Lotan,  
 L. A. Martinez-Martinez,  P. E. Maslen,  N. Nair,  D. P. O'Neill,  
 D. Neuhauser,  E. Neuscamman,  C. M. Oana,  R. Olivares-Amaya,  R. Olson,  
 T. M. Perrine,  B. Peters,  P. A. Pieniazek,  A. Prociuk,  Y. M. Rhee,  
 J. Ritchie,  M. A. Rohrdanz,  E. Rosta,  N. J. Russ,  H. F. Schaefer III,  
 M. W. Schmidt,  N. E. Schultz,  S. Sharma,  N. Shenvi,  C. D. Sherrill,  
 A. C. Simmonett,  A. Sodt,  T. Stein,  D. Stuck,  K. S. Thanthiriwatte,  
 V. Vanovschi,  L. Vogt,  Tao Wang,  A. Warshel,  M. A. Watson,  
 C. F. Williams,  Q. Wu,  X. Xu,  Jun Yang,  W. Zhang,  Yan Zhao

 Please cite Q-Chem as follows:
 Y. Shao et al., Mol. Phys. 113, 184-215 (2015)
 DOI: 10.1080/00268976.2014.952696

 Q-Chem 5.4.1 for Intel X86 EM64T Linux

 Parts of Q-Chem use Armadillo 9.800.1 (Horizon Scraper).
 http://arma.sourceforge.net/

 Q-Chem begins on Mon Mar 20 18:20:56 2023  

 Host: cpu186.baobab
0

     Scratch files written to /scratch/fum/qchem74322//
 Processing $rem in /home/share/wesolowski/qc5.aug2021.FDE/config/preferences:
 Processing $rem in /home/fum/.qchemrc:

 Checking the input file for inconsistencies... 	...done.

--------------------------------------------------------------
User input:
--------------------------------------------------------------
$comment
generated from CCJob.Templates
$end

$rem
sym_ignore = true
method = adc(2)
ee_states = 10
basis = cc-pVDZ
mem_static = 1024
mem_total = 40000
adc_davidson_maxiter = 900
adc_davidson_conv = 6
adc_print = 3
adc_prop_es = true
adc_prop_es2es = true
adc_prop_tpa = true
molden_format = True
state_analysis = true
print_orbitals = 15
gen_scfman = false
fde_export_density = true
fde_details = 3
$end

$molecule
0 1
H -0.058603027647233935 -0.2573939492867427 0.06271186451485079
C -1.0671923433151786 -0.5346403386230996 -0.002459260431288409
H -1.2926559779215216 -1.5554258599707314 -0.07501769762928233
C -2.055473804283235 0.40405920172140897 0.0067065999314184525
H -1.8300473706762415 1.4248867890788461 0.07924684313006258
H -3.0641021030604647 0.12682223878447996 -0.058390227216099204                     
$end
--------------------------------------------------------------
 ----------------------------------------------------------------
             Standard Nuclear Orientation (Angstroms)
    I     Atom           X                Y                Z
 ----------------------------------------------------------------
    1      H      -0.0586030276    -0.2573939493     0.0627118645
    2      C      -1.0671923433    -0.5346403386    -0.0024592604
    3      H      -1.2926559779    -1.5554258600    -0.0750176976
    4      C      -2.0554738043     0.4040592017     0.0067065999
    5      H      -1.8300473707     1.4248867891     0.0792468431
    6      H      -3.0641021031     0.1268222388    -0.0583902272
 ----------------------------------------------------------------
 Nuclear Repulsion Energy =          33.50161096 hartrees
 There are        8 alpha and        8 beta electrons
 Requested basis set is cc-pVDZ
 There are 24 shells and 48 basis functions
 Total memory of 40000 MB is distributed as follows: 
   MEM_STATIC is set to 1024 MB
   QALLOC/CCMAN JOB total memory use is  38976 MB
 Warning: actual memory use might exceed 40000 MB

 Total QAlloc Memory Limit  40000 MB
 Mega-Array Size      1001 MB
 MEM_STATIC part      1024 MB

                       Distance Matrix (Angstroms)
             H (  1)   C (  2)   H (  3)   C (  4)   H (  5)
   C (  2)  1.048029
   H (  3)  1.796314  1.047903
   C (  4)  2.104317  1.363063  2.104317
   H (  5)  2.443022  2.104369  3.032301  1.047935
   H (  6)  3.032377  2.104355  2.443002  1.048060  1.796331

 A cutoff of  1.0D-11 yielded    300 shell pairs
 There are      1220 function pairs (      1329 Cartesian)
 Smallest overlap matrix eigenvalue = 5.36E-03

 Scale SEOQF with 1.000000e-01/1.000000e-01/1.000000e+00

 Standard Electronic Orientation quadrupole field applied
 Nucleus-field energy     =     0.0000000022 hartrees
 Guess from superposition of atomic densities
 Warning:  Energy on first SCF cycle will be non-variational
 SAD guess density has 16.000000 electrons
 A restricted Hartree-Fock SCF calculation will be
 performed using Pulay DIIS extrapolation
 SCF converges when DIIS error is below 1.0E-08
 using 10 threads for integral computing
 -------------------------------------------------------
 OpenMP Integral computing Module                
 Release: version 1.0, May 2013, Q-Chem Inc. Pittsburgh 
 -------------------------------------------------------
 ---------------------------------------
  Cycle       Energy         DIIS Error
 ---------------------------------------
    1     -78.4710747882      1.02E-01
    2     -78.0118947618      7.23E-03
    3     -78.0326713904      1.83E-03
    4     -78.0341436979      5.34E-04
    5     -78.0342509513      5.89E-05
    6     -78.0342529161      9.20E-06
    7     -78.0342529764      1.98E-06
    8     -78.0342529792      1.70E-07
    9     -78.0342529792      3.75E-08
   10     -78.0342529793      1.14E-08
   11     -78.0342529793      1.22E-09 Convergence criterion met
 ---------------------------------------
 SCF time:  CPU 2.50 s  wall 2.40 s
 SCF   energy in the final basis set = -78.03425298
 Total energy in the final basis set = -78.03425298
Exporting Density Matrix to file 'Densmat_SCF.txt'.
Export successful
================================================================================
|                                                                              |
|                                 A D C  M A N                                 |
|                                                                              |
 ------------------------------------------------------------------------------ 
|                                                                              |
| Components:                                                                  |
|                                                                              |
| - libvmm - 1.3-trunk                                                         |
|   Authors:                                                                   |
|   Evgeny Epifanovsky, Ilya Kaliman                                           |
|                                                                              |
| - libtensor - 2.5-trunk                                                      |
|   Authors:                                                                   |
|   Evgeny Epifanovsky, Michael Wormit, Dmitry Zuev, Sam Manzer,               |
|   Ilya Kaliman                                                               |
|                                                                              |
| - libwfa - 1.1-trunk                                                         |
|   Authors:                                                                   |
|   Felix Plasser, Stefanie Mewes (Baeppler), Benjamin Thomitzni,              |
|   Michael Wormit, Feng Chen, Anna I. Krylov, Pavel Pokhilko                  |
|                                                                              |
| - libadc - 1.1-trunk                                                         |
|   Authors:                                                                   |
|   Michael Wormit, Adrian L. Dempwolff, Philipp H. P. Harbach,                |
|   Caroline Krauter, Dirk Rehn, Matthias Schneider, Jan Wenzel                |
|                                                                              |
| - adcman - 2.6-trunk                                                         |
|   Authors:                                                                   |
|   Michael Wormit, Adrian L. Dempwolff, Philipp H. P. Harbach,                |
|   Caroline Krauter, Daniel Lefrancois, Jan-Michael Mewes, Dirk Rehn,         |
|   Matthias Schneider, Jan Wenzel, Andreas Dreuw                              |
|                                                                              |
| Authors of earlier versions of ADCMAN:                                       |
| Andreas Dreuw, Jan Hendrik Starcke, Dirk Rehn, Michael Wormit                |
|                                                                              |
================================================================================

 Created directory /scratch/fum/qchem74322/plots
  Import QC data ...  CPU 0.00 s  wall 0.00 s

 Alpha MOs, Restricted
 -- Occupied --                  
-11.232 -11.231  -1.028  -0.806  -0.649  -0.581  -0.520  -0.366
  1 A     2 A     3 A     4 A     5 A     6 A     7 A     8 A                  
 -- Virtual --                   
  0.161   0.206   0.240   0.243   0.303   0.459   0.583   0.615
  9 A    10 A    11 A    12 A    13 A    14 A    15 A    16 A                  
  0.696   0.725   0.790   0.805   0.876   0.948   0.966   1.020
 17 A    18 A    19 A    20 A    21 A    22 A    23 A    24 A                  
  1.139   1.221   1.251   1.255   1.296   1.629   1.757   1.776
 25 A    26 A    27 A    28 A    29 A    30 A    31 A    32 A                  
  1.828   1.842   1.880   1.937   1.998   2.000   2.220   2.250
 33 A    34 A    35 A    36 A    37 A    38 A    39 A    40 A                  
  2.400   2.509   2.551   2.671   2.819   2.892   3.208   3.455
 41 A    42 A    43 A    44 A    45 A    46 A    47 A    48 A                  

 Beta MOs, Restricted
 -- Occupied --                  
-11.232 -11.231  -1.028  -0.806  -0.649  -0.581  -0.520  -0.366
  1 A     2 A     3 A     4 A     5 A     6 A     7 A     8 A                  
 -- Virtual --                   
  0.161   0.206   0.240   0.243   0.303   0.459   0.583   0.615
  9 A    10 A    11 A    12 A    13 A    14 A    15 A    16 A                  
  0.696   0.725   0.790   0.805   0.876   0.948   0.966   1.020
 17 A    18 A    19 A    20 A    21 A    22 A    23 A    24 A                  
  1.139   1.221   1.251   1.255   1.296   1.629   1.757   1.776
 25 A    26 A    27 A    28 A    29 A    30 A    31 A    32 A                  
  1.828   1.842   1.880   1.937   1.998   2.000   2.220   2.250
 33 A    34 A    35 A    36 A    37 A    38 A    39 A    40 A                  
  2.400   2.509   2.551   2.671   2.819   2.892   3.208   3.455
 41 A    42 A    43 A    44 A    45 A    46 A    47 A    48 A                  
  Import AO data ...  CPU 0.00 s  wall 0.00 s
  Using point group: C1
  Irreducible representations in point group: A
  Molecular orbitals: 
  Occupied MOs:
  Block   0:   1 (  A) A   2 (  A) A   3 (  A) A   4 (  A) A   5 (  A) A
                  -11.23      -11.23      -1.028     -0.8064      -0.649
               6 (  A) A   7 (  A) A   8 (  A) A
                 -0.5806     -0.5203     -0.3659
  Block   1:   1 (  A) B   2 (  A) B   3 (  A) B   4 (  A) B   5 (  A) B
                  -11.23      -11.23      -1.028     -0.8064      -0.649
               6 (  A) B   7 (  A) B   8 (  A) B
                 -0.5806     -0.5203     -0.3659
  Virtual MOs:
  Block   0:   9 (  A) A  10 (  A) A  11 (  A) A  12 (  A) A  13 (  A) A
                  0.1614      0.2062      0.2395      0.2427      0.3025
              14 (  A) A  15 (  A) A  16 (  A) A  17 (  A) A  18 (  A) A
                  0.4587      0.5828      0.6154      0.6961      0.7247
              19 (  A) A  20 (  A) A  21 (  A) A  22 (  A) A
                  0.7898      0.8052      0.8764      0.9477
  Block   1:  23 (  A) A  24 (  A) A  25 (  A) A  26 (  A) A  27 (  A) A
                  0.9657        1.02       1.139       1.221       1.251
              28 (  A) A  29 (  A) A  30 (  A) A  31 (  A) A  32 (  A) A
                   1.255       1.296       1.629       1.757       1.776
              33 (  A) A  34 (  A) A  35 (  A) A  36 (  A) A
                   1.828       1.842        1.88       1.937
  Block   2:  37 (  A) A  38 (  A) A  39 (  A) A  40 (  A) A  41 (  A) A
                   1.998           2        2.22        2.25         2.4
              42 (  A) A  43 (  A) A  44 (  A) A  45 (  A) A  46 (  A) A
                   2.509       2.551       2.671       2.819       2.892
              47 (  A) A  48 (  A) A
                   3.208       3.455
  Block   3:   9 (  A) B  10 (  A) B  11 (  A) B  12 (  A) B  13 (  A) B
                  0.1614      0.2062      0.2395      0.2427      0.3025
              14 (  A) B  15 (  A) B  16 (  A) B  17 (  A) B  18 (  A) B
                  0.4587      0.5828      0.6154      0.6961      0.7247
              19 (  A) B  20 (  A) B  21 (  A) B  22 (  A) B
                  0.7898      0.8052      0.8764      0.9477
  Block   4:  23 (  A) B  24 (  A) B  25 (  A) B  26 (  A) B  27 (  A) B
                  0.9657        1.02       1.139       1.221       1.251
              28 (  A) B  29 (  A) B  30 (  A) B  31 (  A) B  32 (  A) B
                   1.255       1.296       1.629       1.757       1.776
              33 (  A) B  34 (  A) B  35 (  A) B  36 (  A) B
                   1.828       1.842        1.88       1.937
  Block   5:  37 (  A) B  38 (  A) B  39 (  A) B  40 (  A) B  41 (  A) B
                   1.998           2        2.22        2.25         2.4
              42 (  A) B  43 (  A) B  44 (  A) B  45 (  A) B  46 (  A) B
                   2.509       2.551       2.671       2.819       2.892
              47 (  A) B  48 (  A) B
                   3.208       3.455
  Import MO data ...  CPU 0.01 s  wall 0.01 s
  Import HF data ...  CPU 0.25 s  wall 0.10 s
  Import 2e integrals ...  CPU 1.49 s  wall 0.27 s

--------------------------------------------------------------------------------
                                   HF Summary                                   
--------------------------------------------------------------------------------
  Energy:                                                  -78.0342529793 a.u.
  Dip. moment [a.u.]:                  [  -0.000002,   -0.000001,    0.000016]
  Total dipole [Debye]:                                               0.000040
  <r^2> [a.u.]:                        [ 175.434090,   34.857783,   11.587165]
  Total <r^2> [a.u.]:                                               221.879038
--------------------------------------------------------------------------------
  HF properties ...  CPU 0.03 s  wall 0.01 s
  MP(1) calculation ...  CPU 0.01 s  wall 0.01 s
  N^6 prerequesite intermediates ...  CPU 0.64 s  wall 0.12 s
  Difference density matrix of state mp2_gs printed to ASCII file 'State_mp2_gs_Difference.txt'
Exporting MP density matrix to file 'Densmat_MP.txt'.
Export successful
  Total density matrix of state mp2_gs printed to ASCII file 'State_mp2_gs_Total.txt'
Exporting MP density matrix to file 'Densmat_MP.txt'.
Export successful

--------------------------------------------------------------------------------
                                 MP(2) Summary                                  
--------------------------------------------------------------------------------
  MP energy contribution:                                   -0.2796145714 a.u.
  Total energy:                                            -78.3138675507 a.u.
  Dip. moment [a.u.]:                  [  -0.000002,   -0.000001,    0.000015]
  Total dipole [Debye]:                                               0.000040
  <r^2> [a.u.]:                        [ 175.485999,   34.905137,   11.407235]
  Total <r^2> [a.u.]:                                               221.798371

  Density matrix analysis:
  ------------------------
  NOs
    Occupation of frontier NOs:
       0.0478   1.9362
    Number of electrons: 16.000000
    Number of unpaired electrons: n_u =  0.40301, n_u,nl =  0.04620
    NO participation ratio (PR_NO): 13.466734
  
  
  Mulliken Population Analysis
  Atom      Charge (e)              h+              e-           Del q
  --------------------------------------------------------------------
   1 H        0.042152        0.014603       -0.010981        0.003621
   2 C       -0.084257        0.092721       -0.099965       -0.007244
   3 H        0.042122        0.014604       -0.010981        0.003623
   4 C       -0.084308        0.092724       -0.099967       -0.007243
   5 H        0.042131        0.014604       -0.010982        0.003622
   6 H        0.042160        0.014602       -0.010982        0.003621
  --------------------------------------------------------------------
  Sum:        0.000000        0.243858       -0.243858       -0.000000
  
  Multipole moment analysis of the density matrix
    Molecular charge:                      0.000000
    Number of electrons:                   16.000000
      Center of electronic charge [Ang]: [ -1.561338,  -0.065287,   0.002127]
    Total nuclear charge:                  16.000000
      Center of nuclear charge [Ang]:    [ -1.561338,  -0.065287,   0.002127]
    Dipole moment [D]:                     0.000040
      Cartesian components [D]:          [ -0.000004,  -0.000003,   0.000039]
    RMS size of the density [Ang]:         1.199927
      Cartesian components [Ang]:        [  0.795954,   0.778871,   0.446814]
  
  Exciton analysis of the difference density matrix
    <r_h> [Ang]:                  [ -1.561342,  -0.065283,   0.002124]
    <r_e> [Ang]:                  [ -1.561343,  -0.065282,   0.002125]
    |<r_e - r_h>| [Ang]:            0.000002
    Hole size [Ang]:                1.392219
      Cartesian components [Ang]: [  0.840612,   0.827391,   0.739641]
    Electron size [Ang]:            1.358543
      Cartesian components [Ang]: [  0.875349,   0.859624,   0.583481]
--------------------------------------------------------------------------------
  MP(2) calculation ...  CPU 0.29 s  wall 0.20 s
  Start ADC(2)-s ...  CPU 0.02 s  wall 0.01 s
  ADC(2) intermediates ...  CPU 0.04 s  wall 0.01 s
  Starting Davidson for singlet states of irrep A ... 
--------------------------------------------------------------------------------
   It NVec Conv  Avg. Norm  Max. Norm  Conv. states           Remark
--------------------------------------------------------------------------------
        10    0  1.329e-01  4.707e-01  0.4068 n n n n n n n n Guess.
    1   20    0  2.339e-02  1.148e-01  0.3166 n n n n n n n n 
    2   30    0  5.891e-03  2.496e-02  0.3117 n n n n n n n n 
    3   40    0  1.785e-03  1.028e-02  0.3113 n n n n n n n n 
    4   50    0  5.365e-04  3.614e-03  0.3112 n n n n n n n n 
    5   20    0  2.653e-04  1.875e-03  0.3112 n n n n n n n n Subspace collapsed.
    6   30    0  1.188e-04  8.176e-04  0.3112 n n n n n n n n 
    7   40    0  4.715e-05  3.366e-04  0.3112 n n n n n n n n 
    8   50    0  2.211e-05  1.573e-04  0.3112 n n n n n n n n 
    9   20    1  1.439e-05  1.213e-04  0.3112 n n y n n n n n Subspace collapsed.
   10   30    4  9.229e-06  6.567e-05  0.3112 n y y y n y n n 
   11   40    7  6.084e-06  5.543e-05  0.3112 n y y y y y n y 
   12   50    8  7.181e-06  7.120e-05  0.3112 y y y y y y n y 
   13   20    8  3.305e-06  3.269e-05  0.3112 y y y y y y n y Subspace collapsed.
   14   30    8  2.674e-06  2.648e-05  0.3112 y y y y y y n y 
   15   40    8  2.520e-06  2.509e-05  0.3112 y y y y y y n y 
   16   50    9  2.950e-06  2.948e-05  0.3112 y y y y y y y y 
   17   20    9  2.013e-06  2.012e-05  0.3112 y y y y y y y y Subspace collapsed.
   18   30    9  2.135e-06  2.134e-05  0.3112 y y y y y y y y 
   19   40    9  2.691e-06  2.691e-05  0.3112 y y y y y y y y 
   20   50    9  4.370e-06  4.370e-05  0.3112 y y y y y y y y 
   21   20    9  2.286e-06  2.286e-05  0.3112 y y y y y y y y Subspace collapsed.
   22   28    9  1.766e-06  1.766e-05  0.3112 y y y y y y y y 
   23   35    9  1.305e-06  1.305e-05  0.3112 y y y y y y y y 
   24   41    9  1.338e-06  1.338e-05  0.3112 y y y y y y y y 
   25   47    9  3.043e-06  3.043e-05  0.3112 y y y y y y y y 
   26   50    9  2.841e-06  2.841e-05  0.3112 y y y y y y y y 
   27   15    9  1.565e-06  1.565e-05  0.3112 y y y y y y y y Subspace collapsed.
   28   15    9  1.565e-06  1.565e-05  0.3112 y y y y y y y y 
   29   25    9  1.107e-06  1.107e-05  0.3112 y y y y y y y y 
   30   29    9  6.640e-07  6.640e-06  0.3112 y y y y y y y y 
   31   33    9  6.231e-07  6.231e-06  0.3112 y y y y y y y y 
   32   37    9  7.850e-07  7.850e-06  0.3112 y y y y y y y y 
   33   41    9  1.214e-06  1.214e-05  0.3112 y y y y y y y y 
   34   45    9  1.210e-06  1.210e-05  0.3112 y y y y y y y y 
   35   49    9  6.941e-07  6.941e-06  0.3112 y y y y y y y y 
   36   50    9  6.805e-07  6.805e-06  0.3112 y y y y y y y y 
   37   14    9  3.373e-07  3.373e-06  0.3112 y y y y y y y y Subspace collapsed.
   38   17    9  2.927e-07  2.927e-06  0.3112 y y y y y y y y 
   39   20    9  1.966e-07  1.966e-06  0.3112 y y y y y y y y 
   40   23    9  1.242e-07  1.242e-06  0.3112 y y y y y y y y 
   41   23    9  1.242e-07  1.242e-06  0.3112 y y y y y y y y 
   42   31   10  8.932e-08  8.932e-07  0.3112 y y y y y y y y Converged.
--------------------------------------------------------------------------------
  Davidson Summary: 
 ------------------------------------------------------------
  State  0: excitation energy =   0.3112 a.u.   (converged)
  State  1: excitation energy =   0.3367 a.u.   (converged)
  State  2: excitation energy =   0.3371 a.u.   (converged)
  State  3: excitation energy =   0.3667 a.u.   (converged)
  State  4: excitation energy =   0.3698 a.u.   (converged)
  State  5: excitation energy =   0.3836 a.u.   (converged)
  State  6: excitation energy =   0.4394 a.u.   (converged)
  State  7: excitation energy =   0.4444 a.u.   (converged)
  State  8: excitation energy =   0.4533 a.u.   (converged)
  State  9: excitation energy =   0.4837 a.u.   (converged)
 ------------------------------------------------------------

  Singlet states of irrep A ...  CPU 239.96 s  wall 75.30 s
  TDMs ...  CPU 4.11 s  wall 1.37 s
  SDMs ...  CPU 5.62 s  wall 1.72 s
  Starting TPA DIIS iterations ... 
------------------------------------ 
   It     Res. Norm  Remark
------------------------------------
                       Guess.
    1     4.842e+00  
    2     6.561e+00  
    3     1.128e+00  
    4     2.691e-01  
    5     7.443e-02  
    6     2.696e-02  
    7     8.457e-03  
    8     1.225e-03  
    9     4.394e-04  
   10     7.880e-05  
   11     2.248e-05  
   12     3.783e-06  
   13     1.018e-06  
   14     3.467e-07  Converged.
   ... Converged in 14 steps (norm: 3.46718e-07)
------------------------------------
  Starting TPA DIIS iterations ... 
------------------------------------ 
   It     Res. Norm  Remark
------------------------------------
                       Guess.
    1     4.607e+00  
    2     6.235e+00  
    3     1.074e+00  
    4     2.677e-01  
    5     7.418e-02  
    6     2.700e-02  
    7     8.308e-03  
    8     1.241e-03  
    9     4.460e-04  
   10     7.871e-05  
   11     2.281e-05  
   12     3.746e-06  
   13     1.036e-06  
   14     3.488e-07  Converged.
   ... Converged in 14 steps (norm: 3.48754e-07)
------------------------------------
  Starting TPA DIIS iterations ... 
------------------------------------ 
   It     Res. Norm  Remark
------------------------------------
                       Guess.
    1     6.818e-01  
    2     4.901e-01  
    3     1.767e-01  
    4     7.242e-02  
    5     1.699e-02  
    6     6.043e-03  
    7     8.915e-04  
    8     3.722e-04  
    9     1.022e-04  
   10     2.576e-05  
   11     4.554e-06  
   12     1.115e-06  
   13     9.109e-07  Converged.
   ... Converged in 13 steps (norm: 9.10895e-07)
------------------------------------
  Starting TPA DIIS iterations ... 
------------------------------------ 
   It     Res. Norm  Remark
------------------------------------
                       Guess.
    1     5.619e+00  
    2     8.001e+00  
    3     1.334e+00  
    4     3.431e-01  
    5     9.734e-02  
    6     3.559e-02  
    7     1.112e-02  
    8     1.595e-03  
    9     5.840e-04  
   10     1.059e-04  
   11     3.106e-05  
   12     5.288e-06  
   13     1.441e-06  
   14     4.953e-07  Converged.
   ... Converged in 14 steps (norm: 4.95306e-07)
------------------------------------
  Starting TPA DIIS iterations ... 
------------------------------------ 
   It     Res. Norm  Remark
------------------------------------
                       Guess.
    1     5.346e+00  
    2     7.602e+00  
    3     1.270e+00  
    4     3.408e-01  
    5     9.707e-02  
    6     3.570e-02  
    7     1.093e-02  
    8     1.620e-03  
    9     5.931e-04  
   10     1.058e-04  
   11     3.148e-05  
   12     5.234e-06  
   13     1.472e-06  
   14     5.008e-07  Converged.
   ... Converged in 14 steps (norm: 5.00847e-07)
------------------------------------
  Starting TPA DIIS iterations ... 
------------------------------------ 
   It     Res. Norm  Remark
------------------------------------
                       Guess.
    1     7.084e-01  
    2     5.320e-01  
    3     2.011e-01  
    4     9.733e-02  
    5     1.995e-02  
    6     7.451e-03  
    7     1.181e-03  
    8     5.308e-04  
    9     1.574e-04  
   10     3.510e-05  
   11     6.244e-06  
   12     1.707e-06  
   13     1.543e-06  
   14     4.106e-07  Converged.
   ... Converged in 14 steps (norm: 4.10625e-07)
------------------------------------
  Starting TPA DIIS iterations ... 
------------------------------------ 
   It     Res. Norm  Remark
------------------------------------
                       Guess.
    1     5.633e+00  
    2     8.027e+00  
    3     1.337e+00  
    4     3.445e-01  
    5     9.777e-02  
    6     3.576e-02  
    7     1.117e-02  
    8     1.602e-03  
    9     5.867e-04  
   10     1.064e-04  
   11     3.122e-05  
   12     5.317e-06  
   13     1.450e-06  
   14     4.982e-07  Converged.
   ... Converged in 14 steps (norm: 4.98185e-07)
------------------------------------
  Starting TPA DIIS iterations ... 
------------------------------------ 
   It     Res. Norm  Remark
------------------------------------
                       Guess.
    1     5.359e+00  
    2     7.627e+00  
    3     1.273e+00  
    4     3.421e-01  
    5     9.750e-02  
    6     3.586e-02  
    7     1.097e-02  
    8     1.627e-03  
    9     5.959e-04  
   10     1.063e-04  
   11     3.165e-05  
   12     5.262e-06  
   13     1.480e-06  
   14     5.038e-07  Converged.
   ... Converged in 14 steps (norm: 5.03815e-07)
------------------------------------
  Starting TPA DIIS iterations ... 
------------------------------------ 
   It     Res. Norm  Remark
------------------------------------
                       Guess.
    1     7.088e-01  
    2     5.327e-01  
    3     2.016e-01  
    4     9.781e-02  
    5     2.000e-02  
    6     7.477e-03  
    7     1.186e-03  
    8     5.338e-04  
    9     1.585e-04  
   10     3.521e-05  
   11     6.276e-06  
   12     1.720e-06  
   13     1.556e-06  
   14     4.150e-07  Converged.
   ... Converged in 14 steps (norm: 4.14994e-07)
------------------------------------
  Starting TPA DIIS iterations ... 
------------------------------------ 
   It     Res. Norm  Remark
------------------------------------
                       Guess.
    1     6.834e+00  
    2     1.037e+01  
    3     1.652e+00  
    4     4.704e-01  
    5     1.369e-01  
    6     5.064e-02  
    7     1.570e-02  
    8     2.224e-03  
    9     8.359e-04  
   10     1.532e-04  
   11     4.666e-05  
   12     8.002e-06  
   13     2.236e-06  
   14     7.785e-07  Converged.
   ... Converged in 14 steps (norm: 7.78501e-07)
------------------------------------
  Starting TPA DIIS iterations ... 
------------------------------------ 
   It     Res. Norm  Remark
------------------------------------
                       Guess.
    1     6.499e+00  
    2     9.853e+00  
    3     1.572e+00  
    4     4.663e-01  
    5     1.366e-01  
    6     5.088e-02  
    7     1.542e-02  
    8     2.264e-03  
    9     8.497e-04  
   10     1.532e-04  
   11     4.721e-05  
   12     7.921e-06  
   13     2.300e-06  
   14     7.971e-07  Converged.
   ... Converged in 14 steps (norm: 7.97122e-07)
------------------------------------
  Starting TPA DIIS iterations ... 
------------------------------------ 
   It     Res. Norm  Remark
------------------------------------
                       Guess.
    1     7.427e-01  
    2     5.909e-01  
    3     2.373e-01  
    4     1.422e-01  
    5     2.478e-02  
    6     9.871e-03  
    7     1.719e-03  
    8     8.013e-04  
    9     2.526e-04  
   10     3.931e-05  
   11     9.486e-06  
   12     3.312e-06  
   13     2.951e-06  
   14     9.199e-07  Converged.
   ... Converged in 14 steps (norm: 9.19855e-07)
------------------------------------
  Starting TPA DIIS iterations ... 
------------------------------------ 
   It     Res. Norm  Remark
------------------------------------
                       Guess.
    1     6.980e+00  
    2     1.066e+01  
    3     1.690e+00  
    4     4.866e-01  
    5     1.419e-01  
    6     5.256e-02  
    7     1.628e-02  
    8     2.303e-03  
    9     8.681e-04  
   10     1.593e-04  
   11     4.869e-05  
   12     8.353e-06  
   13     2.342e-06  
   14     8.171e-07  Converged.
   ... Converged in 14 steps (norm: 8.17126e-07)
------------------------------------
  Starting TPA DIIS iterations ... 
------------------------------------ 
   It     Res. Norm  Remark
------------------------------------
                       Guess.
    1     6.637e+00  
    2     1.013e+01  
    3     1.608e+00  
    4     4.823e-01  
    5     1.416e-01  
    6     5.282e-02  
    7     1.599e-02  
    8     2.345e-03  
    9     8.825e-04  
   10     1.592e-04  
   11     4.925e-05  
   12     8.269e-06  
   13     2.411e-06  
   14     8.382e-07  Converged.
   ... Converged in 14 steps (norm: 8.38172e-07)
------------------------------------
  Starting TPA DIIS iterations ... 
------------------------------------ 
   It     Res. Norm  Remark
------------------------------------
                       Guess.
    1     7.464e-01  
    2     5.976e-01  
    3     2.415e-01  
    4     1.479e-01  
    5     2.539e-02  
    6     1.018e-02  
    7     1.790e-03  
    8     8.328e-04  
    9     2.639e-04  
   10     3.946e-05  
   11     9.957e-06  
   12     3.584e-06  
   13     3.155e-06  
   14     9.986e-07  Converged.
   ... Converged in 14 steps (norm: 9.98574e-07)
------------------------------------
  Starting TPA DIIS iterations ... 
------------------------------------ 
   It     Res. Norm  Remark
------------------------------------
                       Guess.
    1     7.713e+00  
    2     1.217e+01  
    3     1.880e+00  
    4     5.702e-01  
    5     1.679e-01  
    6     6.257e-02  
    7     1.928e-02  
    8     2.711e-03  
    9     1.036e-03  
   10     1.907e-04  
   11     5.934e-05  
   12     1.019e-05  
   13     2.906e-06  
   14     1.028e-06  
   15     3.506e-07  Converged.
   ... Converged in 15 steps (norm: 3.50612e-07)
------------------------------------
  Starting TPA DIIS iterations ... 
------------------------------------ 
   It     Res. Norm  Remark
------------------------------------
                       Guess.
    1     7.333e+00  
    2     1.156e+01  
    3     1.788e+00  
    4     5.645e-01  
    5     1.677e-01  
    6     6.293e-02  
    7     1.894e-02  
    8     2.764e-03  
    9     1.053e-03  
   10     1.906e-04  
   11     5.997e-05  
   12     1.009e-05  
   13     3.005e-06  
   14     1.064e-06  
   15     3.703e-07  Converged.
   ... Converged in 15 steps (norm: 3.70261e-07)
------------------------------------
  Starting TPA DIIS iterations ... 
------------------------------------ 
   It     Res. Norm  Remark
------------------------------------
                       Guess.
    1     7.636e-01  
    2     6.299e-01  
    3     2.621e-01  
    4     1.778e-01  
    5     2.850e-02  
    6     1.174e-02  
    7     2.168e-03  
    8     9.805e-04  
    9     3.191e-04  
   10     4.056e-05  
   11     1.265e-05  
   12     5.253e-06  
   13     4.297e-06  
   14     1.450e-06  
   15     7.961e-07  Converged.
   ... Converged in 15 steps (norm: 7.9615e-07)
------------------------------------
  Starting TPA DIIS iterations ... 
------------------------------------ 
   It     Res. Norm  Remark
------------------------------------
                       Guess.
    1     1.242e+01  
    2     2.280e+01  
    3     3.055e+00  
    4     1.179e+00  
    5     3.604e-01  
    6     1.380e-01  
    7     4.131e-02  
    8     5.652e-03  
    9     2.296e-03  
   10     4.243e-04  
   11     1.392e-04  
   12     2.398e-05  
   13     7.605e-06  
   14     3.258e-06  
   15     1.140e-06  
   16     4.952e-07  Converged.
   ... Converged in 16 steps (norm: 4.95223e-07)
------------------------------------
  Starting TPA DIIS iterations ... 
------------------------------------ 
   It     Res. Norm  Remark
------------------------------------
                       Guess.
    1     1.180e+01  
    2     2.166e+01  
    3     2.904e+00  
    4     1.161e+00  
    5     3.604e-01  
    6     1.393e-01  
    7     4.058e-02  
    8     5.787e-03  
    9     2.338e-03  
   10     4.247e-04  
   11     1.403e-04  
   12     2.414e-05  
   13     8.120e-06  
   14     3.587e-06  
   15     1.248e-06  
   16     5.676e-07  Converged.
   ... Converged in 16 steps (norm: 5.67627e-07)
------------------------------------
  Starting TPA DIIS iterations ... 
------------------------------------ 
   It     Res. Norm  Remark
------------------------------------
                       Guess.
    1     8.438e-01  
    2     8.051e-01  
    3     3.816e-01  
    4     3.696e-01  
    5     5.046e-02  
    6     2.193e-02  
    7     5.061e-03  
    8     1.460e-03  
    9     6.233e-04  
   10     8.913e-05  
   11     4.636e-05  
   12     2.371e-05  
   13     1.543e-05  
   14     5.633e-06  
   15     2.991e-06  
   16     7.802e-07  Converged.
   ... Converged in 16 steps (norm: 7.80193e-07)
------------------------------------
  Starting TPA DIIS iterations ... 
------------------------------------ 
   It     Res. Norm  Remark
------------------------------------
                       Guess.
    1     1.304e+01  
    2     2.432e+01  
    3     3.205e+00  
    4     1.267e+00  
    5     3.887e-01  
    6     1.492e-01  
    7     4.452e-02  
    8     6.077e-03  
    9     2.484e-03  
   10     4.586e-04  
   11     1.507e-04  
   12     2.603e-05  
   13     8.365e-06  
   14     3.696e-06  
   15     1.282e-06  
   16     5.748e-07  Converged.
   ... Converged in 16 steps (norm: 5.74807e-07)
------------------------------------
  Starting TPA DIIS iterations ... 
------------------------------------ 
   It     Res. Norm  Remark
------------------------------------
                       Guess.
    1     1.239e+01  
    2     2.310e+01  
    3     3.048e+00  
    4     1.247e+00  
    5     3.887e-01  
    6     1.507e-01  
    7     4.374e-02  
    8     6.224e-03  
    9     2.530e-03  
   10     4.592e-04  
   11     1.520e-04  
   12     2.630e-05  
   13     8.976e-06  
   14     4.095e-06  
   15     1.405e-06  
   16     6.578e-07  Converged.
   ... Converged in 16 steps (norm: 6.57793e-07)
------------------------------------
  Starting TPA DIIS iterations ... 
------------------------------------ 
   It     Res. Norm  Remark
------------------------------------
                       Guess.
    1     8.520e-01  
    2     8.257e-01  
    3     3.960e-01  
    4     3.916e-01  
    5     5.353e-02  
    6     2.316e-02  
    7     5.475e-03  
    8     1.489e-03  
    9     6.606e-04  
   10     9.987e-05  
   11     5.336e-05  
   12     2.585e-05  
   13     1.714e-05  
   14     6.090e-06  
   15     3.252e-06  
   16     7.939e-07  Converged.
   ... Converged in 16 steps (norm: 7.93857e-07)
------------------------------------
  Starting TPA DIIS iterations ... 
------------------------------------ 
   It     Res. Norm  Remark
------------------------------------
                       Guess.
    1     1.430e+01  
    2     2.747e+01  
    3     3.507e+00  
    4     1.448e+00  
    5     4.474e-01  
    6     1.726e-01  
    7     5.120e-02  
    8     6.953e-03  
    9     2.875e-03  
   10     5.299e-04  
   11     1.745e-04  
   12     3.034e-05  
   13     1.001e-05  
   14     4.701e-06  
   15     1.600e-06  
   16     7.565e-07  Converged.
   ... Converged in 16 steps (norm: 7.56496e-07)
------------------------------------
  Starting TPA DIIS iterations ... 
------------------------------------ 
   It     Res. Norm  Remark
------------------------------------
                       Guess.
    1     1.359e+01  
    2     2.610e+01  
    3     3.334e+00  
    4     1.423e+00  
    5     4.473e-01  
    6     1.744e-01  
    7     5.029e-02  
    8     7.128e-03  
    9     2.929e-03  
   10     5.308e-04  
   11     1.762e-04  
   12     3.091e-05  
   13     1.086e-05  
   14     5.270e-06  
   15     1.749e-06  
   16     8.594e-07  Converged.
   ... Converged in 16 steps (norm: 8.59395e-07)
------------------------------------
  Starting TPA DIIS iterations ... 
------------------------------------ 
   It     Res. Norm  Remark
------------------------------------
                       Guess.
    1     8.673e-01  
    2     8.658e-01  
    3     4.245e-01  
    4     4.322e-01  
    5     5.979e-02  
    6     2.552e-02  
    7     6.316e-03  
    8     1.546e-03  
    9     7.358e-04  
   10     1.240e-04  
   11     6.957e-05  
   12     2.903e-05  
   13     2.051e-05  
   14     6.639e-06  
   15     3.564e-06  
   16     6.346e-07  Converged.
   ... Converged in 16 steps (norm: 6.34591e-07)
------------------------------------
  Starting TPA DIIS iterations ... 
------------------------------------ 
   It     Res. Norm  Remark
------------------------------------
                       Guess.
    1     2.043e+01  
    2     4.402e+01  
    3     4.910e+00  
    4     2.369e+00  
    5     7.569e-01  
    6     2.984e-01  
    7     8.632e-02  
    8     1.153e-02  
    9     4.976e-03  
   10     9.060e-04  
   11     2.985e-04  
   12     5.538e-05  
   13     2.071e-05  
   14     1.221e-05  
   15     3.803e-06  
   16     1.937e-06  
   17     3.960e-07  Converged.
   ... Converged in 17 steps (norm: 3.96023e-07)
------------------------------------
  Starting TPA DIIS iterations ... 
------------------------------------ 
   It     Res. Norm  Remark
------------------------------------
                       Guess.
    1     1.940e+01  
    2     4.181e+01  
    3     4.667e+00  
    4     2.317e+00  
    5     7.569e-01  
    6     3.021e-01  
    7     8.477e-02  
    8     1.186e-02  
    9     5.082e-03  
   10     9.099e-04  
   11     3.041e-04  
   12     5.942e-05  
   13     2.354e-05  
   14     1.425e-05  
   15     4.047e-06  
   16     2.056e-06  
   17     3.817e-07  Converged.
   ... Converged in 17 steps (norm: 3.81673e-07)
------------------------------------
  Starting TPA DIIS iterations ... 
------------------------------------ 
   It     Res. Norm  Remark
------------------------------------
                       Guess.
    1     9.276e-01  
    2     1.045e+00  
    3     5.493e-01  
    4     5.651e-01  
    5     9.062e-02  
    6     3.399e-02  
    7     1.034e-02  
    8     2.026e-03  
    9     1.120e-03  
   10     2.915e-04  
   11     1.918e-04  
   12     2.808e-05  
   13     2.944e-05  
   14     4.889e-06  
   15     1.196e-06  
   16     8.321e-07  Converged.
   ... Converged in 16 steps (norm: 8.32149e-07)
------------------------------------
  Two-photon absorbption ...  CPU 163.34 s  wall 44.94 s
  Transition density matrix of state singlet_A_1 printed to ASCII file 'State_singlet_A_1_Transition.txt'
  Transition density matrix of state singlet_A_2 printed to ASCII file 'State_singlet_A_2_Transition.txt'
  Transition density matrix of state singlet_A_3 printed to ASCII file 'State_singlet_A_3_Transition.txt'
  Transition density matrix of state singlet_A_4 printed to ASCII file 'State_singlet_A_4_Transition.txt'
  Transition density matrix of state singlet_A_5 printed to ASCII file 'State_singlet_A_5_Transition.txt'
  Transition density matrix of state singlet_A_6 printed to ASCII file 'State_singlet_A_6_Transition.txt'
  Transition density matrix of state singlet_A_7 printed to ASCII file 'State_singlet_A_7_Transition.txt'
  Transition density matrix of state singlet_A_8 printed to ASCII file 'State_singlet_A_8_Transition.txt'
  Transition density matrix of state singlet_A_9 printed to ASCII file 'State_singlet_A_9_Transition.txt'
  Transition density matrix of state singlet_A_10 printed to ASCII file 'State_singlet_A_10_Transition.txt'
  Transition properties ...  CPU 0.34 s  wall 0.52 s
  Difference density matrix of state singlet_A_1 printed to ASCII file 'State_singlet_A_1_Difference.txt'
  Total density matrix of state singlet_A_1 printed to ASCII file 'State_singlet_A_1_Total.txt'
  Difference density matrix of state singlet_A_2 printed to ASCII file 'State_singlet_A_2_Difference.txt'
  Total density matrix of state singlet_A_2 printed to ASCII file 'State_singlet_A_2_Total.txt'
  Difference density matrix of state singlet_A_3 printed to ASCII file 'State_singlet_A_3_Difference.txt'
  Total density matrix of state singlet_A_3 printed to ASCII file 'State_singlet_A_3_Total.txt'
  Difference density matrix of state singlet_A_4 printed to ASCII file 'State_singlet_A_4_Difference.txt'
  Total density matrix of state singlet_A_4 printed to ASCII file 'State_singlet_A_4_Total.txt'
  Difference density matrix of state singlet_A_5 printed to ASCII file 'State_singlet_A_5_Difference.txt'
  Total density matrix of state singlet_A_5 printed to ASCII file 'State_singlet_A_5_Total.txt'
  Difference density matrix of state singlet_A_6 printed to ASCII file 'State_singlet_A_6_Difference.txt'
  Total density matrix of state singlet_A_6 printed to ASCII file 'State_singlet_A_6_Total.txt'
  Difference density matrix of state singlet_A_7 printed to ASCII file 'State_singlet_A_7_Difference.txt'
  Total density matrix of state singlet_A_7 printed to ASCII file 'State_singlet_A_7_Total.txt'
  Difference density matrix of state singlet_A_8 printed to ASCII file 'State_singlet_A_8_Difference.txt'
  Total density matrix of state singlet_A_8 printed to ASCII file 'State_singlet_A_8_Total.txt'
  Difference density matrix of state singlet_A_9 printed to ASCII file 'State_singlet_A_9_Difference.txt'
  Total density matrix of state singlet_A_9 printed to ASCII file 'State_singlet_A_9_Total.txt'
  Difference density matrix of state singlet_A_10 printed to ASCII file 'State_singlet_A_10_Difference.txt'
  Total density matrix of state singlet_A_10 printed to ASCII file 'State_singlet_A_10_Total.txt'
  Properties ...  CPU 0.63 s  wall 0.88 s
  ISR TDMS ...  CPU 29.06 s  wall 9.18 s
  ISR transition properties ...  CPU 0.55 s  wall 0.27 s
  Sum-over-states TPA ...  CPU 0.00 s  wall 0.00 s

--------------------------------------------------------------------------------
                   State-averaged natural transition orbitals
--------------------------------------------------------------------------------
--------------------------------------------------------------------------------
  SA-NTO decomposition ...  CPU 0.01 s  wall 0.03 s

--------------------------------------------------------------------------------
                             Excited State Summary
--------------------------------------------------------------------------------
--------------------------------------------------------------------------------

  Excited state 1 (singlet, A)                                     [converged]
  ----------------------------------------------------------------------------
  Term symbol:  2 (1) A                                     R^2 =  1.59626e-13

  Total energy:                                            -78.0026204382 a.u.
  Excitation energy:                                               8.469465 eV

  Osc. strength:                                                      0.428765
  Trans. dip. moment [a.u.]:           [   1.042290,   -0.989897,   -0.009614]
  <i|r^2|0> [a.u.]:                    [   6.150542,   -0.244261,    0.000106]
  Two-photon absorption cross-section (SoS) [a.u.]:                   0.000000
  Two-photon absorption matrix (SoS) [a.u.]:
                                       |    0.000076    0.000079   -0.000015 |
                                       |    0.000079    0.000077   -0.000029 |
                                       |   -0.000015   -0.000029   -0.000059 |
  Two-photon absorption cross-section [a.u.]:                         0.000000
  Two-photon absorption matrix [a.u.]:
                                       |    0.000015    0.000040   -0.000113 |
                                       |    0.000040    0.000001   -0.000095 |
                                       |   -0.000113   -0.000095   -0.000089 |

  Dip. moment [a.u.]:                  [  -0.000002,   -0.000002,    0.000021]
  Total dipole [Debye]:                                               0.000053
  <r^2> [a.u.]:                        [ 176.229627,   35.589238,   11.774092]
  Total <r^2> [a.u.]:                                               223.592956

  V1^2 = 0.9717, V2^2 = 0.0283

  Important amplitudes:
      occ i     occ j     vir a      vir b          v   
    -----------------------------------------------------
     8 (A) A              9 (A) A                 0.6812
     6 (A) A             14 (A) A                -0.0694
     7 (A) A             16 (A) A                -0.0556
     4 (A) A             10 (A) A                 0.0552
     5 (A) A             13 (A) A                 0.0474
     6 (A) A             23 (A) A                -0.0471
     6 (A) A             19 (A) A                 0.0387
     8 (A) A             20 (A) A                 0.0358
     3 (A) A             12 (A) A                -0.0281
     7 (A) A             11 (A) A                -0.0232
     5 (A) A             22 (A) A                 0.0200
     8 (A) A   8 (A) B   17 (A) A   20 (A) B     -0.0186
     3 (A) A             26 (A) A                -0.0181
     4 (A) A             24 (A) A                 0.0180
     8 (A) A   8 (A) B    9 (A) A   28 (A) B     -0.0170
     6 (A) A             26 (A) A                -0.0161
     3 (A) A             14 (A) A                -0.0138
     3 (A) A   4 (A) B    9 (A) A    9 (A) B     -0.0130
     7 (A) A             21 (A) A                -0.0125
     3 (A) A             19 (A) A                 0.0124
     8 (A) A   8 (A) B   18 (A) A   19 (A) B     -0.0117
     7 (A) A             32 (A) A                -0.0093
     7 (A) A             36 (A) A                -0.0086
     8 (A) A   8 (A) B   25 (A) A   29 (A) B     -0.0078
     6 (A) A             35 (A) A                 0.0075
     6 (A) A             40 (A) A                -0.0068
     3 (A) A             23 (A) A                -0.0068
     6 (A) A   8 (A) A   19 (A) A   28 (A) A      0.0068
     3 (A) A   6 (A) B    9 (A) A   28 (A) B     -0.0066
     5 (A) A   7 (A) B    9 (A) A    9 (A) B      0.0060
     6 (A) A   8 (A) A    9 (A) A   18 (A) A     -0.0058
     5 (A) A   8 (A) B   11 (A) A   20 (A) B     -0.0058
     7 (A) A   8 (A) B   13 (A) A   20 (A) B      0.0057
     5 (A) A   8 (A) B   16 (A) A    9 (A) B     -0.0057
     6 (A) A             12 (A) A                 0.0057
     3 (A) A   5 (A) B    9 (A) A   25 (A) B     -0.0057
     7 (A) A   8 (A) B   22 (A) A   20 (A) B      0.0056
     8 (A) A   8 (A) B   19 (A) A   30 (A) B     -0.0055
     3 (A) A             40 (A) A                -0.0055
     6 (A) A   8 (A) B   15 (A) A   20 (A) B     -0.0052
    -----------------------------------------------------

  Density matrix analysis:
  ------------------------
  NOs
    Occupation of frontier NOs:
       0.9500   1.0212
    Number of electrons: 16.000000
    Number of unpaired electrons: n_u =  2.30863, n_u,nl =  2.03258
    NO participation ratio (PR_NO):  2.849311
  
  
  Mulliken Population Analysis
  Atom      Charge (e)              h+              e-           Del q
  --------------------------------------------------------------------
   1 H        0.048643        0.018986       -0.012495        0.006491
   2 C       -0.097239        0.488702       -0.501684       -0.012982
   3 H        0.048614        0.018987       -0.012494        0.006492
   4 C       -0.097293        0.488702       -0.501687       -0.012985
   5 H        0.048623        0.018987       -0.012494        0.006493
   6 H        0.048651        0.018986       -0.012495        0.006491
  --------------------------------------------------------------------
  Sum:        0.000000        1.053349       -1.053349       -0.000000
  
  Multipole moment analysis of the density matrix
    Molecular charge:                      0.000000
    Number of electrons:                   16.000000
      Center of electronic charge [Ang]: [ -1.561338,  -0.065287,   0.002126]
    Total nuclear charge:                  16.000000
      Center of nuclear charge [Ang]:    [ -1.561338,  -0.065287,   0.002127]
    Dipole moment [D]:                     0.000053
      Cartesian components [D]:          [ -0.000004,  -0.000006,   0.000053]
    RMS size of the density [Ang]:         1.212944
      Cartesian components [Ang]:        [  0.804088,   0.786519,   0.453942]
  
  Exciton analysis of the difference density matrix
    <r_h> [Ang]:                  [ -1.561334,  -0.065289,   0.002119]
    <r_e> [Ang]:                  [ -1.561334,  -0.065289,   0.002116]
    |<r_e - r_h>| [Ang]:            0.000003
    Hole size [Ang]:                1.287250
      Cartesian components [Ang]: [  0.728453,   0.712534,   0.786553]
    Electron size [Ang]:            1.460855
      Cartesian components [Ang]: [  0.853425,   0.830403,   0.846282]

  Transition density matrix analysis:
  -----------------------------------
  
  CT numbers (Mulliken)
    omega =     0.9542
    <Phe> =    -0.1702
  
  Exciton analysis of the transition density matrix
    Trans. dipole moment [D]:             1.826858
      Cartesian components [D]:         [  1.324618,  -1.258033,  -0.012219]
    <r_h> [Ang]:                        [ -1.561332,  -0.065291,   0.002120]
    <r_e> [Ang]:                        [ -1.561335,  -0.065288,   0.002115]
    |<r_e - r_h>| [Ang]:                  0.000007
    Hole size [Ang]:                      1.225395
      Cartesian components [Ang]:       [  0.657733,   0.644311,   0.808606]
    Electron size [Ang]:                  1.480039
      Cartesian components [Ang]:       [  0.862178,   0.837573,   0.863503]
    RMS electron-hole separation [Ang]:   1.946489
      Cartesian components [Ang]:       [  1.115904,   1.084553,   1.169327]
    Covariance(r_h, r_e) [Ang^2]:        -0.048356
    Correlation coefficient:             -0.026663
    Center-of-mass size [Ang]:            0.948077
      Cartesian components [Ang]:       [  0.525996,   0.514071,   0.598255]

  Decomposition into state-averaged NTOs
    H- 0 -> L+ 0:  0.6698 ( 89.7%)
    H- 2 -> L+ 5: -0.0902 (  1.6%)
    H- 5 -> L+ 6: -0.0740 (  1.1%)
                   omega =  95.4%
  ----------------------------------------------------------------------------


  Excited state 2 (singlet, A)                                     [converged]
  ----------------------------------------------------------------------------
  Term symbol:  3 (1) A                                     R^2 =  6.34030e-14

  Total energy:                                            -77.9771820740 a.u.
  Excitation energy:                                               9.161678 eV

  Osc. strength:                                                      0.031075
  Trans. dip. moment [a.u.]:           [   0.017766,    0.022460,   -0.370980]
  <i|r^2|0> [a.u.]:                    [   0.104671,    0.005713,    0.002959]
  Two-photon absorption cross-section (SoS) [a.u.]:                   0.000011
  Two-photon absorption matrix (SoS) [a.u.]:
                                       |   -0.001097   -0.000010   -0.000301 |
                                       |   -0.000010    0.001146   -0.000046 |
                                       |   -0.000301   -0.000046    0.000130 |
  Two-photon absorption cross-section [a.u.]:                         0.000006
  Two-photon absorption matrix [a.u.]:
                                       |   -0.000747   -0.000039   -0.000155 |
                                       |   -0.000039    0.000865    0.000072 |
                                       |   -0.000155    0.000072    0.000104 |

  Dip. moment [a.u.]:                  [   0.000288,   -0.000001,   -0.000008]
  Total dipole [Debye]:                                               0.000731
  <r^2> [a.u.]:                        [ 181.047204,   40.622296,   11.036549]
  Total <r^2> [a.u.]:                                               232.706048

  V1^2 = 0.9603, V2^2 = 0.0397

  Important amplitudes:
      occ i     occ j     vir a      vir b          v   
    -----------------------------------------------------
     8 (A) A             10 (A) A                 0.6900
     8 (A) A             24 (A) A                 0.0501
     8 (A) A             18 (A) A                -0.0269
     8 (A) A   8 (A) B    9 (A) A   12 (A) B     -0.0220
     4 (A) A              9 (A) A                 0.0209
     8 (A) A             15 (A) A                 0.0178
     8 (A) A   8 (A) B   10 (A) A   17 (A) B      0.0172
     5 (A) A   8 (A) B   11 (A) A   10 (A) B      0.0157
     7 (A) A   8 (A) B   13 (A) A   10 (A) B     -0.0137
     6 (A) A   8 (A) A   10 (A) A   15 (A) A     -0.0108
     4 (A) A   8 (A) B   12 (A) A   10 (A) B     -0.0107
     6 (A) A   8 (A) B   15 (A) A   10 (A) B      0.0106
     7 (A) A   8 (A) B   22 (A) A   10 (A) B     -0.0105
     4 (A) A   8 (A) A   10 (A) A   12 (A) A      0.0101
     7 (A) A   8 (A) A   10 (A) A   22 (A) A      0.0097
     7 (A) A   8 (A) A   10 (A) A   13 (A) A      0.0095
     5 (A) A   8 (A) B   21 (A) A   10 (A) B      0.0095
     6 (A) A   8 (A) A   10 (A) A   18 (A) A     -0.0089
     5 (A) A   8 (A) A   10 (A) A   11 (A) A     -0.0088
     5 (A) A   8 (A) A   10 (A) A   21 (A) A     -0.0081
     8 (A) A   8 (A) B    9 (A) A   23 (A) B      0.0080
     3 (A) A   4 (A) B   10 (A) A    9 (A) B     -0.0079
     6 (A) A   8 (A) B   10 (A) A   10 (A) B     -0.0079
     7 (A) A   8 (A) A   12 (A) A   16 (A) A      0.0077
     3 (A) A   8 (A) B   10 (A) A   10 (A) B      0.0073
     8 (A) A   8 (A) B   10 (A) A   28 (A) B     -0.0072
     4 (A) A   8 (A) B   19 (A) A   10 (A) B      0.0071
     3 (A) A   8 (A) A   10 (A) A   24 (A) A     -0.0071
     3 (A) A   8 (A) B   10 (A) A   18 (A) B     -0.0070
     5 (A) A   8 (A) B   10 (A) A   11 (A) B      0.0068
     7 (A) A   8 (A) B   16 (A) A   12 (A) B     -0.0068
     6 (A) A   8 (A) B   18 (A) A   10 (A) B      0.0067
     3 (A) A   6 (A) B   10 (A) A   28 (A) B     -0.0064
     3 (A) A   8 (A) A   10 (A) A   18 (A) A     -0.0057
     6 (A) A   8 (A) A   12 (A) A   14 (A) A      0.0057
     8 (A) A   8 (A) B    9 (A) A   19 (A) B      0.0056
     3 (A) A   5 (A) B   10 (A) A   25 (A) B     -0.0055
     4 (A) A   8 (A) A   10 (A) A   23 (A) A     -0.0055
     6 (A) A   8 (A) B   14 (A) A   12 (A) B     -0.0055
     7 (A) A   8 (A) B   12 (A) A   11 (A) B      0.0053
    -----------------------------------------------------

  Density matrix analysis:
  ------------------------
  NOs
    Occupation of frontier NOs:
       0.9811   0.9855
    Number of electrons: 16.000000
    Number of unpaired electrons: n_u =  2.27938, n_u,nl =  2.02346
    NO participation ratio (PR_NO):  2.677936
  
  
  Mulliken Population Analysis
  Atom      Charge (e)              h+              e-           Del q
  --------------------------------------------------------------------
   1 H       -0.188480        0.052157       -0.282788       -0.230632
   2 C        0.377066        0.539171       -0.077848        0.461323
   3 H       -0.188540        0.052154       -0.282816       -0.230662
   4 C        0.377038        0.539193       -0.077847        0.461346
   5 H       -0.188520        0.052151       -0.282801       -0.230650
   6 H       -0.188565        0.052160       -0.282885       -0.230725
  --------------------------------------------------------------------
  Sum:        0.000000        1.286986       -1.286986       -0.000000
  
  Multipole moment analysis of the density matrix
    Molecular charge:                      0.000000
    Number of electrons:                   16.000000
      Center of electronic charge [Ang]: [ -1.561347,  -0.065287,   0.002127]
    Total nuclear charge:                  16.000000
      Center of nuclear charge [Ang]:    [ -1.561338,  -0.065287,   0.002127]
    Dipole moment [D]:                     0.000731
      Cartesian components [D]:          [  0.000731,  -0.000001,  -0.000021]
    RMS size of the density [Ang]:         1.276988
      Cartesian components [Ang]:        [  0.854894,   0.840655,   0.439494]
  
  Exciton analysis of the difference density matrix
    <r_h> [Ang]:                  [ -1.561352,  -0.065285,   0.002122]
    <r_e> [Ang]:                  [ -1.561471,  -0.065286,   0.002131]
    |<r_e - r_h>| [Ang]:            0.000119
    Hole size [Ang]:                1.415527
      Cartesian components [Ang]: [  0.836043,   0.821704,   0.793444]
    Electron size [Ang]:            2.092054
      Cartesian components [Ang]: [  1.381532,   1.385339,   0.740876]

  Transition density matrix analysis:
  -----------------------------------
  
  CT numbers (Mulliken)
    omega =     0.9268
    <Phe> =    -0.0108
  
  Exciton analysis of the transition density matrix
    Trans. dipole moment [D]:             0.472871
      Cartesian components [D]:         [  0.022578,   0.028543,  -0.471468]
    <r_h> [Ang]:                        [ -1.561338,  -0.065296,   0.002118]
    <r_e> [Ang]:                        [ -1.561516,  -0.065289,   0.002133]
    |<r_e - r_h>| [Ang]:                  0.000178
    Hole size [Ang]:                      1.226182
      Cartesian components [Ang]:       [  0.646231,   0.633160,   0.827656]
    Electron size [Ang]:                  2.309836
      Cartesian components [Ang]:       [  1.523870,   1.530477,   0.819024]
    RMS electron-hole separation [Ang]:   2.604934
      Cartesian components [Ang]:       [  1.647533,   1.649103,   1.162660]
    Covariance(r_h, r_e) [Ang^2]:         0.026590
    Correlation coefficient:              0.009388
    Center-of-mass size [Ang]:            1.312635
      Cartesian components [Ang]:       [  0.831448,   0.831710,   0.583064]

  Decomposition into state-averaged NTOs
    H- 0 -> L+ 1: -0.6802 ( 92.5%)
                   omega =  92.7%
  ----------------------------------------------------------------------------


  Excited state 3 (singlet, A)                                     [converged]
  ----------------------------------------------------------------------------
  Term symbol:  4 (1) A                                     R^2 =  5.18582e-14

  Total energy:                                            -77.9767800116 a.u.
  Excitation energy:                                               9.172618 eV

  Osc. strength:                                                      0.000000
  Trans. dip. moment [a.u.]:           [  -0.000188,    0.000174,   -0.000074]
  <i|r^2|0> [a.u.]:                    [  -0.065760,   -0.084979,    0.149676]
  Two-photon absorption cross-section (SoS) [a.u.]:                   5.288666
  Two-photon absorption matrix (SoS) [a.u.]:
                                       |   -0.053978   -0.061822    0.555940 |
                                       |   -0.061822   -0.070257    0.580130 |
                                       |    0.555940    0.580130    0.124231 |
  Two-photon absorption cross-section [a.u.]:                         0.000644
  Two-photon absorption matrix [a.u.]:
                                       |   -0.000046    0.000650   -0.006648 |
                                       |    0.000650    0.001397   -0.005832 |
                                       |   -0.006648   -0.005832   -0.001352 |

  Dip. moment [a.u.]:                  [  -0.000226,    0.000001,    0.000026]
  Total dipole [Debye]:                                               0.000579
  <r^2> [a.u.]:                        [ 174.621206,   33.995695,   13.123604]
  Total <r^2> [a.u.]:                                               221.740505

  V1^2 = 0.9531, V2^2 = 0.0469

  Important amplitudes:
      occ i     occ j     vir a      vir b          v   
    -----------------------------------------------------
     7 (A) A              9 (A) A                -0.6720
     8 (A) A             11 (A) A                 0.1338
     7 (A) A             20 (A) A                -0.0757
     5 (A) A   8 (A) B    9 (A) A    9 (A) B     -0.0335
     8 (A) A             16 (A) A                -0.0251
     8 (A) A             21 (A) A                 0.0165
     5 (A) A             28 (A) A                -0.0152
     5 (A) A   7 (A) B    9 (A) A   16 (A) B     -0.0134
     4 (A) A   7 (A) B    9 (A) A   19 (A) B      0.0132
     7 (A) A   8 (A) B   20 (A) A   17 (A) B      0.0104
     5 (A) A   6 (A) B    9 (A) A   19 (A) B      0.0099
     7 (A) A   8 (A) A    9 (A) A   28 (A) A     -0.0099
     5 (A) A   8 (A) B    9 (A) A   20 (A) B     -0.0098
     5 (A) A   6 (A) A    9 (A) A   14 (A) A     -0.0098
     4 (A) A   6 (A) B    9 (A) A   16 (A) B     -0.0091
     5 (A) A   6 (A) A    9 (A) A   23 (A) A     -0.0091
     8 (A) A   7 (A) B    9 (A) A   28 (A) B      0.0086
     4 (A) A   5 (A) A    9 (A) A   10 (A) A     -0.0082
     3 (A) A   7 (A) B    9 (A) A   18 (A) B     -0.0082
     5 (A) A   7 (A) A    9 (A) A   16 (A) A     -0.0082
     4 (A) A   8 (A) B    9 (A) A   25 (A) B     -0.0077
     6 (A) A   7 (A) B    9 (A) A   18 (A) B      0.0077
     5 (A) A   6 (A) B    9 (A) A   23 (A) B     -0.0076
     7 (A) A   8 (A) B   17 (A) A   20 (A) B      0.0076
     5 (A) A   6 (A) B    9 (A) A   14 (A) B     -0.0076
     7 (A) A   8 (A) B   19 (A) A   18 (A) B      0.0073
     5 (A) A   5 (A) B    9 (A) A   13 (A) B      0.0072
     5 (A) A   8 (A) A    9 (A) A   20 (A) A     -0.0071
     4 (A) A   7 (A) B   19 (A) A    9 (A) B      0.0071
     7 (A) A   8 (A) B   17 (A) A    9 (A) B      0.0071
     4 (A) A   5 (A) B    9 (A) A   18 (A) B      0.0066
     7 (A) A   7 (A) B   20 (A) A   22 (A) B     -0.0064
     6 (A) A   7 (A) A   19 (A) A   28 (A) A     -0.0063
     4 (A) A   5 (A) B   10 (A) A    9 (A) B      0.0062
     4 (A) A   7 (A) A    9 (A) A   19 (A) A      0.0061
     5 (A) A             37 (A) A                -0.0060
     4 (A) A   5 (A) B    9 (A) A   15 (A) B     -0.0058
     5 (A) A             17 (A) A                -0.0058
     4 (A) A   8 (A) A    9 (A) A   25 (A) A     -0.0057
     5 (A) A   7 (A) B   11 (A) A   20 (A) B      0.0057
    -----------------------------------------------------

  Density matrix analysis:
  ------------------------
  NOs
    Occupation of frontier NOs:
       0.9683   1.0471
    Number of electrons: 16.000000
    Number of unpaired electrons: n_u =  2.35370, n_u,nl =  2.05707
    NO participation ratio (PR_NO):  2.974276
  
  
  Mulliken Population Analysis
  Atom      Charge (e)              h+              e-           Del q
  --------------------------------------------------------------------
   1 H        0.144150        0.124435       -0.022436        0.101998
   2 C       -0.288117        0.273679       -0.477540       -0.203861
   3 H        0.143951        0.124187       -0.022358        0.101829
   4 C       -0.288160        0.273725       -0.477578       -0.203853
   5 H        0.143948        0.124223       -0.022406        0.101817
   6 H        0.144229        0.124457       -0.022388        0.102069
  --------------------------------------------------------------------
  Sum:        0.000000        1.044706       -1.044706        0.000000
  
  Multipole moment analysis of the density matrix
    Molecular charge:                      0.000000
    Number of electrons:                   16.000000
      Center of electronic charge [Ang]: [ -1.561330,  -0.065287,   0.002126]
    Total nuclear charge:                  16.000000
      Center of nuclear charge [Ang]:    [ -1.561338,  -0.065287,   0.002127]
    Dipole moment [D]:                     0.000579
      Cartesian components [D]:          [ -0.000575,   0.000003,   0.000065]
    RMS size of the density [Ang]:         1.199514
      Cartesian components [Ang]:        [  0.786403,   0.768585,   0.479251]
  
  Exciton analysis of the difference density matrix
    <r_h> [Ang]:                  [ -1.561406,  -0.065210,   0.002130]
    <r_e> [Ang]:                  [ -1.561292,  -0.065211,   0.002125]
    |<r_e - r_h>| [Ang]:            0.000114
    Hole size [Ang]:                1.471866
      Cartesian components [Ang]: [  0.998256,   0.984354,   0.448241]
    Electron size [Ang]:            1.466708
      Cartesian components [Ang]: [  0.874681,   0.851576,   0.813009]

  Transition density matrix analysis:
  -----------------------------------
  
  CT numbers (Mulliken)
    omega =     0.9201
    <Phe> =    -0.0140
  
  Exciton analysis of the transition density matrix
    Trans. dipole moment [D]:             0.000338
      Cartesian components [D]:         [ -0.000238,   0.000221,  -0.000094]
    <r_h> [Ang]:                        [ -1.561420,  -0.065203,   0.002132]
    <r_e> [Ang]:                        [ -1.561274,  -0.065214,   0.002124]
    |<r_e - r_h>| [Ang]:                  0.000146
    Hole size [Ang]:                      1.497918
      Cartesian components [Ang]:       [  1.020816,   1.006800,   0.433645]
    Electron size [Ang]:                  1.466189
      Cartesian components [Ang]:       [  0.866846,   0.843019,   0.829221]
    RMS electron-hole separation [Ang]:   2.076084
      Cartesian components [Ang]:       [  1.323139,   1.298092,   0.935086]
    Covariance(r_h, r_e) [Ang^2]:         0.041673
    Correlation coefficient:              0.018975
    Center-of-mass size [Ang]:            1.057924
      Cartesian components [Ang]:       [  0.677547,   0.664005,   0.468221]

  Decomposition into state-averaged NTOs
    H- 1 -> L+ 0: -0.6640 ( 88.2%)
    H- 0 -> L+ 2:  0.1337 (  3.6%)
                   omega =  92.0%
  ----------------------------------------------------------------------------


  Excited state 4 (singlet, A)                                     [converged]
  ----------------------------------------------------------------------------
  Term symbol:  5 (1) A                                     R^2 =  9.33742e-14

  Total energy:                                            -77.9471429272 a.u.
  Excitation energy:                                               9.979085 eV

  Osc. strength:                                                      0.000000
  Trans. dip. moment [a.u.]:           [   0.000106,   -0.000100,   -0.000004]
  <i|r^2|0> [a.u.]:                    [  -0.020182,   -0.027510,    0.048292]
  Two-photon absorption cross-section (SoS) [a.u.]:                 202.344465
  Two-photon absorption matrix (SoS) [a.u.]:
                                       |   -0.332328   -0.382196    3.426370 |
                                       |   -0.382196   -0.436339    3.600157 |
                                       |    3.426370    3.600157    0.768666 |
  Two-photon absorption cross-section [a.u.]:                       133.856972
  Two-photon absorption matrix [a.u.]:
                                       |   -0.270897   -0.310902    2.788118 |
                                       |   -0.310902   -0.354272    2.926943 |
                                       |    2.788118    2.926943    0.625166 |

  Dip. moment [a.u.]:                  [   0.000033,   -0.000090,   -0.000029]
  Total dipole [Debye]:                                               0.000254
  <r^2> [a.u.]:                        [ 181.488817,   40.949467,   10.738791]
  Total <r^2> [a.u.]:                                               233.177075

  V1^2 = 0.9641, V2^2 = 0.0359

  Important amplitudes:
      occ i     occ j     vir a      vir b          v   
    -----------------------------------------------------
     8 (A) A             11 (A) A                 0.6737
     7 (A) A              9 (A) A                 0.1355
     8 (A) A             21 (A) A                 0.0788
     8 (A) A             16 (A) A                -0.0580
     8 (A) A   8 (A) B    9 (A) A   13 (A) B      0.0177
     5 (A) A   8 (A) B   11 (A) A   11 (A) B      0.0151
     8 (A) A   8 (A) B   11 (A) A   17 (A) B      0.0142
     7 (A) A   8 (A) B   13 (A) A   11 (A) B     -0.0127
     7 (A) A             20 (A) A                 0.0122
     5 (A) A   8 (A) A   11 (A) A   21 (A) A     -0.0111
     4 (A) A   8 (A) B   12 (A) A   11 (A) B     -0.0107
     8 (A) A   8 (A) B    9 (A) A   22 (A) B      0.0106
     7 (A) A   8 (A) A   11 (A) A   22 (A) A      0.0098
     6 (A) A   8 (A) B   15 (A) A   11 (A) B      0.0091
     7 (A) A   8 (A) B   22 (A) A   11 (A) B     -0.0089
     6 (A) A   8 (A) B   10 (A) A   11 (A) B     -0.0084
     6 (A) A   8 (A) A   11 (A) A   15 (A) A     -0.0083
     3 (A) A   4 (A) B   11 (A) A    9 (A) B     -0.0083
     3 (A) A   8 (A) B   11 (A) A   18 (A) B     -0.0082
     7 (A) A   8 (A) A   11 (A) A   13 (A) A      0.0079
     7 (A) A   8 (A) A   13 (A) A   16 (A) A     -0.0076
     5 (A) A   8 (A) B   21 (A) A   11 (A) B      0.0074
     6 (A) A   8 (A) A   11 (A) A   18 (A) A     -0.0067
     4 (A) A   8 (A) B   19 (A) A   11 (A) B      0.0065
     5 (A) A   8 (A) B    9 (A) A    9 (A) B      0.0064
     4 (A) A   8 (A) A   11 (A) A   12 (A) A      0.0062
     3 (A) A   6 (A) B   11 (A) A   28 (A) B     -0.0062
     6 (A) A   8 (A) B   18 (A) A   11 (A) B      0.0060
     7 (A) A   8 (A) B   16 (A) A   13 (A) B      0.0058
     3 (A) A   8 (A) A   11 (A) A   18 (A) A     -0.0057
     5 (A) A   8 (A) B   10 (A) A   10 (A) B      0.0055
     3 (A) A   8 (A) B   10 (A) A   11 (A) B      0.0055
     3 (A) A   5 (A) B   11 (A) A   25 (A) B     -0.0054
     3 (A) A   8 (A) A   11 (A) A   24 (A) A     -0.0053
     6 (A) A   8 (A) B   11 (A) A   10 (A) B     -0.0052
     3 (A) A   8 (A) B   11 (A) A   30 (A) B     -0.0051
     8 (A) A   8 (A) B   17 (A) A   21 (A) B     -0.0051
     6 (A) A   8 (A) A   13 (A) A   14 (A) A     -0.0050
     6 (A) A   8 (A) A   10 (A) A   16 (A) A     -0.0047
     8 (A) A   8 (A) B   11 (A) A   28 (A) B     -0.0046
    -----------------------------------------------------

  Density matrix analysis:
  ------------------------
  NOs
    Occupation of frontier NOs:
       0.9494   1.0188
    Number of electrons: 16.000000
    Number of unpaired electrons: n_u =  2.31486, n_u,nl =  2.04269
    NO participation ratio (PR_NO):  2.855087
  
  
  Mulliken Population Analysis
  Atom      Charge (e)              h+              e-           Del q
  --------------------------------------------------------------------
   1 H       -0.160723        0.045787       -0.248662       -0.202875
   2 C        0.321188        0.502325       -0.096881        0.405445
   3 H       -0.160439        0.045755       -0.248316       -0.202561
   4 C        0.321132        0.502336       -0.096896        0.405440
   5 H       -0.160449        0.045756       -0.248335       -0.202579
   6 H       -0.160710        0.045788       -0.248658       -0.202870
  --------------------------------------------------------------------
  Sum:        0.000000        1.187747       -1.187747       -0.000000
  
  Multipole moment analysis of the density matrix
    Molecular charge:                      -0.000000
    Number of electrons:                   16.000000
      Center of electronic charge [Ang]: [ -1.561339,  -0.065284,   0.002128]
    Total nuclear charge:                  16.000000
      Center of nuclear charge [Ang]:    [ -1.561338,  -0.065287,   0.002127]
    Dipole moment [D]:                     0.000254
      Cartesian components [D]:          [  0.000083,  -0.000228,  -0.000074]
    RMS size of the density [Ang]:         1.280222
      Cartesian components [Ang]:        [  0.859418,   0.844054,   0.433524]
  
  Exciton analysis of the difference density matrix
    <r_h> [Ang]:                  [ -1.561341,  -0.065282,   0.002122]
    <r_e> [Ang]:                  [ -1.561356,  -0.065243,   0.002142]
    |<r_e - r_h>| [Ang]:            0.000047
    Hole size [Ang]:                1.401657
      Cartesian components [Ang]: [  0.822931,   0.808892,   0.795689]
    Electron size [Ang]:            2.155758
      Cartesian components [Ang]: [  1.446519,   1.441995,   0.689583]

  Transition density matrix analysis:
  -----------------------------------
  
  CT numbers (Mulliken)
    omega =     0.9298
    <Phe> =    -0.0111
  
  Exciton analysis of the transition density matrix
    Trans. dipole moment [D]:             0.000185
      Cartesian components [D]:         [  0.000134,  -0.000127,  -0.000005]
    <r_h> [Ang]:                        [ -1.561336,  -0.065287,   0.002119]
    <r_e> [Ang]:                        [ -1.561362,  -0.065231,   0.002145]
    |<r_e - r_h>| [Ang]:                  0.000067
    Hole size [Ang]:                      1.236735
      Cartesian components [Ang]:       [  0.664372,   0.651232,   0.814874]
    Electron size [Ang]:                  2.303493
      Cartesian components [Ang]:       [  1.545192,   1.541712,   0.735924]
    RMS electron-hole separation [Ang]:   2.604012
      Cartesian components [Ang]:       [  1.673630,   1.665909,   1.097536]
    Covariance(r_h, r_e) [Ang^2]:         0.027357
    Correlation coefficient:              0.009603
    Center-of-mass size [Ang]:            1.312470
      Cartesian components [Ang]:       [  0.845130,   0.840640,   0.549232]

  Decomposition into state-averaged NTOs
    H- 0 -> L+ 2:  0.6682 ( 89.3%)
    H- 1 -> L+ 0:  0.1336 (  3.6%)
                   omega =  93.0%
  ----------------------------------------------------------------------------


  Excited state 5 (singlet, A)                                     [converged]
  ----------------------------------------------------------------------------
  Term symbol:  6 (1) A                                     R^2 =  7.50314e-14

  Total energy:                                            -77.9441075653 a.u.
  Excitation energy:                                              10.061681 eV

  Osc. strength:                                                      0.000000
  Trans. dip. moment [a.u.]:           [  -0.000011,    0.000019,   -0.000018]
  <i|r^2|0> [a.u.]:                    [  -0.090726,    0.108372,   -0.017714]
  Two-photon absorption cross-section (SoS) [a.u.]:                  74.856941
  Two-photon absorption matrix (SoS) [a.u.]:
                                       |   -0.213074   -0.032533    2.212606 |
                                       |   -0.032533    0.253109   -2.098775 |
                                       |    2.212606   -2.098775   -0.041169 |
  Two-photon absorption cross-section [a.u.]:                        17.242774
  Two-photon absorption matrix [a.u.]:
                                       |   -0.102651   -0.015907    1.062464 |
[...]
    16   -1.703403756703e-03
    17   -2.062491452221e-03
    18    1.819894516995e-04
    19   -3.811920496134e-03
    20    5.844325620475e-03
    21    9.642649884069e-01
    22    3.595454127414e-04
    23    1.496954213295e-02
    24    9.227335475515e-04
    25    7.007839085645e-02
    26   -5.245118724795e-02
    27   -1.453983386355e+00
    28    9.229312956070e-02
    29   -8.761530236059e-02
    30   -8.826202004220e-04
    31    3.764145084407e-01
    32   -3.574669308311e-01
    33   -3.626918768969e-03
    34    1.771024809067e-02
    35   -1.700960702243e-03
    36   -2.061334603369e-03
    37    1.820647901199e-04
    38   -3.812283440358e-03
    39    5.845218911603e-03
    40    9.643333428220e-01
    41   -3.600718541092e-04
    42   -1.496987094927e-02
    43   -9.222713516240e-04
    44    5.839066913866e-03
    45    9.641854770608e-01
    46    1.493594319407e-02
    47    1.126527637054e-03
    48    7.838632596748e-04
Sym=X
Ene= 0.239523
Spin=Alpha
Occup=0
     1    1.683651975486e-02
     2    1.261929381009e+00
     3   -1.568774754506e-02
     4   -3.648657859471e-03
     5   -9.737319143597e-04
     6    8.583053399837e-05
     7   -6.781521364569e-05
     8   -1.660583754867e-03
     9   -1.489806918073e-01
    10   -1.565721045182e-01
    11   -1.662379219123e-02
    12   -5.624214241149e-01
    13   -5.913052634749e-01
    14   -6.277950495632e-02
    15    3.020190452109e-05
    16   -2.351180401905e-04
    17    2.659791053043e-04
    18   -4.587424522400e-03
    19   -2.462450975547e-04
    20   -1.679366794454e-02
    21   -1.259837699160e+00
    22   -2.832374311654e-03
    23   -1.580821871324e-02
    24   -1.092318570547e-03
    25   -8.486881366558e-05
    26    6.689017556057e-05
    27    1.635000460774e-03
    28   -1.489872243593e-01
    29   -1.565853111520e-01
    30   -1.660460221730e-02
    31   -5.623868636440e-01
    32   -5.912968988209e-01
    33   -6.268285177525e-02
    34   -3.032239158258e-05
    35    2.337420222966e-04
    36   -2.657448884199e-04
    37    4.591375496800e-03
    38    2.466651719060e-04
    39    1.679227784800e-02
    40    1.259787497177e+00
    41   -2.832347016935e-03
    42   -1.580831167011e-02
    43   -1.091242426226e-03
    44   -1.683487982850e-02
    45   -1.261846584560e+00
    46   -1.568748426501e-02
    47   -3.648584428811e-03
    48   -9.724104936692e-04
Sym=X
Ene= 0.242664
Spin=Alpha
Occup=0
     1    1.055652213648e-02
     2    1.116436432937e+00
     3   -1.845773263680e-02
     4   -1.010552322064e-02
     5   -1.496309545091e-03
     6    8.581483799456e-02
     7   -7.584636227958e-02
     8   -1.684221334978e+00
     9   -5.349955465699e-02
    10    5.108439689014e-02
    11    5.257417654916e-04
    12   -2.105669254395e-01
    13    2.010630056063e-01
    14    2.059173369674e-03
    15    2.463849132282e-02
    16   -2.799960568671e-03
    17   -3.243824346659e-03
    18    6.335745130888e-04
    19   -1.264549108928e-02
    20    1.057696446933e-02
    21    1.119080232228e+00
    22    9.158968724539e-03
    23    1.897606030230e-02
    24    1.587469258734e-03
    25   -8.580847722310e-02
    26    7.583833009567e-02
    27    1.684037608089e+00
    28   -5.349721914138e-02
    29    5.108465775004e-02
    30    5.363113660816e-04
    31   -2.105349060866e-01
    32    2.010617457812e-01
    33    2.108363017703e-03
    34   -2.463509432352e-02
    35    2.797096790701e-03
    36    3.243236571785e-03
    37   -6.346373931516e-04
    38    1.264346919670e-02
    39   -1.058178059125e-02
    40   -1.118990592598e+00
    41    9.158942271879e-03
    42    1.897373592262e-02
    43    1.587491001630e-03
    44   -1.056059168974e-02
    45   -1.116295744091e+00
    46   -1.845438113139e-02
    47   -1.010583739435e-02
    48   -1.494797379604e-03
Sym=X
Ene= 0.302522
Spin=Alpha
Occup=0
     1    1.683782602693e-02
     2   -1.757252727550e+00
     3    2.227572022189e-02
     4   -7.237677603163e-04
     5    1.027502975024e-03
     6    1.319192353862e-06
     7    1.933028324569e-06
     8   -3.266803623801e-04
     9    1.310221520764e-01
    10    1.378241554099e-01
    11    1.462600291927e-02
    12    1.137241753493e+00
    13    1.196246110400e+00
    14    1.269103353135e-01
    15   -2.443462498056e-05
    16    1.631548398089e-03
    17   -1.852432650878e-03
    18    3.193625240106e-02
    19    1.625929525271e-03
    20   -1.687390276714e-02
    21    1.757580372569e+00
    22   -1.855879318007e-03
    23    2.219960958832e-02
    24    1.251681580639e-03
    25   -4.589277178788e-07
    26    1.331898648215e-06
    27   -2.544530206243e-04
    28   -1.310257125074e-01
    29   -1.378273793118e-01
    30   -1.461154212795e-02
    31   -1.137182521719e+00
    32   -1.196232304461e+00
    33   -1.268536663767e-01
    34   -2.615982694857e-05
    35    1.628509013103e-03
    36   -1.853553889130e-03
    37    3.193256684120e-02
    38    1.626758370132e-03
    39   -1.686430793718e-02
    40    1.757480749291e+00
    41    1.856330039046e-03
    42   -2.219913359091e-02
    43   -1.251141972400e-03
    44    1.682787101292e-02
    45   -1.757194289562e+00
    46   -2.227661025779e-02
    47    7.234848463958e-04
    48   -1.025810357195e-03
Sym=X
Ene= 0.458687
Spin=Alpha
Occup=0
     1   -1.040305486154e-01
     2   -7.568318724767e-01
     3   -1.356475876101e-02
     4   -9.831062462646e-03
     5   -1.246568072554e-03
     6    6.134797415001e-02
     7    6.225269170658e-03
     8   -3.176227648408e+00
     9    1.149245359879e-01
    10   -1.091394184354e-01
    11   -1.094257893718e-03
    12    2.336390934153e+00
    13   -2.219226797602e+00
    14   -2.168876699353e-02
    15    4.611978922978e-02
    16   -3.062323653068e-03
    17   -4.145575919096e-03
    18   -7.551681378011e-04
    19    1.376222773384e-02
    20   -1.038904985761e-01
    21   -7.573041589218e-01
    22    9.147155454618e-03
    23    1.403506196846e-02
    24    1.287488853269e-03
    25   -6.135095834332e-02
    26   -6.217745246659e-03
    27    3.176310031417e+00
    28    1.149424680417e-01
    29   -1.091520219082e-01
    30   -1.101627867267e-03
    31    2.336356513343e+00
    32   -2.219172749532e+00
    33   -2.172226634990e-02
    34   -4.611601542351e-02
    35    3.058070028255e-03
    36    4.139526833373e-03
    37    7.543464913007e-04
    38   -1.377069573017e-02
    39    1.038578022223e-01
    40    7.572965294251e-01
    41    9.146985239161e-03
    42    1.403353830444e-02
    43    1.285643201424e-03
    44    1.040037125231e-01
    45    7.568230187247e-01
    46   -1.356258316631e-02
    47   -9.829376389456e-03
    48   -1.245081146982e-03
Sym=X
Ene= 0.582761
Spin=Alpha
Occup=0
     1    2.689242969372e-01
     2    6.787705989843e-02
     3   -1.387120446894e-02
     4    2.423780930046e-02
     5    7.990585305899e-04
     6   -1.809091923588e-03
     7   -1.309741342944e-01
     8   -5.225843600721e-01
     9    2.970330575087e-01
    10   -2.820589355882e-01
    11   -2.754831165791e-03
    12   -7.458766056171e-01
    13    7.083914729669e-01
    14    6.998077850010e-03
    15   -5.509206660671e-03
    16    4.338864130447e-03
    17    4.003428580298e-03
    18   -3.364563037164e-03
    19    6.655086388284e-02
    20    2.688515856882e-01
    21    6.824127090123e-02
    22   -2.490881045997e-02
    23    1.260741736648e-02
    24   -4.340439734357e-04
    25   -1.819512866283e-03
    26   -1.309842968825e-01
    27   -5.221376062306e-01
    28   -2.970195244742e-01
    29    2.820356908075e-01
    30    2.753761368239e-03
    31    7.461791003634e-01
    32   -7.086371980544e-01
    33   -7.008543077212e-03
    34   -5.509985539036e-03
    35    4.338621916614e-03
    36    4.002836692069e-03
    37   -3.359846414271e-03
    38    6.655139489292e-02
    39    2.688137257387e-01
    40    6.835646755692e-02
    41    2.491850801642e-02
    42   -1.261604730509e-02
    43    4.328787271385e-04
    44    2.689371779128e-01
    45    6.797021229691e-02
    46    1.387487887633e-02
    47   -2.424238924389e-02
    48   -7.994570108836e-04
Sym=X
Ene= 0.615410
Spin=Alpha
Occup=0
     1   -5.052076709565e-01
     2    9.303350020037e-02
     3   -5.856057543485e-02
     4    3.723875605458e-02
     5   -5.616320516874e-04
     6    6.384089051281e-06
     7    3.351883893849e-05
     8    3.575474935297e-04
     9   -5.760271869752e-02
    10   -6.064889000025e-02
    11   -6.426857423500e-03
    12    3.639785995632e-01
    13    3.838942346238e-01
    14    4.070627393836e-02
    15    1.144339724601e-04
    16   -7.156357576360e-03
    17    8.113254066168e-03
    18   -1.399917047291e-01
    19   -7.173030276051e-03
    20    5.052848686045e-01
    21   -9.250688536447e-02
    22    4.018257175625e-02
    23   -5.656630054715e-02
    24   -1.486787043169e-03
    25   -7.423473457087e-06
    26   -3.627686313298e-05
    27   -3.068884348571e-04
    28   -5.758146393014e-02
    29   -6.064645110910e-02
    30   -6.432539863979e-03
    31    3.638714784551e-01
    32    3.838697797713e-01
    33    4.063093933012e-02
    34   -1.125855298883e-04
    35    7.150263785529e-03
    36   -8.119699387634e-03
    37    1.400090485543e-01
    38    7.171981781777e-03
    39   -5.053481060478e-01
    40    9.265203975176e-02
    41    4.017850125799e-02
    42   -5.656918329710e-02
    43   -1.490834339295e-03
    44    5.052205224670e-01
    45   -9.318766178952e-02
    46   -5.856352550027e-02
    47    3.723979804527e-02
    48   -5.616355613758e-04
Sym=X
Ene= 0.696137
Spin=Alpha
Occup=0
     1    4.086913225080e-05
     2    5.175152088322e-05
     3    1.337027637565e-03
     4    1.691150477837e-03
     5   -2.787655158296e-02
     6    2.341642760457e-06
     7   -1.063962487946e-05
     8    2.278394399124e-05
     9    3.248680006810e-02
    10    4.086284288121e-02
    11   -6.761637280897e-01
    12   -2.972930363807e-02
    13   -3.714585781740e-02
    14    6.163008027094e-01
    15   -1.323815486646e-03
    16    8.232174509969e-02
    17   -7.811455324194e-02
    18   -8.670096517308e-03
    19   -1.200386346529e-03
    20    3.626741383097e-05
    21    7.339360891166e-05
    22    1.337683247168e-03
    23    1.689907781787e-03
    24   -2.790231840140e-02
    25   -2.104010528532e-06
    26    3.030906183885e-05
    27   -2.945659071968e-05
    28    3.245930723875e-02
    29    4.083398935436e-02
    30   -6.761673719926e-01
    31   -2.969229008028e-02
    32   -3.710301706067e-02
    33    6.162971549729e-01
    34    1.319508403429e-03
    35   -8.232015423789e-02
    36    7.811390589359e-02
    37    8.678604452221e-03
    38    1.202282809504e-03
    39   -3.439908885342e-05
    40   -6.229177889699e-05
    41    1.333432072610e-03
    42    1.691778463494e-03
    43   -2.789730604406e-02
    44   -2.976092214649e-05
    45   -8.384518164744e-05
    46    1.329183230635e-03
    47    1.684877423501e-03
    48   -2.787238141964e-02
Sym=X
Ene= 0.724748
Spin=Alpha
Occup=0
     1   -4.531973420567e-01
     2    9.664169429636e-02
     3   -8.510937298123e-02
     4   -4.699291753569e-02
     5   -6.933650590080e-03
     6   -5.020231665043e-02
     7   -3.605605120805e-01
     8    5.760277524267e-01
     9    2.127853866840e-01
    10   -2.020363987399e-01
    11   -1.980656397104e-03
    12   -7.776415894351e-02
    13    7.376083219256e-02
    14    6.303874002120e-04
    15    2.027886966816e-01
    16   -2.121927596083e-02
    17   -2.507133960117e-02
    18    3.527080817171e-03
    19   -7.261219674990e-02
    20   -4.530810072564e-01
    21    9.636412709623e-02
    22    4.260846658851e-02
    23    8.736029420333e-02
    24    7.320716716773e-03
    25   -5.021197190910e-02
    26   -3.605065830229e-01
    27    5.757973869663e-01
    28   -2.127618354482e-01
    29    2.020148408589e-01
    30    1.965466531241e-03
    31    7.763655232966e-02
    32   -7.366709827916e-02
    33   -6.080530653783e-04
    34    2.028285936097e-01
    35   -2.120922417580e-02
    36   -2.506663705470e-02
    37    3.523579451006e-03
    38   -7.260285095249e-02
    39   -4.531656628888e-01
    40    9.643789975371e-02
    41   -4.260772809917e-02
    42   -8.737672565602e-02
    43   -7.318658991125e-03
    44   -4.533076045783e-01
    45    9.670884342800e-02
    46    8.512799484842e-02
    47    4.699312926831e-02
    48    6.929268474398e-03
Sym=X
Ene= 0.789819
Spin=Alpha
Occup=0
     1   -5.145506403266e-01
     2    2.994174249614e-01
     3   -1.087223694176e-01
     4   -1.954430805086e-02
     5   -6.408216968914e-03
     6   -9.340975870451e-02
     7    1.863046872846e-01
     8    4.566531144440e-01
     9   -1.717033185447e-01
    10    1.632888545193e-01
    11    1.562131529512e-03
    12   -2.673150548308e-02
    13    2.498008884387e-02
    14    2.794801684638e-04
    15    2.149351485595e-01
    16   -1.704748387528e-02
    17   -2.177072971016e-02
    18   -1.093110889345e-03
    19    1.648816316439e-02
    20   -5.143648590876e-01
    21    2.987606968469e-01
    22    1.396973264023e-02
    23    1.094572665945e-01
    24    7.283180740219e-03
    25    9.339846099374e-02
    26   -1.864410298786e-01
    27   -4.564701836400e-01
    28   -1.717554215175e-01
    29    1.633163745474e-01
    30    1.627413760629e-03
    31   -2.666919646660e-02
    32    2.496947727724e-02
    33    1.553829156216e-04
    34   -2.148941292622e-01
    35    1.701629753553e-02
    36    2.175312464185e-02
    37    1.089539755622e-03
    38   -1.650286591638e-02
    39    5.143226955536e-01
    40   -2.988057201698e-01
    41    1.396349949767e-02
    42    1.094402331262e-01
    43    7.278256997077e-03
    44    5.145003462635e-01
    45   -2.994250318688e-01
    46   -1.086997156512e-01
    47   -1.954022001938e-02
    48   -6.398774773373e-03
Sym=X
Ene= 0.805220
Spin=Alpha
Occup=0
     1    1.662881726985e-05
     2    2.187379164343e-05
     3    1.858746918511e-03
     4    2.343442163364e-03
     5   -3.881109623574e-02
     6    5.234504473479e-06
     7   -4.662362976304e-05
     8    2.380492680717e-05
     9    3.654122945466e-02
    10    4.589531732276e-02
    11   -7.598511902707e-01
    12   -5.362703045514e-02
    13   -6.736776508143e-02
    14    1.115236436412e+00
    15    8.956247758919e-04
    16   -5.620401127029e-02
    17    5.332977614732e-02
    18    5.914518934644e-03
    19    8.189597401542e-04
    20    1.922285242541e-05
    21   -2.941057676118e-05
    22    1.862137322782e-03
    23    2.346172423958e-03
    24   -3.882427911758e-02
    25   -2.524802094818e-06
    26   -3.277019787580e-05
    27    2.106602514808e-05
    28   -3.647467629136e-02
    29   -4.588354977644e-02
    30    7.598603104710e-01
    31    5.355123093274e-02
    32    6.732364858704e-02
    33   -1.115241655972e+00
    34    9.182435666830e-04
    35   -5.620430798733e-02
    36    5.332673080271e-02
    37    5.929520047252e-03
    38    8.263699227405e-04
    39   -2.202201453333e-05
    40    5.120292565367e-05
    41   -1.862451419325e-03
    42   -2.363219696947e-03
    43    3.881530351490e-02
    44   -1.943238359358e-05
    45   -3.775201196256e-08
    46   -1.849573395505e-03
    47   -2.348594519431e-03
    48    3.880510499089e-02
Sym=X
Ene= 0.876418
Spin=Alpha
Occup=0
     1    2.719674258541e-02
     2   -1.149691787714e+00
     3    1.574227507824e-01
     4    5.323983618186e-02
     5    1.077178244714e-02
     6   -2.927025943466e-05
     7   -4.028601862686e-06
     8   -2.996227910752e-04
     9   -3.972848877598e-01
    10   -4.174985070834e-01
    11   -4.433273240467e-02
    12    9.537989534015e-01
    13    1.002331212496e+00
    14    1.064334718731e-01
    15   -1.552196749580e-04
    16    1.323604236143e-02
    17   -1.501351115263e-02
    18    2.589661424258e-01
    19    1.332858225797e-02
    20   -2.730749797388e-02
    21    1.149332657421e+00
    22    4.511379455717e-02
    23    1.598615441690e-01
    24    1.183511996345e-02
    25    2.942891488314e-05
    26    5.866147283823e-06
    27    3.013011300324e-04
    28   -3.973801481726e-01
    29   -4.176050230673e-01
    30   -4.428144825061e-02
    31    9.539852516633e-01
    32    1.002556690181e+00
    33    1.063074616811e-01
    34    1.552849424454e-04
    35   -1.323314578816e-02
    36    1.501456699606e-02
    37   -2.589936264049e-01
    38   -1.333496298457e-02
    39    2.734693283149e-02
    40   -1.149486665044e+00
    41    4.510296054122e-02
    42    1.598945924935e-01
    43    1.183307872687e-02
    44   -2.723667185855e-02
    45    1.149844389349e+00
    46    1.574572141471e-01
    47    5.323478236829e-02
    48    1.076429478627e-02
Sym=X
Ene= 0.947670
Spin=Alpha
Occup=0
     1   -7.228224039596e-02
     2    1.386271316819e+00
     3   -1.818908571349e-01
     4    5.080567191217e-03
     5   -8.445249039322e-03
     6    1.081986501844e-05
     7    4.995507128808e-04
     8   -7.297541052755e-04
     9    4.672028988177e-01
    10    4.912961733812e-01
    11    5.213210129742e-02
    12   -1.574374020646e+00
    13   -1.655764361281e+00
    14   -1.756779446828e-01
    15    8.392775732888e-05
    16   -6.367631880221e-03
    17    7.174450685635e-03
    18   -1.240636696889e-01
    19   -6.406578062659e-03
    20    7.225001703348e-02
    21   -1.385796882645e+00
    22    1.442227897025e-02
    23   -1.811942899264e-01
    24   -1.024374203091e-02
    25    9.745710743082e-06
    26    5.042015911925e-04
    27   -7.379644620915e-04
    28   -4.671419779733e-01
    29   -4.912315265311e-01
    30   -5.209643110282e-02
    31    1.574171148219e+00
    32    1.655544422034e+00
    33    1.755742198907e-01
    34    9.031225675938e-05
    35   -6.348003388431e-03
    36    7.166094670324e-03
    37   -1.240001942470e-01
    38   -6.412628936633e-03
    39    7.223786991215e-02
    40   -1.385508166328e+00
    41   -1.443479414526e-02
    42    1.811559468659e-01
    43    1.023664907957e-02
    44   -7.228686250972e-02
    45    1.386022609283e+00
    46    1.818614608457e-01
    47   -5.088073607413e-03
    48    8.433730731108e-03
Sym=X
Ene= 0.965679
Spin=Alpha
Occup=0
     1   -1.231599035302e-01
     2    9.821564427395e-01
     3   -1.048730541745e-01
     4   -1.016622067674e-01
     5   -1.117123643948e-02
     6    8.526627989813e-03
     7    2.039065220742e-01
     8    6.874496576623e-01
     9    4.643724236427e-01
    10   -4.412270688561e-01
    11   -4.343503347376e-03
    12   -1.580701573223e+00
    13    1.501871923546e+00
    14    1.475794656405e-02
    15   -1.392192406604e-02
    16   -1.624640300494e-02
    17   -1.397990969255e-02
    18    1.540734425090e-02
    19   -2.994364584240e-01
    20   -1.232263230156e-01
    21    9.830346851302e-01
    22    9.623153992403e-02
    23    1.099967228410e-01
    24    1.127773489679e-02
    25   -8.529241167738e-03
    26   -2.040335527040e-01
    27   -6.872400953101e-01
    28    4.643929515429e-01
    29   -4.412542496905e-01
    30   -4.365677039041e-03
    31   -1.580741092152e+00
    32    1.501971678385e+00
    33    1.481657860753e-02
    34    1.392577825209e-02
    35    1.623915531072e-02
    36    1.397600390292e-02
    37   -1.541049549818e-02
    38    2.994389859803e-01
    39    1.232369873380e-01
    40   -9.831420837899e-01
    41    9.623141111258e-02
    42    1.100142822873e-01
    43    1.127780396087e-02
    44    1.231807239069e-01
    45   -9.822125086021e-01
    46   -1.048847147106e-01
    47   -1.016669129872e-01
    48   -1.116477020653e-02
[5D]

======= END OF MOLDEN-FORMATTED INPUT FILE =======


        *************************************************************
        *                                                           *
        *  Thank you very much for using Q-Chem.  Have a nice day.  *
        *                                                           *
        *************************************************************


