                  Welcome to Q-Chem
     A Quantum Leap Into The Future Of Chemistry


 Q-Chem 5.4 (devel), Q-Chem, Inc., Pleasanton, CA (2021)

 E. Epifanovsky,  A. T. B. Gilbert,  Xintian Feng,  Joonho Lee,  Yuezhi Mao,  
 N. Mardirossian,  P. Pokhilko,  A. White,  M. Wormit,  M. P. Coons,  
 A. L. Dempwolff,  Zhengting Gan,  D. Hait,  P. R. Horn,  L. D. Jacobson,  
 I. Kaliman,  J. Kussmann,  A. W. Lange,  Ka Un Lao,  D. S. Levine,  Jie Liu,  
 S. C. McKenzie,  A. F. Morrison,  K. Nanda,  F. Plasser,  D. R. Rehn,  
 M. L. Vidal,  Zhi-Qiang You,  Ying Zhu,  B. Alam,  B. Albrecht,  
 A. Aldossary,  E. Alguire,  J. H. Andersen,  D. Barton,  K. Begam,  A. Behn,  
 Y. A. Bernard,  E. J. Berquist,  H. Burton,  A. Carreras,  K. Carter-Fenk,  
 R. Chakraborty,  A. D. Chien,  K. D. Closser,  V. Cofer-Shabica,  
 S. Dasgupta,  Jia Deng,  M. de Wergifosse,  M. Diedenhofen,  Hainam Do,  
 S. Ehlert,  Po-Tung Fang,  S. Fatehi,  Qingguo Feng,  T. Friedhoff,  
 J. Gayvert,  Qinghui Ge,  G. Gidofalvi,  M. Goldey,  J. Gomes,  
 C. Gonzalez-Espinoza,  S. Gulania,  A. Gunina,  M. W. D. Hanson-Heine,  
 P. H. P. Harbach,  A. W. Hauser,  M. F. Herbst,  M. Hernandez Vera,  
 M. Hodecker,  Z. C. Holden,  S. Houck,  Xunkun Huang,  Kerwin Hui,  
 B. C. Huynh,  M. Ivanov,  Hyunjun Ji,  Hanjie Jiang,  B. Kaduk,  S. Kaehler,  
 K. Khistyaev,  Jaehoon Kim,  P. Klunzinger,  Z. Koczor-Benda,  
 Joong Hoon Koh,  D. Kosenkov,  L. Koulias,  T. Kowalczyk,  C. M. Krauter,  
 K. Kue,  A. Kunitsa,  T. Kus,  A. Landau,  K. V. Lawler,  D. Lefrancois,  
 S. Lehtola,  Rain Li,  Yi-Pei Li,  Jiashu Liang,  M. Liebenthal,  
 Hung-Hsuan Lin,  You-Sheng Lin,  Fenglai Liu,  Kuan-Yu Liu,  
 M. Loipersberger,  A. Luenser,  A. Manjanath,  P. Manohar,  E. Mansoor,  
 S. F. Manzer,  Shan-Ping Mao,  A. V. Marenich,  T. Markovich,  S. Mason,  
 S. A. Maurer,  P. F. McLaughlin,  M. F. S. J. Menger,  J.-M. Mewes,  
 S. A. Mewes,  P. Morgante,  J. W. Mullinax,  K. J. Oosterbaan,  G. Paran,  
 Alexander C. Paul,  Suranjan K. Paul,  F. Pavosevic,  Zheng Pei,  S. Prager,  
 E. I. Proynov,  E. Ramos,  B. Rana,  A. E. Rask,  A. Rettig,  R. M. Richard,  
 F. Rob,  E. Rossomme,  T. Scheele,  M. Scheurer,  M. Schneider,  
 N. Sergueev,  S. M. Sharada,  W. Skomorowski,  D. W. Small,  C. J. Stein,  
 Yu-Chuan Su,  E. J. Sundstrom,  Zhen Tao,  J. Thirman,  T. Tsuchimochi,  
 N. M. Tubman,  S. P. Veccham,  O. Vydrov,  J. Wenzel,  J. Witte,  A. Yamada,  
 Kun Yao,  S. Yeganeh,  S. R. Yost,  A. Zech,  Igor Ying Zhang,  Xing Zhang,  
 Yu Zhang,  D. Zuev,  A. Aspuru-Guzik,  A. T. Bell,  N. A. Besley,  
 K. B. Bravaya,  B. R. Brooks,  D. Casanova,  Jeng-Da Chai,  S. Coriani,  
 C. J. Cramer,  A. E. DePrince, III,  R. A. DiStasio Jr.,  A. Dreuw,  
 B. D. Dunietz,  T. R. Furlani,  W. A. Goddard III,  S. Grimme,  
 S. Hammes-Schiffer,  T. Head-Gordon,  W. J. Hehre,  Chao-Ping Hsu,  
 T.-C. Jagau,  Yousung Jung,  A. Klamt,  Jing Kong,  D. S. Lambrecht,  
 WanZhen Liang,  N. J. Mayhall,  C. W. McCurdy,  J. B. Neaton,  
 C. Ochsenfeld,  J. A. Parkhill,  R. Peverati,  V. A. Rassolov,  Yihan Shao,  
 L. V. Slipchenko,  T. Stauch,  R. P. Steele,  J. E. Subotnik,  
 A. J. W. Thom,  A. Tkatchenko,  D. G. Truhlar,  T. Van Voorhis,  
 T. A. Wesolowski,  K. B. Whaley,  H. L. Woodcock III,  P. M. Zimmerman,  
 S. Faraji,  P. M. W. Gill,  M. Head-Gordon,  J. M. Herbert,  A. I. Krylov

 Additional authors for Version 5.4.1: 
 S. Kotaru,  Shaozhi Li,  Xiangyuan Li,  F. Matz,  A. Molle,  Haisheng Ren,  
 Yingli Su,  Hung-Yi Tsai,  C. Utku,  Fang Wang

 Contributors to earlier versions of Q-Chem not listed above: 
 R. D. Adamson,  B. Austin,  R. Baer,  J. Baker,  G. J. O. Beran,  
 K. Brandhorst,  S. T. Brown,  E. F. C. Byrd,  A. K. Chakraborty,  
 G. K. L. Chan,  Chun-Min Chang,  Yunqing Chen,  C.-L. Cheng,  
 Siu Hung Chien,  D. M. Chipman,  D. L. Crittenden,  H. Dachsel,  
 R. J. Doerksen,  A. D. Dutoi,  R. G. Edgar,  J. Fosso-Tande,  
 L. Fusti-Molnar,  D. Ghosh,  A. Ghysels,  A. Golubeva-Zadorozhnaya,  
 J. Gonthier,  M. S. Gordon,  S. R. Gwaltney,  G. Hawkins,  J. E. Herr,  
 A. Heyden,  S. Hirata,  E. G. Hohenstein,  G. Kedziora,  F. J. Keil,  
 C. Kelley,  Jihan Kim,  R. A. King,  R. Z. Khaliullin,  P. P. Korambath,  
 W. Kurlancheek,  A. Laurent,  A. M. Lee,  M. S. Lee,  S. V. Levchenko,  
 Ching Yeh Lin,  D. Liotard,  E. Livshits,  R. C. Lochan,  I. Lotan,  
 L. A. Martinez-Martinez,  P. E. Maslen,  N. Nair,  D. P. O'Neill,  
 D. Neuhauser,  E. Neuscamman,  C. M. Oana,  R. Olivares-Amaya,  R. Olson,  
 T. M. Perrine,  B. Peters,  P. A. Pieniazek,  A. Prociuk,  Y. M. Rhee,  
 J. Ritchie,  M. A. Rohrdanz,  E. Rosta,  N. J. Russ,  H. F. Schaefer III,  
 M. W. Schmidt,  N. E. Schultz,  S. Sharma,  N. Shenvi,  C. D. Sherrill,  
 A. C. Simmonett,  A. Sodt,  T. Stein,  D. Stuck,  K. S. Thanthiriwatte,  
 V. Vanovschi,  L. Vogt,  Tao Wang,  A. Warshel,  M. A. Watson,  
 C. F. Williams,  Q. Wu,  X. Xu,  Jun Yang,  W. Zhang,  Yan Zhao

 Please cite Q-Chem as follows:
 Y. Shao et al., Mol. Phys. 113, 184-215 (2015)
 DOI: 10.1080/00268976.2014.952696

 Q-Chem 5.4.1 for Intel X86 EM64T Linux

 Parts of Q-Chem use Armadillo 9.800.1 (Horizon Scraper).
 http://arma.sourceforge.net/

 Q-Chem begins on Tue Mar 21 11:45:37 2023  

 Host: cpu186.baobab
0

     Scratch files written to /scratch/fum/qchem64030//
 Processing $rem in /home/share/wesolowski/qc5.aug2021.FDE/config/preferences:
 Processing $rem in /home/fum/.qchemrc:

 Checking the input file for inconsistencies... 	...done.

--------------------------------------------------------------
User input:
--------------------------------------------------------------
$comment
generated from CCJob.Templates
$end

$rem
sym_ignore = true
method = adc(2)
ee_states = 10
basis = cc-pVDZ
mem_static = 1024
mem_total = 40000
adc_davidson_maxiter = 900
adc_davidson_conv = 6
adc_print = 3
adc_prop_es = true
adc_prop_es2es = true
adc_prop_tpa = true
molden_format = True
state_analysis = true
print_orbitals = 15
gen_scfman = false
fde_export_density = true
fde_details = 3
$end

$molecule
0 1
H -0.021789571629185357 -0.2478752820080896 0.06506081329205016
C -1.079725523018222 -0.5226970750929013 -0.002346092397963824
H -1.3003151925932945 -1.5927548641654774 -0.07763616249280988
C -2.042945472581774 0.3921211181928989 0.00659301989796238
H -1.8223951360067174 1.4621908012654734 0.08186290399280939
H -3.1008918870708158 0.1173106355081021 -0.06073529999204582                     
$end
--------------------------------------------------------------
 ----------------------------------------------------------------
             Standard Nuclear Orientation (Angstroms)
    I     Atom           X                Y                Z
 ----------------------------------------------------------------
    1      H      -0.0217895716    -0.2478752820     0.0650608133
    2      C      -1.0797255230    -0.5226970751    -0.0023460924
    3      H      -1.3003151926    -1.5927548642    -0.0776361625
    4      C      -2.0429454726     0.3921211182     0.0065930199
    5      H      -1.8223951360     1.4621908013     0.0818629040
    6      H      -3.1008918871     0.1173106355    -0.0607353000
 ----------------------------------------------------------------
 Nuclear Repulsion Energy =          33.26133792 hartrees
 There are        8 alpha and        8 beta electrons
 Requested basis set is cc-pVDZ
 There are 24 shells and 48 basis functions
 Total memory of 40000 MB is distributed as follows: 
   MEM_STATIC is set to 1024 MB
   QALLOC/CCMAN JOB total memory use is  38976 MB
 Warning: actual memory use might exceed 40000 MB

 Total QAlloc Memory Limit  40000 MB
 Mega-Array Size      1001 MB
 MEM_STATIC part      1024 MB

                       Distance Matrix (Angstroms)
             H (  1)   C (  2)   H (  3)   C (  4)   H (  5)
   C (  2)  1.095125
   H (  3)  1.861099  1.095149
   C (  4)  2.120869  1.328445  2.120926
   H (  5)  2.483302  2.120950  3.103337  1.095152
   H (  6)  3.103233  2.120880  2.483281  1.095128  1.861073

 A cutoff of  1.0D-11 yielded    300 shell pairs
 There are      1220 function pairs (      1329 Cartesian)
 Smallest overlap matrix eigenvalue = 4.73E-03

 Scale SEOQF with 1.000000e-01/1.000000e-01/1.000000e+00

 Standard Electronic Orientation quadrupole field applied
 Nucleus-field energy     =     0.0000000022 hartrees
 Guess from superposition of atomic densities
 Warning:  Energy on first SCF cycle will be non-variational
 SAD guess density has 16.000000 electrons
 A restricted Hartree-Fock SCF calculation will be
 performed using Pulay DIIS extrapolation
 SCF converges when DIIS error is below 1.0E-08
 using 10 threads for integral computing
 -------------------------------------------------------
 OpenMP Integral computing Module                
 Release: version 1.0, May 2013, Q-Chem Inc. Pittsburgh 
 -------------------------------------------------------
 ---------------------------------------
  Cycle       Energy         DIIS Error
 ---------------------------------------
    1     -78.4053080227      9.97E-02
    2     -78.0176151747      7.15E-03
    3     -78.0381220116      1.83E-03
    4     -78.0396040599      5.73E-04
    5     -78.0397252012      5.82E-05
    6     -78.0397270692      9.30E-06
    7     -78.0397271305      1.94E-06
    8     -78.0397271331      1.67E-07
    9     -78.0397271332      1.73E-08
   10     -78.0397271332      3.64E-09 Convergence criterion met
 ---------------------------------------
 SCF time:  CPU 1.90 s  wall 2.44 s
 SCF   energy in the final basis set = -78.03972713
 Total energy in the final basis set = -78.03972713
Exporting Density Matrix to file 'Densmat_SCF.txt'.
Export successful
================================================================================
|                                                                              |
|                                 A D C  M A N                                 |
|                                                                              |
 ------------------------------------------------------------------------------ 
|                                                                              |
| Components:                                                                  |
|                                                                              |
| - libvmm - 1.3-trunk                                                         |
|   Authors:                                                                   |
|   Evgeny Epifanovsky, Ilya Kaliman                                           |
|                                                                              |
| - libtensor - 2.5-trunk                                                      |
|   Authors:                                                                   |
|   Evgeny Epifanovsky, Michael Wormit, Dmitry Zuev, Sam Manzer,               |
|   Ilya Kaliman                                                               |
|                                                                              |
| - libwfa - 1.1-trunk                                                         |
|   Authors:                                                                   |
|   Felix Plasser, Stefanie Mewes (Baeppler), Benjamin Thomitzni,              |
|   Michael Wormit, Feng Chen, Anna I. Krylov, Pavel Pokhilko                  |
|                                                                              |
| - libadc - 1.1-trunk                                                         |
|   Authors:                                                                   |
|   Michael Wormit, Adrian L. Dempwolff, Philipp H. P. Harbach,                |
|   Caroline Krauter, Dirk Rehn, Matthias Schneider, Jan Wenzel                |
|                                                                              |
| - adcman - 2.6-trunk                                                         |
|   Authors:                                                                   |
|   Michael Wormit, Adrian L. Dempwolff, Philipp H. P. Harbach,                |
|   Caroline Krauter, Daniel Lefrancois, Jan-Michael Mewes, Dirk Rehn,         |
|   Matthias Schneider, Jan Wenzel, Andreas Dreuw                              |
|                                                                              |
| Authors of earlier versions of ADCMAN:                                       |
| Andreas Dreuw, Jan Hendrik Starcke, Dirk Rehn, Michael Wormit                |
|                                                                              |
================================================================================

 Created directory /scratch/fum/qchem64030/plots
  Import QC data ...  CPU 0.00 s  wall 0.00 s

 Alpha MOs, Restricted
 -- Occupied --                  
-11.238 -11.237  -1.031  -0.785  -0.635  -0.584  -0.498  -0.376
  1 A     2 A     3 A     4 A     5 A     6 A     7 A     8 A                  
 -- Virtual --                   
  0.169   0.203   0.231   0.236   0.303   0.464   0.579   0.608
  9 A    10 A    11 A    12 A    13 A    14 A    15 A    16 A                  
  0.688   0.705   0.777   0.808   0.857   0.928   0.973   1.006
 17 A    18 A    19 A    20 A    21 A    22 A    23 A    24 A                  
  1.130   1.238   1.240   1.264   1.292   1.591   1.731   1.746
 25 A    26 A    27 A    28 A    29 A    30 A    31 A    32 A                  
  1.811   1.853   1.856   1.901   1.961   1.974   2.228   2.251
 33 A    34 A    35 A    36 A    37 A    38 A    39 A    40 A                  
  2.355   2.422   2.495   2.629   2.675   2.796   3.097   3.375
 41 A    42 A    43 A    44 A    45 A    46 A    47 A    48 A                  

 Beta MOs, Restricted
 -- Occupied --                  
-11.238 -11.237  -1.031  -0.785  -0.635  -0.584  -0.498  -0.376
  1 A     2 A     3 A     4 A     5 A     6 A     7 A     8 A                  
 -- Virtual --                   
  0.169   0.203   0.231   0.236   0.303   0.464   0.579   0.608
  9 A    10 A    11 A    12 A    13 A    14 A    15 A    16 A                  
  0.688   0.705   0.777   0.808   0.857   0.928   0.973   1.006
 17 A    18 A    19 A    20 A    21 A    22 A    23 A    24 A                  
  1.130   1.238   1.240   1.264   1.292   1.591   1.731   1.746
 25 A    26 A    27 A    28 A    29 A    30 A    31 A    32 A                  
  1.811   1.853   1.856   1.901   1.961   1.974   2.228   2.251
 33 A    34 A    35 A    36 A    37 A    38 A    39 A    40 A                  
  2.355   2.422   2.495   2.629   2.675   2.796   3.097   3.375
 41 A    42 A    43 A    44 A    45 A    46 A    47 A    48 A                  
  Import AO data ...  CPU 0.00 s  wall 0.00 s
  Using point group: C1
  Irreducible representations in point group: A
  Molecular orbitals: 
  Occupied MOs:
  Block   0:   1 (  A) A   2 (  A) A   3 (  A) A   4 (  A) A   5 (  A) A
                  -11.24      -11.24      -1.031     -0.7853     -0.6348
               6 (  A) A   7 (  A) A   8 (  A) A
                 -0.5837     -0.4981     -0.3757
  Block   1:   1 (  A) B   2 (  A) B   3 (  A) B   4 (  A) B   5 (  A) B
                  -11.24      -11.24      -1.031     -0.7853     -0.6348
               6 (  A) B   7 (  A) B   8 (  A) B
                 -0.5837     -0.4981     -0.3757
  Virtual MOs:
  Block   0:   9 (  A) A  10 (  A) A  11 (  A) A  12 (  A) A  13 (  A) A
                  0.1691      0.2028      0.2307      0.2363      0.3033
              14 (  A) A  15 (  A) A  16 (  A) A  17 (  A) A  18 (  A) A
                  0.4641      0.5792      0.6084      0.6876      0.7048
              19 (  A) A  20 (  A) A  21 (  A) A  22 (  A) A
                  0.7769      0.8079      0.8574      0.9284
  Block   1:  23 (  A) A  24 (  A) A  25 (  A) A  26 (  A) A  27 (  A) A
                  0.9733       1.006        1.13       1.238        1.24
              28 (  A) A  29 (  A) A  30 (  A) A  31 (  A) A  32 (  A) A
                   1.264       1.292       1.591       1.731       1.746
              33 (  A) A  34 (  A) A  35 (  A) A  36 (  A) A
                   1.811       1.853       1.856       1.901
  Block   2:  37 (  A) A  38 (  A) A  39 (  A) A  40 (  A) A  41 (  A) A
                   1.961       1.974       2.228       2.251       2.355
              42 (  A) A  43 (  A) A  44 (  A) A  45 (  A) A  46 (  A) A
                   2.422       2.495       2.629       2.675       2.796
              47 (  A) A  48 (  A) A
                   3.097       3.375
  Block   3:   9 (  A) B  10 (  A) B  11 (  A) B  12 (  A) B  13 (  A) B
                  0.1691      0.2028      0.2307      0.2363      0.3033
              14 (  A) B  15 (  A) B  16 (  A) B  17 (  A) B  18 (  A) B
                  0.4641      0.5792      0.6084      0.6876      0.7048
              19 (  A) B  20 (  A) B  21 (  A) B  22 (  A) B
                  0.7769      0.8079      0.8574      0.9284
  Block   4:  23 (  A) B  24 (  A) B  25 (  A) B  26 (  A) B  27 (  A) B
                  0.9733       1.006        1.13       1.238        1.24
              28 (  A) B  29 (  A) B  30 (  A) B  31 (  A) B  32 (  A) B
                   1.264       1.292       1.591       1.731       1.746
              33 (  A) B  34 (  A) B  35 (  A) B  36 (  A) B
                   1.811       1.853       1.856       1.901
  Block   5:  37 (  A) B  38 (  A) B  39 (  A) B  40 (  A) B  41 (  A) B
                   1.961       1.974       2.228       2.251       2.355
              42 (  A) B  43 (  A) B  44 (  A) B  45 (  A) B  46 (  A) B
                   2.422       2.495       2.629       2.675       2.796
              47 (  A) B  48 (  A) B
                   3.097       3.375
  Import MO data ...  CPU 0.14 s  wall 0.04 s
  Import HF data ...  CPU 0.41 s  wall 0.15 s
  Import 2e integrals ...  CPU 0.99 s  wall 0.19 s

--------------------------------------------------------------------------------
                                   HF Summary                                   
--------------------------------------------------------------------------------
  Energy:                                                  -78.0397271332 a.u.
  Dip. moment [a.u.]:                  [  -0.000005,    0.000002,    0.000016]
  Total dipole [Debye]:                                               0.000043
  <r^2> [a.u.]:                        [ 175.748006,   35.228388,   11.668442]
  Total <r^2> [a.u.]:                                               222.644837
--------------------------------------------------------------------------------
  HF properties ...  CPU 0.03 s  wall 0.02 s
  MP(1) calculation ...  CPU 0.01 s  wall 0.01 s
  N^6 prerequesite intermediates ...  CPU 0.61 s  wall 0.12 s
  Difference density matrix of state mp2_gs printed to ASCII file 'State_mp2_gs_Difference.txt'
Exporting MP density matrix to file 'Densmat_MP.txt'.
Export successful
  Total density matrix of state mp2_gs printed to ASCII file 'State_mp2_gs_Total.txt'
Exporting MP density matrix to file 'Densmat_MP.txt'.
Export successful

--------------------------------------------------------------------------------
                                 MP(2) Summary                                  
--------------------------------------------------------------------------------
  MP energy contribution:                                   -0.2802448855 a.u.
  Total energy:                                            -78.3199720187 a.u.
  Dip. moment [a.u.]:                  [  -0.000004,    0.000002,    0.000016]
  Total dipole [Debye]:                                               0.000042
  <r^2> [a.u.]:                        [ 175.788759,   35.264705,   11.499194]
  Total <r^2> [a.u.]:                                               222.552658

  Density matrix analysis:
  ------------------------
  NOs
    Occupation of frontier NOs:
       0.0451   1.9384
    Number of electrons: 16.000000
    Number of unpaired electrons: n_u =  0.40619, n_u,nl =  0.04543
    NO participation ratio (PR_NO): 13.940461
  
  
  Mulliken Population Analysis
  Atom      Charge (e)              h+              e-           Del q
  --------------------------------------------------------------------
   1 H        0.054727        0.013914       -0.011305        0.002608
   2 C       -0.109456        0.094169       -0.099385       -0.005216
   3 H        0.054735        0.013913       -0.011305        0.002608
   4 C       -0.109465        0.094168       -0.099385       -0.005217
   5 H        0.054734        0.013913       -0.011305        0.002608
   6 H        0.054725        0.013914       -0.011305        0.002609
  --------------------------------------------------------------------
  Sum:       -0.000000        0.243991       -0.243991        0.000000
  
  Multipole moment analysis of the density matrix
    Molecular charge:                      -0.000000
    Number of electrons:                   16.000000
      Center of electronic charge [Ang]: [ -1.561338,  -0.065287,   0.002127]
    Total nuclear charge:                  16.000000
      Center of nuclear charge [Ang]:    [ -1.561339,  -0.065287,   0.002127]
    Dipole moment [D]:                     0.000042
      Cartesian components [D]:          [ -0.000011,   0.000004,   0.000040]
    RMS size of the density [Ang]:         1.205414
      Cartesian components [Ang]:        [  0.799274,   0.782900,   0.448611]
  
  Exciton analysis of the difference density matrix
    <r_h> [Ang]:                  [ -1.561338,  -0.065287,   0.002124]
    <r_e> [Ang]:                  [ -1.561339,  -0.065286,   0.002125]
    |<r_e - r_h>| [Ang]:            0.000001
    Hole size [Ang]:                1.400049
      Cartesian components [Ang]: [  0.852585,   0.839873,   0.726532]
    Electron size [Ang]:            1.361742
      Cartesian components [Ang]: [  0.879586,   0.864330,   0.577584]
--------------------------------------------------------------------------------
  MP(2) calculation ...  CPU 0.32 s  wall 0.29 s
  Start ADC(2)-s ...  CPU 0.02 s  wall 0.01 s
  ADC(2) intermediates ...  CPU 0.04 s  wall 0.01 s
  Starting Davidson for singlet states of irrep A ... 
--------------------------------------------------------------------------------
   It NVec Conv  Avg. Norm  Max. Norm  Conv. states           Remark
--------------------------------------------------------------------------------
        10    0  1.330e-01  4.693e-01  0.4128 n n n n n n n n Guess.
    1   20    0  2.308e-02  1.120e-01  0.3276 n n n n n n n n 
    2   30    0  5.826e-03  2.449e-02  0.3229 n n n n n n n n 
    3   40    0  1.788e-03  1.038e-02  0.3225 n n n n n n n n 
    4   50    0  5.066e-04  3.399e-03  0.3225 n n n n n n n n 
    5   20    0  2.593e-04  1.691e-03  0.3225 n n n n n n n n Subspace collapsed.
    6   30    0  1.118e-04  7.678e-04  0.3225 n n n n n n n n 
    7   40    0  8.527e-05  7.603e-04  0.3225 n n n n n n n n 
    8   50    0  3.994e-05  3.250e-04  0.3225 n n n n n n n n 
    9   20    0  2.088e-05  1.716e-04  0.3225 n n n n n n n n Subspace collapsed.
   10   30    4  1.818e-05  1.663e-04  0.3225 n n y y y y n n 
   11   40    6  8.713e-06  7.180e-05  0.3225 y y y y y y n n 
   12   50    6  4.538e-06  2.950e-05  0.3225 y y y y y y n n 
   13   20    6  2.468e-06  1.527e-05  0.3225 y y y y y y n n Subspace collapsed.
   14   30    6  1.902e-06  1.441e-05  0.3225 y y y y y y n n 
   15   40    6  1.350e-06  1.080e-05  0.3225 y y y y y y n n 
   16   50    6  1.426e-06  1.285e-05  0.3225 y y y y y y n n 
   17   20    7  9.175e-07  8.131e-06  0.3225 y y y y y y n n Subspace collapsed.
   18   30    7  6.846e-07  6.109e-06  0.3225 y y y y y y n n 
   19   40    8  6.440e-07  6.140e-06  0.3225 y y y y y y y n 
   20   50    8  7.455e-07  7.311e-06  0.3225 y y y y y y y n 
   21   20    9  3.122e-07  3.065e-06  0.3225 y y y y y y y y Subspace collapsed.
   22   30    9  2.023e-07  1.985e-06  0.3225 y y y y y y y y 
   23   39    9  1.791e-07  1.766e-06  0.3225 y y y y y y y y 
   24   47    9  2.470e-07  2.452e-06  0.3225 y y y y y y y y 
   25   50    9  2.131e-07  2.119e-06  0.3225 y y y y y y y y 
   26   15    9  1.060e-07  1.055e-06  0.3225 y y y y y y y y Subspace collapsed.
   27   20    9  1.067e-07  1.062e-06  0.3225 y y y y y y y y 
   28   25   10  7.168e-08  7.134e-07  0.3225 y y y y y y y y Converged.
--------------------------------------------------------------------------------
  Davidson Summary: 
 ------------------------------------------------------------
  State  0: excitation energy =   0.3225 a.u.   (converged)
  State  1: excitation energy =   0.3289 a.u.   (converged)
  State  2: excitation energy =   0.3369 a.u.   (converged)
  State  3: excitation energy =   0.3580 a.u.   (converged)
  State  4: excitation energy =   0.3744 a.u.   (converged)
  State  5: excitation energy =   0.3885 a.u.   (converged)
  State  6: excitation energy =   0.4193 a.u.   (converged)
  State  7: excitation energy =   0.4444 a.u.   (converged)
  State  8: excitation energy =   0.4547 a.u.   (converged)
  State  9: excitation energy =   0.4570 a.u.   (converged)
 ------------------------------------------------------------

  Singlet states of irrep A ...  CPU 189.90 s  wall 61.47 s
  TDMs ...  CPU 2.20 s  wall 0.87 s
  SDMs ...  CPU 5.67 s  wall 1.65 s
  Starting TPA DIIS iterations ... 
------------------------------------ 
   It     Res. Norm  Remark
------------------------------------
                       Guess.
    1     4.336e+00  
    2     5.733e+00  
    3     1.078e+00  
    4     2.600e-01  
    5     6.410e-02  
    6     2.738e-02  
    7     8.370e-03  
    8     1.559e-03  
    9     5.874e-04  
   10     9.802e-05  
   11     3.188e-05  
   12     4.903e-06  
   13     1.685e-06  
   14     4.845e-07  Converged.
   ... Converged in 14 steps (norm: 4.84469e-07)
------------------------------------
  Starting TPA DIIS iterations ... 
------------------------------------ 
   It     Res. Norm  Remark
------------------------------------
                       Guess.
    1     4.129e+00  
    2     5.450e+00  
    3     1.029e+00  
    4     2.581e-01  
    5     6.385e-02  
    6     2.737e-02  
    7     8.229e-03  
    8     1.577e-03  
    9     5.963e-04  
   10     9.754e-05  
   11     3.219e-05  
   12     4.873e-06  
   13     1.712e-06  
   14     4.798e-07  Converged.
   ... Converged in 14 steps (norm: 4.79788e-07)
------------------------------------
  Starting TPA DIIS iterations ... 
------------------------------------ 
   It     Res. Norm  Remark
------------------------------------
                       Guess.
    1     6.847e-01  
    2     4.785e-01  
    3     1.684e-01  
    4     6.229e-02  
    5     1.869e-02  
    6     6.697e-03  
    7     1.075e-03  
    8     4.618e-04  
    9     1.277e-04  
   10     3.089e-05  
   11     5.051e-06  
   12     1.842e-06  
   13     8.520e-07  Converged.
   ... Converged in 13 steps (norm: 8.51972e-07)
------------------------------------
  Starting TPA DIIS iterations ... 
------------------------------------ 
   It     Res. Norm  Remark
------------------------------------
                       Guess.
    1     4.486e+00  
    2     6.002e+00  
    3     1.121e+00  
    4     2.754e-01  
    5     6.843e-02  
    6     2.939e-02  
    7     8.976e-03  
    8     1.671e-03  
    9     6.321e-04  
   10     1.058e-04  
   11     3.460e-05  
   12     5.347e-06  
   13     1.845e-06  
   14     5.294e-07  Converged.
   ... Converged in 14 steps (norm: 5.29357e-07)
------------------------------------
  Starting TPA DIIS iterations ... 
------------------------------------ 
   It     Res. Norm  Remark
------------------------------------
                       Guess.
    1     4.272e+00  
    2     5.705e+00  
    3     1.070e+00  
    4     2.733e-01  
    5     6.817e-02  
    6     2.939e-02  
    7     8.826e-03  
    8     1.692e-03  
    9     6.419e-04  
   10     1.053e-04  
   11     3.492e-05  
   12     5.313e-06  
   13     1.875e-06  
   14     5.241e-07  Converged.
   ... Converged in 14 steps (norm: 5.24099e-07)
------------------------------------
  Starting TPA DIIS iterations ... 
------------------------------------ 
   It     Res. Norm  Remark
------------------------------------
                       Guess.
    1     6.913e-01  
    2     4.878e-01  
    3     1.736e-01  
    4     6.662e-02  
    5     1.947e-02  
    6     7.026e-03  
    7     1.147e-03  
    8     5.054e-04  
    9     1.415e-04  
   10     3.343e-05  
   11     5.402e-06  
   12     2.016e-06  
   13     9.588e-07  Converged.
   ... Converged in 13 steps (norm: 9.58823e-07)
------------------------------------
  Starting TPA DIIS iterations ... 
------------------------------------ 
   It     Res. Norm  Remark
------------------------------------
                       Guess.
    1     4.686e+00  
    2     6.363e+00  
    3     1.178e+00  
    4     2.963e-01  
    5     7.432e-02  
    6     3.214e-02  
    7     9.802e-03  
    8     1.824e-03  
    9     6.933e-04  
   10     1.165e-04  
   11     3.836e-05  
   12     5.961e-06  
   13     2.068e-06  
   14     5.915e-07  Converged.
   ... Converged in 14 steps (norm: 5.9147e-07)
------------------------------------
  Starting TPA DIIS iterations ... 
------------------------------------ 
   It     Res. Norm  Remark
------------------------------------
                       Guess.
    1     4.462e+00  
    2     6.047e+00  
    3     1.124e+00  
    4     2.938e-01  
    5     7.404e-02  
    6     3.215e-02  
    7     9.639e-03  
    8     1.847e-03  
    9     7.043e-04  
   10     1.160e-04  
   11     3.870e-05  
   12     5.921e-06  
   13     2.103e-06  
   14     5.854e-07  Converged.
   ... Converged in 14 steps (norm: 5.85429e-07)
------------------------------------
  Starting TPA DIIS iterations ... 
------------------------------------ 
   It     Res. Norm  Remark
------------------------------------
                       Guess.
    1     6.996e-01  
    2     4.998e-01  
    3     1.804e-01  
    4     7.258e-02  
    5     2.048e-02  
    6     7.472e-03  
    7     1.247e-03  
    8     5.668e-04  
    9     1.610e-04  
   10     3.645e-05  
   11     5.876e-06  
   12     2.259e-06  
   13     1.115e-06  
   14     4.274e-07  Converged.
   ... Converged in 14 steps (norm: 4.2739e-07)
------------------------------------
  Starting TPA DIIS iterations ... 
------------------------------------ 
   It     Res. Norm  Remark
------------------------------------
                       Guess.
    1     5.292e+00  
    2     7.485e+00  
    3     1.351e+00  
    4     3.636e-01  
    5     9.327e-02  
    6     4.109e-02  
    7     1.247e-02  
    8     2.314e-03  
    9     8.922e-04  
   10     1.515e-04  
   11     5.082e-05  
   12     8.008e-06  
   13     2.824e-06  
   14     7.994e-07  Converged.
   ... Converged in 14 steps (norm: 7.99409e-07)
------------------------------------
  Starting TPA DIIS iterations ... 
------------------------------------ 
   It     Res. Norm  Remark
------------------------------------
                       Guess.
    1     5.037e+00  
    2     7.113e+00  
    3     1.289e+00  
    4     3.599e-01  
    5     9.293e-02  
    6     4.115e-02  
    7     1.226e-02  
    8     2.349e-03  
    9     9.072e-04  
   10     1.508e-04  
   11     5.121e-05  
   12     7.942e-06  
   13     2.875e-06  
   14     7.910e-07  Converged.
   ... Converged in 14 steps (norm: 7.90979e-07)
------------------------------------
  Starting TPA DIIS iterations ... 
------------------------------------ 
   It     Res. Norm  Remark
------------------------------------
                       Guess.
    1     7.227e-01  
    2     5.343e-01  
    3     2.006e-01  
    4     9.228e-02  
    5     2.351e-02  
    6     8.907e-03  
    7     1.580e-03  
    8     7.742e-04  
    9     2.255e-04  
   10     4.292e-05  
   11     7.383e-06  
   12     3.086e-06  
   13     1.692e-06  
   14     6.077e-07  Converged.
   ... Converged in 14 steps (norm: 6.07712e-07)
------------------------------------
  Starting TPA DIIS iterations ... 
------------------------------------ 
   It     Res. Norm  Remark
------------------------------------
                       Guess.
    1     5.855e+00  
    2     8.562e+00  
    3     1.510e+00  
    4     4.309e-01  
    5     1.122e-01  
    6     5.015e-02  
    7     1.513e-02  
    8     2.804e-03  
    9     1.093e-03  
   10     1.869e-04  
   11     6.368e-05  
   12     1.012e-05  
   13     3.624e-06  
   14     1.019e-06  
   15     3.318e-07  Converged.
   ... Converged in 15 steps (norm: 3.3176e-07)
------------------------------------
  Starting TPA DIIS iterations ... 
------------------------------------ 
   It     Res. Norm  Remark
------------------------------------
                       Guess.
    1     5.571e+00  
    2     8.136e+00  
    3     1.440e+00  
    4     4.258e-01  
    5     1.118e-01  
    6     5.027e-02  
    7     1.489e-02  
    8     2.850e-03  
    9     1.112e-03  
   10     1.861e-04  
   11     6.409e-05  
   12     1.003e-05  
   13     3.691e-06  
   14     1.008e-06  
   15     3.313e-07  Converged.
   ... Converged in 15 steps (norm: 3.31334e-07)
------------------------------------
  Starting TPA DIIS iterations ... 
------------------------------------ 
   It     Res. Norm  Remark
------------------------------------
                       Guess.
    1     7.416e-01  
    2     5.643e-01  
    3     2.188e-01  
    4     1.125e-01  
    5     2.635e-02  
    6     1.035e-02  
    7     1.930e-03  
    8     9.827e-04  
    9     2.885e-04  
   10     4.591e-05  
   11     8.897e-06  
   12     3.955e-06  
   13     2.361e-06  
   14     7.974e-07  Converged.
   ... Converged in 14 steps (norm: 7.97369e-07)
------------------------------------
  Starting TPA DIIS iterations ... 
------------------------------------ 
   It     Res. Norm  Remark
------------------------------------
                       Guess.
    1     6.423e+00  
    2     9.681e+00  
    3     1.670e+00  
    4     5.031e-01  
    5     1.325e-01  
    6     5.999e-02  
    7     1.800e-02  
    8     3.328e-03  
    9     1.311e-03  
   10     2.253e-04  
   11     7.774e-05  
   12     1.244e-05  
   13     4.513e-06  
   14     1.267e-06  
   15     4.158e-07  Converged.
   ... Converged in 15 steps (norm: 4.15803e-07)
------------------------------------
  Starting TPA DIIS iterations ... 
------------------------------------ 
   It     Res. Norm  Remark
------------------------------------
                       Guess.
    1     6.110e+00  
    2     9.198e+00  
    3     1.592e+00  
    4     4.965e-01  
    5     1.320e-01  
    6     6.017e-02  
    7     1.771e-02  
    8     3.388e-03  
    9     1.335e-03  
   10     2.244e-04  
   11     7.816e-05  
   12     1.231e-05  
   13     4.597e-06  
   14     1.254e-06  
   15     4.150e-07  Converged.
   ... Converged in 15 steps (norm: 4.14982e-07)
------------------------------------
  Starting TPA DIIS iterations ... 
------------------------------------ 
   It     Res. Norm  Remark
------------------------------------
                       Guess.
    1     7.588e-01  
    2     5.928e-01  
    3     2.365e-01  
    4     1.346e-01  
    5     2.930e-02  
    6     1.189e-02  
    7     2.324e-03  
    8     1.193e-03  
    9     3.517e-04  
   10     4.759e-05  
   11     1.056e-05  
   12     4.907e-06  
   13     3.152e-06  
   14     1.007e-06  
   15     3.748e-07  Converged.
   ... Converged in 15 steps (norm: 3.7476e-07)
------------------------------------
  Starting TPA DIIS iterations ... 
------------------------------------ 
   It     Res. Norm  Remark
------------------------------------
                       Guess.
    1     8.025e+00  
    2     1.299e+01  
    3     2.115e+00  
    4     7.266e-01  
    5     1.952e-01  
    6     9.103e-02  
    7     2.688e-02  
    8     4.947e-03  
    9     1.996e-03  
   10     3.461e-04  
   11     1.216e-04  
   12     1.980e-05  
   13     7.298e-06  
   14     2.123e-06  
   15     6.856e-07  Converged.
   ... Converged in 15 steps (norm: 6.85601e-07)
------------------------------------
  Starting TPA DIIS iterations ... 
------------------------------------ 
   It     Res. Norm  Remark
------------------------------------
                       Guess.
    1     7.630e+00  
    2     1.234e+01  
    3     2.014e+00  
    4     7.145e-01  
    5     1.947e-01  
    6     9.147e-02  
    7     2.647e-02  
    8     5.049e-03  
    9     2.034e-03  
   10     3.446e-04  
   11     1.220e-04  
   12     1.955e-05  
   13     7.426e-06  
   14     2.105e-06  
   15     6.832e-07  Converged.
   ... Converged in 15 steps (norm: 6.83215e-07)
------------------------------------
  Starting TPA DIIS iterations ... 
------------------------------------ 
   It     Res. Norm  Remark
------------------------------------
                       Guess.
    1     7.993e-01  
    2     6.661e-01  
    3     2.841e-01  
    4     2.033e-01  
    5     3.813e-02  
    6     1.669e-02  
    7     3.629e-03  
    8     1.694e-03  
    9     5.183e-04  
   10     5.455e-05  
   11     1.604e-05  
   12     7.815e-06  
   13     5.818e-06  
   14     1.676e-06  
   15     6.149e-07  Converged.
   ... Converged in 15 steps (norm: 6.14917e-07)
------------------------------------
  Starting TPA DIIS iterations ... 
------------------------------------ 
   It     Res. Norm  Remark
------------------------------------
                       Guess.
    1     9.873e+00  
    2     1.707e+01  
    3     2.615e+00  
    4     1.013e+00  
    5     2.764e-01  
    6     1.321e-01  
    7     3.838e-02  
    8     7.031e-03  
    9     2.897e-03  
   10     5.041e-04  
   11     1.764e-04  
   12     2.968e-05  
   13     1.076e-05  
   14     3.399e-06  
   15     1.098e-06  
   16     2.539e-07  Converged.
   ... Converged in 16 steps (norm: 2.53914e-07)
------------------------------------
  Starting TPA DIIS iterations ... 
------------------------------------ 
   It     Res. Norm  Remark
------------------------------------
                       Guess.
    1     9.384e+00  
    2     1.621e+01  
    3     2.490e+00  
    4     9.932e-01  
    5     2.756e-01  
    6     1.329e-01  
    7     3.781e-02  
    8     7.193e-03  
    9     2.953e-03  
   10     5.018e-04  
   11     1.767e-04  
   12     2.927e-05  
   13     1.094e-05  
   14     3.362e-06  
   15     1.098e-06  
   16     2.681e-07  Converged.
   ... Converged in 16 steps (norm: 2.68073e-07)
------------------------------------
  Starting TPA DIIS iterations ... 
------------------------------------ 
   It     Res. Norm  Remark
------------------------------------
                       Guess.
    1     8.363e-01  
    2     7.409e-01  
    3     3.351e-01  
    4     2.867e-01  
    5     4.914e-02  
    6     2.270e-02  
    7     5.411e-03  
    8     2.029e-03  
    9     6.908e-04  
   10     7.209e-05  
   11     2.360e-05  
   12     1.122e-05  
   13     9.112e-06  
   14     2.565e-06  
   15     8.619e-07  Converged.
   ... Converged in 15 steps (norm: 8.61918e-07)
------------------------------------
  Starting TPA DIIS iterations ... 
------------------------------------ 
   It     Res. Norm  Remark
------------------------------------
                       Guess.
    1     1.083e+01  
    2     1.928e+01  
    3     2.870e+00  
    4     1.171e+00  
    5     3.215e-01  
    6     1.554e-01  
    7     4.479e-02  
    8     8.189e-03  
    9     3.404e-03  
   10     5.927e-04  
   11     2.057e-04  
   12     3.547e-05  
   13     1.269e-05  
   14     4.168e-06  
   15     1.406e-06  
   16     3.251e-07  Converged.
   ... Converged in 16 steps (norm: 3.2515e-07)
------------------------------------
  Starting TPA DIIS iterations ... 
------------------------------------ 
   It     Res. Norm  Remark
------------------------------------
                       Guess.
    1     1.029e+01  
    2     1.832e+01  
    3     2.732e+00  
    4     1.146e+00  
    5     3.207e-01  
    6     1.564e-01  
    7     4.413e-02  
    8     8.385e-03  
    9     3.470e-03  
   10     5.898e-04  
   11     2.062e-04  
   12     3.495e-05  
   13     1.290e-05  
   14     4.114e-06  
   15     1.409e-06  
   16     3.430e-07  Converged.
   ... Converged in 16 steps (norm: 3.42964e-07)
------------------------------------
  Starting TPA DIIS iterations ... 
------------------------------------ 
   It     Res. Norm  Remark
------------------------------------
                       Guess.
    1     8.526e-01  
    2     7.768e-01  
    3     3.603e-01  
    4     3.288e-01  
    5     5.511e-02  
    6     2.585e-02  
    7     6.415e-03  
    8     2.123e-03  
    9     7.748e-04  
   10     8.366e-05  
   11     2.793e-05  
   12     1.294e-05  
   13     1.071e-05  
   14     3.062e-06  
   15     9.714e-07  Converged.
   ... Converged in 15 steps (norm: 9.71426e-07)
------------------------------------
  Starting TPA DIIS iterations ... 
------------------------------------ 
   It     Res. Norm  Remark
------------------------------------
                       Guess.
    1     1.106e+01  
    2     1.982e+01  
    3     2.931e+00  
    4     1.210e+00  
    5     3.327e-01  
    6     1.612e-01  
    7     4.637e-02  
    8     8.475e-03  
    9     3.530e-03  
   10     6.146e-04  
   11     2.129e-04  
   12     3.694e-05  
   13     1.318e-05  
   14     4.364e-06  
   15     1.493e-06  
   16     3.438e-07  Converged.
   ... Converged in 16 steps (norm: 3.43802e-07)
------------------------------------
  Starting TPA DIIS iterations ... 
------------------------------------ 
   It     Res. Norm  Remark
------------------------------------
                       Guess.
    1     1.051e+01  
    2     1.883e+01  
    3     2.790e+00  
    4     1.184e+00  
    5     3.318e-01  
    6     1.623e-01  
    7     4.569e-02  
    8     8.680e-03  
    9     3.599e-03  
   10     6.116e-04  
   11     2.134e-04  
   12     3.638e-05  
   13     1.339e-05  
   14     4.304e-06  
   15     1.497e-06  
   16     3.620e-07  Converged.
   ... Converged in 16 steps (norm: 3.62044e-07)
------------------------------------
  Starting TPA DIIS iterations ... 
------------------------------------ 
   It     Res. Norm  Remark
------------------------------------
                       Guess.
    1     8.563e-01  
    2     7.852e-01  
    3     3.662e-01  
    4     3.386e-01  
    5     5.656e-02  
    6     2.661e-02  
    7     6.662e-03  
    8     2.140e-03  
    9     7.946e-04  
   10     8.658e-05  
   11     2.901e-05  
   12     1.335e-05  
   13     1.109e-05  
   14     3.185e-06  
   15     9.963e-07  Converged.
   ... Converged in 15 steps (norm: 9.96328e-07)
------------------------------------
  Two-photon absorbption ...  CPU 161.04 s  wall 43.78 s
  Transition density matrix of state singlet_A_1 printed to ASCII file 'State_singlet_A_1_Transition.txt'
  Transition density matrix of state singlet_A_2 printed to ASCII file 'State_singlet_A_2_Transition.txt'
  Transition density matrix of state singlet_A_3 printed to ASCII file 'State_singlet_A_3_Transition.txt'
  Transition density matrix of state singlet_A_4 printed to ASCII file 'State_singlet_A_4_Transition.txt'
  Transition density matrix of state singlet_A_5 printed to ASCII file 'State_singlet_A_5_Transition.txt'
  Transition density matrix of state singlet_A_6 printed to ASCII file 'State_singlet_A_6_Transition.txt'
  Transition density matrix of state singlet_A_7 printed to ASCII file 'State_singlet_A_7_Transition.txt'
  Transition density matrix of state singlet_A_8 printed to ASCII file 'State_singlet_A_8_Transition.txt'
  Transition density matrix of state singlet_A_9 printed to ASCII file 'State_singlet_A_9_Transition.txt'
  Transition density matrix of state singlet_A_10 printed to ASCII file 'State_singlet_A_10_Transition.txt'
  Transition properties ...  CPU 0.35 s  wall 0.59 s
  Difference density matrix of state singlet_A_1 printed to ASCII file 'State_singlet_A_1_Difference.txt'
  Total density matrix of state singlet_A_1 printed to ASCII file 'State_singlet_A_1_Total.txt'
  Difference density matrix of state singlet_A_2 printed to ASCII file 'State_singlet_A_2_Difference.txt'
  Total density matrix of state singlet_A_2 printed to ASCII file 'State_singlet_A_2_Total.txt'
  Difference density matrix of state singlet_A_3 printed to ASCII file 'State_singlet_A_3_Difference.txt'
  Total density matrix of state singlet_A_3 printed to ASCII file 'State_singlet_A_3_Total.txt'
  Difference density matrix of state singlet_A_4 printed to ASCII file 'State_singlet_A_4_Difference.txt'
  Total density matrix of state singlet_A_4 printed to ASCII file 'State_singlet_A_4_Total.txt'
  Difference density matrix of state singlet_A_5 printed to ASCII file 'State_singlet_A_5_Difference.txt'
  Total density matrix of state singlet_A_5 printed to ASCII file 'State_singlet_A_5_Total.txt'
  Difference density matrix of state singlet_A_6 printed to ASCII file 'State_singlet_A_6_Difference.txt'
  Total density matrix of state singlet_A_6 printed to ASCII file 'State_singlet_A_6_Total.txt'
  Difference density matrix of state singlet_A_7 printed to ASCII file 'State_singlet_A_7_Difference.txt'
  Total density matrix of state singlet_A_7 printed to ASCII file 'State_singlet_A_7_Total.txt'
  Difference density matrix of state singlet_A_8 printed to ASCII file 'State_singlet_A_8_Difference.txt'
  Total density matrix of state singlet_A_8 printed to ASCII file 'State_singlet_A_8_Total.txt'
  Difference density matrix of state singlet_A_9 printed to ASCII file 'State_singlet_A_9_Difference.txt'
  Total density matrix of state singlet_A_9 printed to ASCII file 'State_singlet_A_9_Total.txt'
  Difference density matrix of state singlet_A_10 printed to ASCII file 'State_singlet_A_10_Difference.txt'
  Total density matrix of state singlet_A_10 printed to ASCII file 'State_singlet_A_10_Total.txt'
  Properties ...  CPU 0.64 s  wall 0.94 s
  ISR TDMS ...  CPU 31.82 s  wall 9.65 s
  ISR transition properties ...  CPU 0.48 s  wall 0.24 s
  Sum-over-states TPA ...  CPU 0.00 s  wall 0.00 s

--------------------------------------------------------------------------------
                   State-averaged natural transition orbitals
--------------------------------------------------------------------------------
--------------------------------------------------------------------------------
  SA-NTO decomposition ...  CPU 0.01 s  wall 0.03 s

--------------------------------------------------------------------------------
                             Excited State Summary
--------------------------------------------------------------------------------
--------------------------------------------------------------------------------

  Excited state 1 (singlet, A)                                     [converged]
  ----------------------------------------------------------------------------
  Term symbol:  2 (1) A                                     R^2 =  3.63430e-13

  Total energy:                                            -77.9974935264 a.u.
  Excitation energy:                                               8.775086 eV

  Osc. strength:                                                      0.448185
  Trans. dip. moment [a.u.]:           [   1.046907,   -0.994289,   -0.009708]
  <i|r^2|0> [a.u.]:                    [   6.177754,   -0.245397,    0.000176]
  Two-photon absorption cross-section (SoS) [a.u.]:                   0.000000
  Two-photon absorption matrix (SoS) [a.u.]:
                                       |    0.000028   -0.000011    0.000083 |
                                       |   -0.000011    0.000003    0.000121 |
                                       |    0.000083    0.000121    0.000039 |
  Two-photon absorption cross-section [a.u.]:                         0.000001
  Two-photon absorption matrix [a.u.]:
                                       |    0.000024    0.000019   -0.000276 |
                                       |    0.000019   -0.000009   -0.000231 |
                                       |   -0.000276   -0.000231   -0.000046 |

  Dip. moment [a.u.]:                  [  -0.000004,    0.000000,    0.000019]
  Total dipole [Debye]:                                               0.000050
  <r^2> [a.u.]:                        [ 176.537339,   35.952684,   11.917566]
  Total <r^2> [a.u.]:                                               224.407589

  V1^2 = 0.9713, V2^2 = 0.0287

  Important amplitudes:
      occ i     occ j     vir a      vir b          v   
    -----------------------------------------------------
     8 (A) A              9 (A) A                 0.6809
     4 (A) A             10 (A) A                 0.0618
     6 (A) A             14 (A) A                -0.0607
     7 (A) A             16 (A) A                -0.0580
     5 (A) A             13 (A) A                -0.0531
     6 (A) A             23 (A) A                -0.0483
     8 (A) A             20 (A) A                 0.0346
     6 (A) A             19 (A) A                -0.0294
     3 (A) A             12 (A) A                -0.0284
     5 (A) A             22 (A) A                 0.0220
     4 (A) A             24 (A) A                 0.0189
     3 (A) A             26 (A) A                 0.0187
     8 (A) A   8 (A) B   17 (A) A   20 (A) B     -0.0183
     7 (A) A             11 (A) A                 0.0178
     8 (A) A   8 (A) B    9 (A) A   28 (A) B     -0.0168
     6 (A) A             26 (A) A                 0.0165
     7 (A) A             21 (A) A                -0.0152
     6 (A) A             12 (A) A                 0.0145
     3 (A) A             14 (A) A                -0.0142
     3 (A) A   4 (A) B    9 (A) A    9 (A) B     -0.0129
     3 (A) A             19 (A) A                -0.0119
     8 (A) A   8 (A) B   18 (A) A   19 (A) B      0.0110
     7 (A) A             32 (A) A                -0.0098
     7 (A) A             36 (A) A                -0.0086
     3 (A) A             23 (A) A                -0.0082
     8 (A) A   8 (A) B   25 (A) A   29 (A) B     -0.0076
     6 (A) A             35 (A) A                 0.0072
     6 (A) A             40 (A) A                -0.0067
     3 (A) A   6 (A) B    9 (A) A   28 (A) B     -0.0064
     5 (A) A   8 (A) B   11 (A) A    9 (A) B     -0.0063
     7 (A) A   8 (A) B   13 (A) A   20 (A) B     -0.0060
     5 (A) A   8 (A) B   11 (A) A   20 (A) B      0.0060
     5 (A) A             27 (A) A                -0.0060
     5 (A) A   7 (A) B    9 (A) A    9 (A) B      0.0060
     5 (A) A   8 (A) B   16 (A) A    9 (A) B     -0.0060
     6 (A) A   8 (A) A   19 (A) A   28 (A) A     -0.0059
     3 (A) A   5 (A) B    9 (A) A   25 (A) B     -0.0058
     7 (A) A   8 (A) B   22 (A) A   20 (A) B      0.0057
     3 (A) A             40 (A) A                -0.0057
     8 (A) A   8 (A) B   19 (A) A   30 (A) B      0.0056
    -----------------------------------------------------

  Density matrix analysis:
  ------------------------
  NOs
    Occupation of frontier NOs:
       0.9492   1.0219
    Number of electrons: 16.000000
    Number of unpaired electrons: n_u =  2.31652, n_u,nl =  2.03313
    NO participation ratio (PR_NO):  2.873200
  
  
  Mulliken Population Analysis
  Atom      Charge (e)              h+              e-           Del q
  --------------------------------------------------------------------
   1 H        0.062973        0.020660       -0.012414        0.008247
   2 C       -0.125950        0.490992       -0.507486       -0.016494
   3 H        0.062984        0.020662       -0.012413        0.008248
   4 C       -0.125961        0.490991       -0.507488       -0.016496
   5 H        0.062983        0.020662       -0.012413        0.008249
   6 H        0.062972        0.020661       -0.012414        0.008247
  --------------------------------------------------------------------
  Sum:       -0.000000        1.064628       -1.064628        0.000000
  
  Multipole moment analysis of the density matrix
    Molecular charge:                      -0.000000
    Number of electrons:                   16.000000
      Center of electronic charge [Ang]: [ -1.561338,  -0.065287,   0.002126]
    Total nuclear charge:                  16.000000
      Center of nuclear charge [Ang]:    [ -1.561339,  -0.065287,   0.002127]
    Dipole moment [D]:                     0.000050
      Cartesian components [D]:          [ -0.000010,   0.000001,   0.000049]
    RMS size of the density [Ang]:         1.218806
      Cartesian components [Ang]:        [  0.807428,   0.790553,   0.456699]
  
  Exciton analysis of the difference density matrix
    <r_h> [Ang]:                  [ -1.561336,  -0.065287,   0.002119]
    <r_e> [Ang]:                  [ -1.561336,  -0.065287,   0.002117]
    |<r_e - r_h>| [Ang]:            0.000002
    Hole size [Ang]:                1.286662
      Cartesian components [Ang]: [  0.729855,   0.714536,   0.782464]
    Electron size [Ang]:            1.464036
      Cartesian components [Ang]: [  0.854158,   0.831577,   0.849879]

  Transition density matrix analysis:
  -----------------------------------
  
  CT numbers (Mulliken)
    omega =     0.9532
    <Phe> =    -0.1590
  
  Exciton analysis of the transition density matrix
    Trans. dipole moment [D]:             1.834958
      Cartesian components [D]:         [  1.330486,  -1.263615,  -0.012338]
    <r_h> [Ang]:                        [ -1.561335,  -0.065289,   0.002120]
    <r_e> [Ang]:                        [ -1.561336,  -0.065287,   0.002116]
    |<r_e - r_h>| [Ang]:                  0.000005
    Hole size [Ang]:                      1.212493
      Cartesian components [Ang]:       [  0.648493,   0.635719,   0.803404]
    Electron size [Ang]:                  1.487591
      Cartesian components [Ang]:       [  0.864948,   0.840774,   0.870570]
    RMS electron-hole separation [Ang]:   1.935848
      Cartesian components [Ang]:       [  1.105404,   1.075037,   1.170421]
    Covariance(r_h, r_e) [Ang^2]:        -0.032221
    Correlation coefficient:             -0.017864
    Center-of-mass size [Ang]:            0.951134
      Cartesian components [Ang]:       [  0.528071,   0.516327,   0.599336]

  Decomposition into state-averaged NTOs
    H- 0 -> L+ 0: -0.6697 ( 89.7%)
    H- 2 -> L+ 5:  0.0820 (  1.3%)
                   omega =  95.3%
  ----------------------------------------------------------------------------


  Excited state 2 (singlet, A)                                     [converged]
  ----------------------------------------------------------------------------
  Term symbol:  3 (1) A                                     R^2 =  5.16073e-13

  Total energy:                                            -77.9910651968 a.u.
  Excitation energy:                                               8.950010 eV

  Osc. strength:                                                      0.000000
  Trans. dip. moment [a.u.]:           [  -0.000686,    0.000634,    0.000010]
  <i|r^2|0> [a.u.]:                    [  -0.070046,   -0.086751,    0.152906]
  Two-photon absorption cross-section (SoS) [a.u.]:                   4.423437
  Two-photon absorption matrix (SoS) [a.u.]:
                                       |   -0.049058   -0.056505    0.506380 |
                                       |   -0.056505   -0.064593    0.532511 |
                                       |    0.506380    0.532511    0.113655 |
  Two-photon absorption cross-section [a.u.]:                         0.178663
  Two-photon absorption matrix [a.u.]:
                                       |    0.009075    0.011316   -0.101824 |
                                       |    0.011316    0.013765   -0.106958 |
                                       |   -0.101824   -0.106958   -0.022840 |

  Dip. moment [a.u.]:                  [  -0.000050,    0.000052,    0.000037]
  Total dipole [Debye]:                                               0.000206
  <r^2> [a.u.]:                        [ 174.863312,   34.289470,   13.211249]
  Total <r^2> [a.u.]:                                               222.364031

  V1^2 = 0.9542, V2^2 = 0.0458

  Important amplitudes:
      occ i     occ j     vir a      vir b          v   
    -----------------------------------------------------
     7 (A) A              9 (A) A                -0.6687
     8 (A) A             11 (A) A                -0.1506
     7 (A) A             20 (A) A                -0.0757
     5 (A) A   8 (A) B    9 (A) A    9 (A) B     -0.0313
     8 (A) A             16 (A) A                -0.0280
     8 (A) A             21 (A) A                 0.0176
     5 (A) A             28 (A) A                -0.0151
     4 (A) A   7 (A) B    9 (A) A   19 (A) B     -0.0136
     5 (A) A   7 (A) B    9 (A) A   16 (A) B     -0.0134
     7 (A) A   8 (A) B   20 (A) A   17 (A) B      0.0106
     7 (A) A   8 (A) A    9 (A) A   28 (A) A     -0.0098
     5 (A) A   8 (A) B    9 (A) A   20 (A) B     -0.0094
     4 (A) A   6 (A) B    9 (A) A   16 (A) B     -0.0091
     5 (A) A   6 (A) A    9 (A) A   23 (A) A     -0.0090
     5 (A) A   6 (A) A    9 (A) A   14 (A) A     -0.0088
     6 (A) A   7 (A) B    9 (A) A   18 (A) B      0.0086
     8 (A) A   7 (A) B    9 (A) A   28 (A) B      0.0085
     4 (A) A   5 (A) A    9 (A) A   10 (A) A     -0.0085
     5 (A) A   6 (A) B    9 (A) A   19 (A) B     -0.0084
     5 (A) A   6 (A) B    9 (A) A   23 (A) B     -0.0080
     3 (A) A   7 (A) B    9 (A) A   18 (A) B     -0.0080
     5 (A) A   7 (A) A    9 (A) A   16 (A) A     -0.0078
     4 (A) A   8 (A) B    9 (A) A   25 (A) B     -0.0076
     4 (A) A   7 (A) B   19 (A) A    9 (A) B     -0.0075
     7 (A) A   8 (A) B   17 (A) A   20 (A) B      0.0074
     5 (A) A   5 (A) B    9 (A) A   13 (A) B     -0.0073
     7 (A) A   8 (A) B   19 (A) A   18 (A) B     -0.0070
     4 (A) A   5 (A) B    9 (A) A   18 (A) B      0.0069
     5 (A) A   8 (A) A    9 (A) A   20 (A) A     -0.0068
     7 (A) A   7 (A) B   20 (A) A   22 (A) B     -0.0066
     7 (A) A   8 (A) B   17 (A) A    9 (A) B      0.0064
     5 (A) A   7 (A) B   11 (A) A   20 (A) B     -0.0062
     5 (A) A   6 (A) B    9 (A) A   14 (A) B     -0.0062
     4 (A) A   5 (A) B   10 (A) A    9 (A) B      0.0061
     4 (A) A   7 (A) A    9 (A) A   19 (A) A     -0.0061
     5 (A) A             38 (A) A                -0.0060
     4 (A) A   6 (A) B   16 (A) A    9 (A) B     -0.0059
     4 (A) A   8 (A) A    9 (A) A   25 (A) A     -0.0056
     6 (A) A   7 (A) A   19 (A) A   28 (A) A      0.0055
     5 (A) A   7 (A) A   11 (A) A   20 (A) A     -0.0054
    -----------------------------------------------------

  Density matrix analysis:
  ------------------------
  NOs
    Occupation of frontier NOs:
       0.9563   1.0547
    Number of electrons: 16.000000
    Number of unpaired electrons: n_u =  2.35776, n_u,nl =  2.06438
    NO participation ratio (PR_NO):  3.041123
  
  
  Mulliken Population Analysis
  Atom      Charge (e)              h+              e-           Del q
  --------------------------------------------------------------------
   1 H        0.155229        0.125141       -0.024639        0.100502
   2 C       -0.310446        0.272317       -0.473307       -0.200990
   3 H        0.155211        0.125122       -0.024646        0.100475
   4 C       -0.310453        0.272335       -0.473323       -0.200988
   5 H        0.155224        0.125131       -0.024642        0.100490
   6 H        0.155236        0.125153       -0.024641        0.100512
  --------------------------------------------------------------------
  Sum:       -0.000000        1.045198       -1.045198        0.000000
  
  Multipole moment analysis of the density matrix
    Molecular charge:                      -0.000000
    Number of electrons:                   16.000000
      Center of electronic charge [Ang]: [ -1.561337,  -0.065288,   0.002126]
    Total nuclear charge:                  16.000000
      Center of nuclear charge [Ang]:    [ -1.561339,  -0.065287,   0.002127]
    Dipole moment [D]:                     0.000206
      Cartesian components [D]:          [ -0.000127,   0.000132,   0.000094]
    RMS size of the density [Ang]:         1.204046
      Cartesian components [Ang]:        [  0.789080,   0.771922,   0.480849]
  
  Exciton analysis of the difference density matrix
    <r_h> [Ang]:                  [ -1.561370,  -0.065262,   0.002129]
    <r_e> [Ang]:                  [ -1.561347,  -0.065287,   0.002118]
    |<r_e - r_h>| [Ang]:            0.000036
    Hole size [Ang]:                1.496435
      Cartesian components [Ang]: [  1.014143,   1.001517,   0.455844]
    Electron size [Ang]:            1.479476
      Cartesian components [Ang]: [  0.883524,   0.861249,   0.816386]

  Transition density matrix analysis:
  -----------------------------------
  
  CT numbers (Mulliken)
    omega =     0.9217
    <Phe> =    -0.0113
  
  Exciton analysis of the transition density matrix
    Trans. dipole moment [D]:             0.001187
      Cartesian components [D]:         [ -0.000872,   0.000806,   0.000013]
    <r_h> [Ang]:                        [ -1.561376,  -0.065257,   0.002131]
    <r_e> [Ang]:                        [ -1.561343,  -0.065290,   0.002116]
    |<r_e - r_h>| [Ang]:                  0.000049
    Hole size [Ang]:                      1.527692
      Cartesian components [Ang]:       [  1.039154,   1.026488,   0.447576]
    Electron size [Ang]:                  1.474854
      Cartesian components [Ang]:       [  0.872382,   0.849331,   0.832334]
    RMS electron-hole separation [Ang]:   2.103437
      Cartesian components [Ang]:       [  1.340740,   1.317277,   0.944269]
    Covariance(r_h, r_e) [Ang^2]:         0.042294
    Correlation coefficient:              0.018771
    Center-of-mass size [Ang]:            1.071637
      Cartesian components [Ang]:       [  0.686330,   0.673584,   0.472907]

  Decomposition into state-averaged NTOs
    H- 1 -> L+ 0:  0.6611 ( 87.4%)
    H- 0 -> L+ 2:  0.1506 (  4.5%)
                   omega =  92.2%
  ----------------------------------------------------------------------------


  Excited state 3 (singlet, A)                                     [converged]
  ----------------------------------------------------------------------------
  Term symbol:  4 (1) A                                     R^2 =  2.89985e-13

  Total energy:                                            -77.9830945239 a.u.
  Excitation energy:                                               9.166903 eV

  Osc. strength:                                                      0.023553
  Trans. dip. moment [a.u.]:           [   0.015364,    0.019642,   -0.322884]
  <i|r^2|0> [a.u.]:                    [   0.090435,    0.005049,    0.002604]
  Two-photon absorption cross-section (SoS) [a.u.]:                   0.000017
  Two-photon absorption matrix (SoS) [a.u.]:
                                       |   -0.001402   -0.000074   -0.000157 |
                                       |   -0.000074    0.001466    0.000032 |
                                       |   -0.000157    0.000032    0.000132 |
  Two-photon absorption cross-section [a.u.]:                         0.000009
  Two-photon absorption matrix [a.u.]:
                                       |   -0.000954   -0.000076   -0.000136 |
                                       |   -0.000076    0.001120    0.000039 |
                                       |   -0.000136    0.000039    0.000077 |

  Dip. moment [a.u.]:                  [   0.000041,    0.000056,   -0.000016]
  Total dipole [Debye]:                                               0.000181
  <r^2> [a.u.]:                        [ 181.321788,   40.946695,   11.053014]
  Total <r^2> [a.u.]:                                               233.321497

  V1^2 = 0.9579, V2^2 = 0.0421

  Important amplitudes:
      occ i     occ j     vir a      vir b          v   
    -----------------------------------------------------
     8 (A) A             10 (A) A                 0.6887
     8 (A) A             24 (A) A                 0.0509
     8 (A) A             18 (A) A                -0.0332
     4 (A) A              9 (A) A                 0.0247
     8 (A) A   8 (A) B    9 (A) A   12 (A) B     -0.0222
     8 (A) A   8 (A) B   10 (A) A   17 (A) B      0.0173
     5 (A) A   8 (A) B   11 (A) A   10 (A) B     -0.0170
     8 (A) A             15 (A) A                 0.0144
     7 (A) A   8 (A) B   13 (A) A   10 (A) B      0.0144
     6 (A) A   8 (A) A   10 (A) A   15 (A) A     -0.0113
     4 (A) A   8 (A) B   12 (A) A   10 (A) B     -0.0113
     6 (A) A   8 (A) B   15 (A) A   10 (A) B      0.0110
     7 (A) A   8 (A) B   22 (A) A   10 (A) B     -0.0109
     4 (A) A   8 (A) A   10 (A) A   12 (A) A      0.0108
     7 (A) A   8 (A) A   10 (A) A   22 (A) A      0.0100
     7 (A) A   8 (A) A   10 (A) A   13 (A) A     -0.0099
     5 (A) A   8 (A) A   10 (A) A   11 (A) A      0.0098
     5 (A) A   8 (A) B   21 (A) A   10 (A) B      0.0094
     6 (A) A   8 (A) B   10 (A) A   10 (A) B     -0.0090
     6 (A) A   8 (A) A   10 (A) A   18 (A) A     -0.0085
     7 (A) A   8 (A) A   12 (A) A   16 (A) A      0.0084
     3 (A) A   4 (A) B   10 (A) A    9 (A) B     -0.0079
     5 (A) A   8 (A) A   10 (A) A   21 (A) A     -0.0079
     4 (A) A   8 (A) B   19 (A) A   10 (A) B     -0.0076
     8 (A) A   8 (A) B    9 (A) A   23 (A) B      0.0075
     8 (A) A   8 (A) B   10 (A) A   28 (A) B     -0.0074
     7 (A) A   8 (A) B   16 (A) A   12 (A) B     -0.0072
     5 (A) A   8 (A) B   10 (A) A   11 (A) B     -0.0072
     3 (A) A   8 (A) A   10 (A) A   24 (A) A     -0.0072
     3 (A) A   8 (A) B   10 (A) A   10 (A) B      0.0071
     8 (A) A   8 (A) B    9 (A) A   19 (A) B     -0.0070
     3 (A) A   8 (A) B   10 (A) A   18 (A) B     -0.0068
     6 (A) A   8 (A) B   18 (A) A   10 (A) B      0.0064
     3 (A) A   6 (A) B   10 (A) A   28 (A) B     -0.0062
     7 (A) A   8 (A) B   12 (A) A   11 (A) B     -0.0059
     6 (A) A             28 (A) A                 0.0058
     5 (A) A   8 (A) A   10 (A) A   16 (A) A      0.0057
     3 (A) A   5 (A) B   10 (A) A   25 (A) B     -0.0056
     4 (A) A   8 (A) A   10 (A) A   23 (A) A     -0.0055
     6 (A) A   8 (A) A   11 (A) A   16 (A) A      0.0055
    -----------------------------------------------------

  Density matrix analysis:
  ------------------------
  NOs
    Occupation of frontier NOs:
       0.9813   0.9847
    Number of electrons: 16.000000
    Number of unpaired electrons: n_u =  2.28853, n_u,nl =  2.02500
    NO participation ratio (PR_NO):  2.700602
  
  
  Mulliken Population Analysis
  Atom      Charge (e)              h+              e-           Del q
  --------------------------------------------------------------------
   1 H       -0.155310        0.054557       -0.264593       -0.210036
   2 C        0.310622        0.538217       -0.118140        0.420077
   3 H       -0.155311        0.054558       -0.264604       -0.210046
   4 C        0.310613        0.538213       -0.118135        0.420078
   5 H       -0.155292        0.054559       -0.264585       -0.210026
   6 H       -0.155323        0.054557       -0.264604       -0.210047
  --------------------------------------------------------------------
  Sum:       -0.000000        1.294661       -1.294661        0.000000
  
  Multipole moment analysis of the density matrix
    Molecular charge:                      -0.000000
    Number of electrons:                   16.000000
      Center of electronic charge [Ang]: [ -1.561340,  -0.065288,   0.002128]
    Total nuclear charge:                  16.000000
      Center of nuclear charge [Ang]:    [ -1.561339,  -0.065287,   0.002127]
    Dipole moment [D]:                     0.000181
      Cartesian components [D]:          [  0.000103,   0.000143,  -0.000041]
    RMS size of the density [Ang]:         1.281207
      Cartesian components [Ang]:        [  0.857713,   0.844025,   0.439821]
  
  Exciton analysis of the difference density matrix
    <r_h> [Ang]:                  [ -1.561337,  -0.065288,   0.002122]
    <r_e> [Ang]:                  [ -1.561356,  -0.065310,   0.002135]
    |<r_e - r_h>| [Ang]:            0.000032
    Hole size [Ang]:                1.411883
      Cartesian components [Ang]: [  0.835987,   0.822172,   0.786495]
    Electron size [Ang]:            2.079086
      Cartesian components [Ang]: [  1.376802,   1.380199,   0.722542]

  Transition density matrix analysis:
  -----------------------------------
  
  CT numbers (Mulliken)
    omega =     0.9251
    <Phe> =    -0.0108
  
  Exciton analysis of the transition density matrix
    Trans. dipole moment [D]:             0.411566
      Cartesian components [D]:         [  0.019526,   0.024962,  -0.410344]
    <r_h> [Ang]:                        [ -1.561334,  -0.065288,   0.002118]
    <r_e> [Ang]:                        [ -1.561361,  -0.065319,   0.002139]
    |<r_e - r_h>| [Ang]:                  0.000047
    Hole size [Ang]:                      1.210643
      Cartesian components [Ang]:       [  0.634708,   0.622256,   0.821949]
    Electron size [Ang]:                  2.302429
      Cartesian components [Ang]:       [  1.523826,   1.529876,   0.799131]
    RMS electron-hole separation [Ang]:   2.591310
      Cartesian components [Ang]:       [  1.643165,   1.644507,   1.144767]
    Covariance(r_h, r_e) [Ang^2]:         0.025974
    Correlation coefficient:              0.009318
    Center-of-mass size [Ang]:            1.305640
      Cartesian components [Ang]:       [  0.829127,   0.829314,   0.574005]

  Decomposition into state-averaged NTOs
    H- 0 -> L+ 1:  0.6794 ( 92.3%)
                   omega =  92.5%
  ----------------------------------------------------------------------------


  Excited state 4 (singlet, A)                                     [converged]
  ----------------------------------------------------------------------------
  Term symbol:  5 (1) A                                     R^2 =  3.47552e-13

  Total energy:                                            -77.9619565067 a.u.
  Excitation energy:                                               9.742098 eV

  Osc. strength:                                                      0.000000
  Trans. dip. moment [a.u.]:           [   0.000172,   -0.000160,   -0.000007]
  <i|r^2|0> [a.u.]:                    [  -0.012568,   -0.018003,    0.031548]
  Two-photon absorption cross-section (SoS) [a.u.]:                 132.145583
  Two-photon absorption matrix (SoS) [a.u.]:
                                       |   -0.267949   -0.308826    2.768007 |
                                       |   -0.308826   -0.353245    2.910280 |
                                       |    2.768007    2.910280    0.621199 |
  Two-photon absorption cross-section [a.u.]:                        77.584265
  Two-photon absorption matrix [a.u.]:
                                       |   -0.206058   -0.236667    2.120823 |
                                       |   -0.236667   -0.269926    2.230065 |
                                       |    2.120823    2.230065    0.475985 |

  Dip. moment [a.u.]:                  [  -0.000056,   -0.000050,   -0.000028]
  Total dipole [Debye]:                                               0.000203
  <r^2> [a.u.]:                        [ 181.407829,   40.926935,   10.775011]
  Total <r^2> [a.u.]:                                               233.109775

  V1^2 = 0.9633, V2^2 = 0.0367

  Important amplitudes:
      occ i     occ j     vir a      vir b          v   
    -----------------------------------------------------
     8 (A) A             11 (A) A                -0.6689
     7 (A) A              9 (A) A                 0.1528
     8 (A) A             21 (A) A                 0.0779
     8 (A) A             16 (A) A                -0.0680
     8 (A) A   8 (A) B    9 (A) A   13 (A) B     -0.0166
     5 (A) A   8 (A) B   11 (A) A   11 (A) B      0.0157
     7 (A) A             20 (A) A                 0.0139
     8 (A) A   8 (A) B   11 (A) A   17 (A) B     -0.0137
     7 (A) A   8 (A) B   13 (A) A   11 (A) B     -0.0127
     4 (A) A   8 (A) B   12 (A) A   11 (A) B      0.0111
     8 (A) A   8 (A) B    9 (A) A   22 (A) B      0.0110
     5 (A) A   8 (A) A   11 (A) A   21 (A) A      0.0110
     7 (A) A   8 (A) A   11 (A) A   22 (A) A     -0.0095
     6 (A) A   8 (A) B   10 (A) A   11 (A) B      0.0091
     6 (A) A   8 (A) B   15 (A) A   11 (A) B     -0.0090
     7 (A) A   8 (A) B   22 (A) A   11 (A) B      0.0089
     3 (A) A   4 (A) B   11 (A) A    9 (A) B      0.0083
     3 (A) A   8 (A) B   11 (A) A   18 (A) B      0.0080
     6 (A) A   8 (A) A   11 (A) A   15 (A) A      0.0080
     7 (A) A   8 (A) A   13 (A) A   16 (A) A      0.0079
     7 (A) A   8 (A) A   11 (A) A   13 (A) A      0.0075
     4 (A) A   8 (A) B   19 (A) A   11 (A) B      0.0070
     5 (A) A   8 (A) B   21 (A) A   11 (A) B     -0.0069
     5 (A) A   8 (A) B    9 (A) A    9 (A) B      0.0068
     4 (A) A   8 (A) A   11 (A) A   12 (A) A     -0.0062
     3 (A) A   6 (A) B   11 (A) A   28 (A) B      0.0060
     6 (A) A   8 (A) A   11 (A) A   18 (A) A      0.0058
     6 (A) A   8 (A) B   18 (A) A   11 (A) B     -0.0058
     7 (A) A   8 (A) B   16 (A) A   13 (A) B     -0.0057
     3 (A) A   8 (A) B   11 (A) A   30 (A) B      0.0057
     5 (A) A   8 (A) B   10 (A) A   10 (A) B      0.0055
     7 (A) A   8 (A) B   12 (A) A   10 (A) B      0.0055
     8 (A) A   8 (A) B   20 (A) A   22 (A) B      0.0055
     6 (A) A   8 (A) B   11 (A) A   10 (A) B      0.0055
     3 (A) A   5 (A) B   11 (A) A   25 (A) B      0.0055
     3 (A) A   8 (A) A   11 (A) A   18 (A) A      0.0054
     3 (A) A   8 (A) A   11 (A) A   24 (A) A      0.0052
     5 (A) A   8 (A) A   11 (A) A   16 (A) A     -0.0050
     6 (A) A   8 (A) A   10 (A) A   16 (A) A     -0.0047
     8 (A) A   8 (A) B   11 (A) A   28 (A) B      0.0043
    -----------------------------------------------------

  Density matrix analysis:
  ------------------------
  NOs
    Occupation of frontier NOs:
       0.9392   1.0291
    Number of electrons: 16.000000
    Number of unpaired electrons: n_u =  2.32185, n_u,nl =  2.05063
    NO participation ratio (PR_NO):  2.929093
  
  
  Mulliken Population Analysis
  Atom      Charge (e)              h+              e-           Del q
  --------------------------------------------------------------------
   1 H       -0.125125        0.045925       -0.225777       -0.179852
   2 C        0.250487        0.495623       -0.135680        0.359943
   3 H       -0.125359        0.045914       -0.226008       -0.180094
   4 C        0.250472        0.495623       -0.135686        0.359937
   5 H       -0.125373        0.045915       -0.226022       -0.180107
   6 H       -0.125102        0.045926       -0.225753       -0.179827
  --------------------------------------------------------------------
  Sum:       -0.000000        1.174926       -1.174926        0.000000
  
  Multipole moment analysis of the density matrix
    Molecular charge:                      -0.000000
    Number of electrons:                   16.000000
      Center of electronic charge [Ang]: [ -1.561337,  -0.065285,   0.002128]
    Total nuclear charge:                  16.000000
      Center of nuclear charge [Ang]:    [ -1.561339,  -0.065287,   0.002127]
    Dipole moment [D]:                     0.000203
      Cartesian components [D]:          [ -0.000142,  -0.000126,  -0.000071]
    RMS size of the density [Ang]:         1.279765
      Cartesian components [Ang]:        [  0.858596,   0.843820,   0.434255]
  
  Exciton analysis of the difference density matrix
    <r_h> [Ang]:                  [ -1.561337,  -0.065284,   0.002122]
    <r_e> [Ang]:                  [ -1.561313,  -0.065261,   0.002141]
    |<r_e - r_h>| [Ang]:            0.000038
    Hole size [Ang]:                1.393065
      Cartesian components [Ang]: [  0.818222,   0.805025,   0.789353]
    Electron size [Ang]:            2.111127
      Cartesian components [Ang]: [  1.417319,   1.413360,   0.671176]

  Transition density matrix analysis:
  -----------------------------------
  
  CT numbers (Mulliken)
    omega =     0.9294
    <Phe> =    -0.0148
  
  Exciton analysis of the transition density matrix
    Trans. dipole moment [D]:             0.000299
      Cartesian components [D]:         [  0.000219,  -0.000204,  -0.000009]
    <r_h> [Ang]:                        [ -1.561338,  -0.065286,   0.002119]
    <r_e> [Ang]:                        [ -1.561310,  -0.065256,   0.002144]
    |<r_e - r_h>| [Ang]:                  0.000049
    Hole size [Ang]:                      1.227046
      Cartesian components [Ang]:       [  0.660328,   0.647965,   0.806071]
    Electron size [Ang]:                  2.244731
      Cartesian components [Ang]:       [  1.506889,   1.503962,   0.711479]
    RMS electron-hole separation [Ang]:   2.547095
      Cartesian components [Ang]:       [  1.636386,   1.629428,   1.074663]
    Covariance(r_h, r_e) [Ang^2]:         0.028382
    Correlation coefficient:              0.010304
    Center-of-mass size [Ang]:            1.284642
      Cartesian components [Ang]:       [  0.827003,   0.822873,   0.537821]

  Decomposition into state-averaged NTOs
    H- 0 -> L+ 2:  0.6643 ( 88.3%)
    H- 1 -> L+ 0: -0.1507 (  4.5%)
                   omega =  92.9%
  ----------------------------------------------------------------------------


  Excited state 5 (singlet, A)                                     [converged]
  ----------------------------------------------------------------------------
  Term symbol:  6 (1) A                                     R^2 =  7.05908e-13

  Total energy:                                            -77.9456092833 a.u.
  Excitation energy:                                              10.186928 eV

  Osc. strength:                                                      0.000000
  Trans. dip. moment [a.u.]:           [  -0.000039,   -0.000022,    0.000001]
  <i|r^2|0> [a.u.]:                    [   0.078687,   -0.094188,    0.015336]
  Two-photon absorption cross-section (SoS) [a.u.]:                 238.106339
  Two-photon absorption matrix (SoS) [a.u.]:
                                       |    0.379642    0.057669   -3.946884 |
                                       |    0.057669   -0.451802    3.742359 |
                                       |   -3.946884    3.742359    0.073358 |
  Two-photon absorption cross-section [a.u.]:                       128.264110
  Two-photon absorption matrix [a.u.]:
                                       |    0.279324    0.042836   -2.896777 |
                                       |    0.042836   -0.330867    2.746757 |
                                       |   -2.896777    2.746757    0.053719 |

  Dip. moment [a.u.]:                  [   0.000036,   -0.000056,   -0.000003]
  Total dipole [Debye]:                                               0.000171
  <r^2> [a.u.]:                        [ 180.650847,   40.030097,   11.497904]
  Total <r^2> [a.u.]:                                               232.178849

  V1^2 = 0.9550, V2^2 = 0.0450

  Important amplitudes:
      occ i     occ j     vir a      vir b          v   
    -----------------------------------------------------
     8 (A) A             12 (A) A                -0.5883
     6 (A) A              9 (A) A                -0.3527
     8 (A) A             19 (A) A                -0.0533
     6 (A) A             20 (A) A                -0.0482
     8 (A) A             23 (A) A                 0.0301
     8 (A) A   8 (A) B    9 (A) A   10 (A) B      0.0210
     8 (A) A             26 (A) A                 0.0192
     5 (A) A   8 (A) B   11 (A) A   12 (A) B      0.0155
[...]
    16   -1.422229670294e-03
    17   -1.730500741701e-03
    18    1.332244569106e-04
    19   -2.848025977705e-03
    20    1.125058921293e-02
    21    9.281688233322e-01
    22   -4.716763315947e-04
    23    1.370607319720e-02
    24    8.070015803191e-04
    25    7.025642594983e-02
    26   -5.188902130658e-02
    27   -1.383977167574e+00
    28    1.001577515341e-01
    29   -9.511663579728e-02
    30   -9.678879446510e-04
    31    3.870677812872e-01
    32   -3.675879804657e-01
    33   -3.740090159507e-03
    34    1.502510591893e-02
    35   -1.419915492069e-03
    36   -1.729301813153e-03
    37    1.333963373674e-04
    38   -2.847346544010e-03
    39    1.124623974062e-02
    40    9.281662152968e-01
    41    4.713767299694e-04
    42   -1.370586572457e-02
    43   -8.065451951393e-04
    44    1.125093524144e-02
    45    9.281728207802e-01
    46    1.371866994656e-02
    47    2.303992483287e-04
    48    6.707805266607e-04
Sym=X
Ene= 0.230710
Spin=Alpha
Occup=0
     1   -3.068853786373e-02
     2   -1.164974963835e+00
     3    1.284181139186e-02
     4    3.448120343096e-03
     5    8.253538055883e-04
     6    5.853741953401e-05
     7   -6.267221053519e-05
     8   -9.111103693906e-04
     9    1.548420418249e-01
    10    1.629428824406e-01
    11    1.729442113904e-02
    12    5.278346496773e-01
    13    5.555806854943e-01
    14    5.896965112171e-02
    15    1.255866032551e-05
    16   -9.646665893509e-05
    17    1.015703225426e-04
    18   -1.830595243317e-03
    19   -1.002957582751e-04
    20    3.072050245866e-02
    21    1.166331980563e+00
    22    2.801172014303e-03
    23    1.301173443481e-02
    24    9.218664208758e-04
    25   -5.996104739471e-05
    26    6.379725403378e-05
    27    9.467277666966e-04
    28    1.548398965224e-01
    29    1.629488170152e-01
    30    1.726588949022e-02
    31    5.277955654986e-01
    32    5.555727072005e-01
    33    5.885420064770e-02
    34   -1.259259750326e-05
    35    9.812070776308e-05
    36   -1.024251117421e-04
    37    1.829169663033e-03
    38    1.001887865636e-04
    39   -3.072072340265e-02
    40   -1.166315131647e+00
    41    2.801019221870e-03
    42    1.301194300250e-02
    43    9.203305707546e-04
    44    3.068838468256e-02
    45    1.164912592391e+00
    46    1.284146314839e-02
    47    3.447891527287e-03
    48    8.236855241662e-04
Sym=X
Ene= 0.236301
Spin=Alpha
Occup=0
     1    1.925337841579e-02
     2    1.073173961009e+00
     3   -1.586531017985e-02
     4   -9.250619503612e-03
     5   -1.320569510564e-03
     6    8.694239679044e-02
     7   -8.232515452561e-02
     8   -1.537140139799e+00
     9   -5.948619403573e-02
    10    5.628644033568e-02
    11    5.478676148212e-04
    12   -2.475752006653e-01
    13    2.343775657464e-01
    14    2.274516721620e-03
    15    2.126581085139e-02
    16   -2.500716292185e-03
    17   -2.872459759538e-03
    18    6.105877759093e-04
    19   -1.234501812421e-02
    20    1.922277691922e-02
    21    1.071553619237e+00
    22    8.430536019413e-03
    23    1.628867110712e-02
    24    1.389585042021e-03
    25   -8.694105068388e-02
    26    8.232162596087e-02
    27    1.537130633657e+00
    28   -5.948711355514e-02
    29    5.628867201964e-02
    30    5.624803736096e-04
    31   -2.475732421446e-01
    32    2.343996764439e-01
    33    2.334524979563e-03
    34   -2.126587096095e-02
    35    2.498377191152e-03
    36    2.872772527323e-03
    37   -6.115850761437e-04
    38    1.234458926893e-02
    39   -1.922235026370e-02
    40   -1.071568687313e+00
    41    8.431011717092e-03
    42    1.628897438009e-02
    43    1.390095450185e-03
    44   -1.925225701838e-02
    45   -1.073144059370e+00
    46   -1.586458127901e-02
    47   -9.251597554086e-03
    48   -1.319196953342e-03
Sym=X
Ene= 0.303288
Spin=Alpha
Occup=0
     1   -2.146214625202e-02
     2    1.657491102690e+00
     3   -2.359093545996e-02
     4    5.354178071996e-04
     5   -1.101947365462e-03
     6    6.625692328867e-08
     7   -3.086538184338e-06
     8    1.596492310004e-05
     9   -1.356274881501e-01
    10   -1.426709845704e-01
    11   -1.513998630203e-02
    12   -1.127468986567e+00
    13   -1.185921632456e+00
    14   -1.258150739423e-01
    15    3.223371283851e-05
    16   -1.753017444316e-03
    17    1.986386337172e-03
    18   -3.427974639411e-02
    19   -1.751784299203e-03
    20    2.146206392686e-02
    21   -1.657493964334e+00
    22    1.738107296743e-03
    23   -2.352131186220e-02
    24   -1.337231015808e-03
    25    1.711353780685e-06
    26   -2.415768789727e-06
    27   -5.054404385198e-05
    28    1.356324824698e-01
    29    1.426754913445e-01
    30    1.512567068128e-02
    31    1.127441064042e+00
    32    1.185939248246e+00
    33    1.257662139455e-01
    34    3.378502958630e-05
    35   -1.750160405398e-03
    36    1.987714541415e-03
    37   -3.427822288718e-02
    38   -1.752676308715e-03
    39    2.145797049818e-02
    40   -1.657487879055e+00
    41   -1.739104743845e-03
    42    2.352071677420e-02
    43    1.336758611563e-03
    44   -2.145720388077e-02
    45    1.657518889300e+00
    46    2.359157104537e-02
    47   -5.357543281713e-04
    48    1.100208485511e-03
Sym=X
Ene= 0.464137
Spin=Alpha
Occup=0
     1   -1.142291325034e-01
     2   -7.026717839061e-01
     3   -1.528318163931e-02
     4   -1.026338225523e-02
     5   -1.355098516942e-03
     6    6.256340118510e-02
     7    1.722174905534e-02
     8   -3.711164420623e+00
     9    1.028956786905e-01
    10   -9.771535651096e-02
    11   -9.802883799974e-04
    12    2.458072378448e+00
    13   -2.334525990700e+00
    14   -2.281458474959e-02
    15    5.363552037215e-02
    16   -3.284001826064e-03
    17   -4.576647664398e-03
    18   -1.111649736688e-03
    19    2.075870345306e-02
    20   -1.141936783299e-01
    21   -7.027101521953e-01
    22    9.481021204659e-03
    23    1.577582666557e-02
    24    1.408925727516e-03
    25   -6.256448623652e-02
    26   -1.721418605025e-02
    27    3.711170588108e+00
    28    1.029098602692e-01
    29   -9.772453052480e-02
    30   -9.881635996958e-04
    31    2.458051885762e+00
    32   -2.334489728260e+00
    33   -2.284876709865e-02
    34   -5.363065694365e-02
    35    3.279417166642e-03
    36    4.570436397288e-03
    37    1.110898304929e-03
    38   -2.076492330380e-02
    39    1.141575348595e-01
    40    7.027432768480e-01
    41    9.480134403014e-03
    42    1.577507288714e-02
    43    1.406861993390e-03
    44    1.141992805500e-01
    45    7.026952839124e-01
    46   -1.528193073417e-02
    47   -1.026109932711e-02
    48   -1.353599583987e-03
Sym=X
Ene= 0.579212
Spin=Alpha
Occup=0
     1    2.320494871435e-01
     2    5.086910170448e-02
     3   -2.276557722437e-02
     4    2.688298476755e-02
     5    5.308280686568e-04
     6   -6.837411729137e-03
     7   -1.741625726632e-01
     8   -4.123956899911e-01
     9    3.068064704696e-01
    10   -2.913600891419e-01
    11   -2.849401866875e-03
    12   -7.518678475570e-01
    13    7.139637913565e-01
    14    7.029323656705e-03
    15   -1.015788130585e-03
    16    3.481791354885e-03
    17    3.108628975402e-03
    18   -2.973904211666e-03
    19    5.832136933479e-02
    20    2.320352408171e-01
    21    5.089058391528e-02
    22   -2.802205112686e-02
    23    2.135432528883e-02
    24   -5.575741510503e-05
    25   -6.845352400752e-03
    26   -1.741668815345e-01
    27   -4.120234946382e-01
    28   -3.067976023410e-01
    29    2.913424101083e-01
    30    2.847420041093e-03
    31    7.521424150387e-01
    32   -7.141901097768e-01
    33   -7.037333605797e-03
    34   -1.015491359328e-03
    35    3.481961799231e-03
    36    3.108118668774e-03
    37   -2.967320640114e-03
    38    5.832164003198e-02
    39    2.319940383580e-01
    40    5.102230959165e-02
    41    2.802855588358e-02
    42   -2.135949929251e-02
    43    5.484266041231e-05
    44    2.320703133874e-01
    45    5.095663475790e-02
    46    2.276476615587e-02
    47   -2.688379818782e-02
    48   -5.315394237236e-04
Sym=X
Ene= 0.608408
Spin=Alpha
Occup=0
     1   -5.199451974327e-01
     2    2.521730071214e-01
     3   -5.959808433881e-02
     4    3.688036005659e-02
     5   -6.333742730352e-04
     6    3.716794203289e-06
     7   -1.364716242401e-05
     8    2.346304603452e-04
     9   -3.478131629644e-02
    10   -3.658872677979e-02
    11   -3.876689121475e-03
    12    2.563186446628e-01
    13    2.698114798000e-01
    14    2.863978493332e-02
    15    1.200126128763e-04
    16   -7.599613089397e-03
    17    8.614842653407e-03
    18   -1.486520702454e-01
    19   -7.603873285473e-03
    20    5.200316524441e-01
    21   -2.522173142502e-01
    22    3.988904408863e-02
    23   -5.761701535144e-02
    24   -1.564130950612e-03
    25   -4.350834914168e-06
    26    1.521534575364e-05
    27   -1.866040876913e-04
    28   -3.476867601792e-02
    29   -3.660328285266e-02
    30   -3.885122048436e-03
    31    2.562830086612e-01
    32    2.698767637954e-01
    33    2.858161409440e-02
    34   -1.186324710320e-04
    35    7.592578410824e-03
    36   -8.620331894876e-03
    37    1.486606342073e-01
    38    7.602384225437e-03
    39   -5.200792389971e-01
    40    2.522523370064e-01
    41    3.988377436667e-02
    42   -5.761715854508e-02
    43   -1.568087475496e-03
    44    5.199413077694e-01
    45   -2.522150782312e-01
    46   -5.960001424787e-02
    47    3.688102798191e-02
    48   -6.332660013969e-04
Sym=X
Ene= 0.687567
Spin=Alpha
Occup=0
     1    4.463619607882e-05
     2    3.412803808146e-05
     3    8.888162880445e-04
     4    1.124247533770e-03
     5   -1.848753769692e-02
     6    2.239770320043e-06
     7   -2.960644412700e-06
     8    6.502503805213e-05
     9    3.215807086830e-02
    10    4.045141397283e-02
    11   -6.693568533478e-01
    12   -2.954529346600e-02
    13   -3.690847747520e-02
    14    6.124654698774e-01
    15   -1.334152109996e-03
    16    8.268692012605e-02
    17   -7.844743210046e-02
    18   -8.707327982468e-03
    19   -1.208174279016e-03
    20    3.901469432659e-05
    21    6.070130651859e-05
    22    8.845120824574e-04
    23    1.118209679571e-03
    24   -1.848362935649e-02
    25   -4.256341179719e-07
    26    3.222365776188e-05
    27   -8.669278660265e-05
    28    3.213985407804e-02
    29    4.041748121446e-02
    30   -6.693588530504e-01
    31   -2.951664671939e-02
    32   -3.686931431237e-02
    33    6.124668299155e-01
    34    1.323262280991e-03
    35   -8.268572229329e-02
    36    7.844864701889e-02
    37    8.716497936623e-03
    38    1.212736922211e-03
    39   -1.901156720489e-05
    40   -5.227718686387e-05
    41    8.823348164859e-04
    42    1.122875368467e-03
    43   -1.848327614380e-02
    44   -1.337733069182e-05
    45   -7.886349369502e-05
    46    8.786883375078e-04
    47    1.117619757589e-03
    48   -1.848821346217e-02
Sym=X
Ene= 0.704760
Spin=Alpha
Occup=0
     1   -4.911963935164e-01
     2    1.623901974739e-01
     3   -7.753711778233e-02
     4   -4.461284430115e-02
     5   -6.426201543580e-03
     6   -4.582997746916e-02
     7   -2.995943729374e-01
     8    4.705844774939e-01
     9    1.916629897499e-01
    10   -1.820640932205e-01
    11   -1.811034224706e-03
    12   -4.816176412726e-02
    13    4.590618964978e-02
    14    4.065055253724e-04
    15    1.908558451670e-01
    16   -2.049001729736e-02
    17   -2.405993042466e-02
    18    3.787186623430e-03
    19   -7.729810248820e-02
    20   -4.912317038713e-01
    21    1.625729771494e-01
    22    4.061518923631e-02
    23    7.968863990483e-02
    24    6.761191927221e-03
    25   -4.582416720591e-02
    26   -2.995951161660e-01
    27    4.702825715893e-01
    28   -1.916635357221e-01
    29    1.820644874705e-01
    30    1.771477763546e-03
    31    4.795843936742e-02
    32   -4.573003101953e-02
    33   -3.609756141336e-04
    34    1.908585133062e-01
    35   -2.048033169314e-02
    36   -2.404845522491e-02
    37    3.783562876332e-03
    38   -7.728823482930e-02
    39   -4.912074408311e-01
    40    1.625001392942e-01
    41   -4.061416432735e-02
    42   -7.968607457181e-02
    43   -6.758558546589e-03
    44   -4.911979284418e-01
    45    1.623275533872e-01
    46    7.753741618594e-02
    47    4.461192058631e-02
    48    6.420969974853e-03
Sym=X
Ene= 0.776946
Spin=Alpha
Occup=0
     1    5.399355492908e-01
     2   -4.871110838809e-01
     3    1.083609756381e-01
     4    2.698353034627e-02
     5    6.838447497322e-03
     6    8.887558164629e-02
     7   -2.271134752459e-01
     8   -5.841056979788e-01
     9    9.826082626900e-02
    10   -9.328295039680e-02
    11   -8.791139662542e-04
    12    3.087918392415e-01
    13   -2.934263950638e-01
    14   -2.922906472512e-03
    15   -2.032885060045e-01
    16    1.753406888863e-02
    17    2.184367740696e-02
    18   -2.509093696171e-04
    19    8.674102056288e-03
    20    5.398415072021e-01
    21   -4.872090012598e-01
    22   -2.144675421181e-02
    23   -1.095332456971e-01
    24   -7.648567734482e-03
    25   -8.887676964697e-02
    26    2.271152506685e-01
    27    5.841615003463e-01
    28    9.827504611479e-02
    29   -9.327948479737e-02
    30   -9.134989497468e-04
    31    3.087338332843e-01
    32   -2.934076241380e-01
    33   -2.846736318383e-03
    34    2.032956038932e-01
    35   -1.751012562415e-02
    36   -2.183179794725e-02
    37    2.551509658543e-04
    38   -8.673012277342e-03
    39   -5.398721562625e-01
    40    4.872137126975e-01
    41   -2.144811505264e-02
    42   -1.095359112101e-01
    43   -7.643568231759e-03
    44   -5.399587027592e-01
    45    4.870857764519e-01
    46    1.083574565882e-01
    47    2.698820152256e-02
    48    6.832333170996e-03
Sym=X
Ene= 0.807926
Spin=Alpha
Occup=0
     1    1.158307430952e-05
     2    3.069407419475e-05
     3    1.497616100058e-03
     4    1.889568470874e-03
     5   -3.130657654400e-02
     6    3.638269680322e-06
     7   -3.393978770284e-05
     8    1.602809219380e-05
     9    3.675414608058e-02
    10    4.617899875507e-02
    11   -7.643258039960e-01
    12   -5.418581057162e-02
    13   -6.809753086582e-02
    14    1.126890289640e+00
    15    1.067036462720e-03
    16   -6.674729379476e-02
    17    6.332704271016e-02
    18    7.022477875761e-03
    19    9.784325435901e-04
    20    1.315365163466e-05
    21   -4.611456425853e-05
    22    1.499521469642e-03
    23    1.888573231411e-03
    24   -3.129730141098e-02
    25   -6.061875528186e-07
    26   -2.498312219716e-05
    27    1.451636972157e-05
    28   -3.668791375681e-02
    29   -4.614372237492e-02
    30    7.643327242517e-01
    31    5.410797590345e-02
    32    6.800605283767e-02
    33   -1.126899708932e+00
    34    1.081221305019e-03
    35   -6.674697241335e-02
    36    6.332453083700e-02
    37    7.042198175850e-03
    38    9.837698258133e-04
    39   -1.057012433463e-05
    40    6.214065312505e-05
    41   -1.501746646018e-03
    42   -1.905639708355e-03
    43    3.129365380836e-02
    44   -8.985379594523e-06
    45   -1.464151114205e-05
    46   -1.496138379182e-03
    47   -1.896939905248e-03
    48    3.130518738280e-02
Sym=X
Ene= 0.857448
Spin=Alpha
Occup=0
     1    1.289935650711e-02
     2   -1.074415539851e+00
     3    1.458740476567e-01
     4    5.540009583391e-02
     5    1.034964247110e-02
     6    4.660782110087e-06
     7    7.698882770662e-06
     8    1.052491206353e-05
     9   -4.115138048513e-01
    10   -4.328658911299e-01
    11   -4.595520849386e-02
    12    9.365925016103e-01
    13    9.851265652069e-01
    14    1.045841633822e-01
    15   -2.234439535881e-04
    16    1.173796751530e-02
    17   -1.330237719287e-02
    18    2.295982714425e-01
    19    1.173804053287e-02
    20   -1.285389304399e-02
    21    1.074317942251e+00
    22    4.790949449939e-02
    23    1.484182572541e-01
    24    1.127541293631e-02
    25   -4.289083820958e-06
    26   -3.610851322815e-06
    27   -9.676145714068e-06
    28   -4.115257548004e-01
    29   -4.328858371375e-01
    30   -4.587319229651e-02
    31    9.366104858998e-01
    32    9.851761342888e-01
    33    1.044066386252e-01
    34    2.221773407746e-04
    35   -1.173793001544e-02
    36    1.330422556837e-02
    37   -2.296054092153e-01
    38   -1.174232142212e-02
    39    1.284930895129e-02
    40   -1.074324610311e+00
    41    4.790082145543e-02
    42    1.484225871180e-01
    43    1.127197007839e-02
    44   -1.289324840030e-02
    45    1.074419507817e+00
    46    1.458788409186e-01
    47    5.539547515658e-02
    48    1.034189126508e-02
Sym=X
Ene= 0.928351
Spin=Alpha
Occup=0
     1   -1.428930073478e-01
     2    1.228158215189e+00
     3   -1.828511378904e-01
     4    6.404576825090e-03
     5   -8.405128498249e-03
     6   -2.242940166030e-06
     7   -7.865720524361e-05
     8    1.264208270182e-04
     9    4.745893507762e-01
    10    4.992137805809e-01
    11    5.296252275544e-02
    12   -1.381022753942e+00
    13   -1.452749033901e+00
    14   -1.541208040280e-01
    15    1.287309385936e-04
    16   -6.433999349151e-03
    17    7.270707611341e-03
    18   -1.255561325384e-01
    19   -6.425472449172e-03
    20    1.428723589311e-01
    21   -1.228259990054e+00
    22    1.573510110771e-02
    23   -1.821957799143e-01
    24   -1.024855525052e-02
    25   -2.616415304065e-06
    26   -6.947615097914e-05
    27    1.321273658353e-04
    28   -4.745906852804e-01
    29   -4.992019385191e-01
    30   -5.293830426956e-02
    31    1.381023235310e+00
    32    1.452694437049e+00
    33    1.540505798453e-01
    34    1.333679885891e-04
    35   -6.415501359580e-03
    36    7.265998367548e-03
    37   -1.255519541658e-01
    38   -6.437842716990e-03
    39    1.428663998022e-01
    40   -1.228207820306e+00
    41   -1.574509044173e-02
    42    1.821870153867e-01
    43    1.024368885355e-02
    44   -1.429032053224e-01
    45    1.228167952625e+00
    46    1.828520293048e-01
    47   -6.405850774444e-03
    48    8.392932274446e-03
Sym=X
Ene= 0.973292
Spin=Alpha
Occup=0
     1   -5.348878598340e-02
     2    8.940809559255e-01
     3   -8.733829176415e-02
     4   -9.685339350972e-02
     5   -1.003882277721e-02
     6    2.863643526690e-02
     7    2.619841776822e-01
     8    4.794104823846e-01
     9    4.827848941878e-01
    10   -4.584969980956e-01
    11   -4.498787764650e-03
    12   -1.463331572696e+00
    13    1.389689360362e+00
    14    1.362176378337e-02
    15   -6.024158437764e-02
    16   -1.215276214784e-02
    17   -8.895823010449e-03
    18    1.515085181481e-02
    19   -2.956230435339e-01
    20   -5.351508678220e-02
    21    8.940274714648e-01
    22    9.231060558555e-02
    23    9.211708474341e-02
    24    1.000672365735e-02
    25   -2.863571315779e-02
    26   -2.619121259822e-01
    27   -4.795272377710e-01
    28    4.827707049528e-01
    29   -4.585022038318e-01
    30   -4.519059910131e-03
    31   -1.463283824029e+00
    32    1.389741535271e+00
    33    1.368128441231e-02
    34    6.023670160394e-02
    35    1.215260039907e-02
    36    8.898746316346e-03
    37   -1.515411634342e-02
    38    2.956095605615e-01
    39    5.351358099827e-02
    40   -8.940320273386e-01
    41    9.230472284686e-02
    42    9.211791107396e-02
    43    1.000883818493e-02
    44    5.349696103701e-02
    45   -8.940081701676e-01
    46   -8.732926820409e-02
    47   -9.685047261050e-02
    48   -1.003227635051e-02
[5D]

======= END OF MOLDEN-FORMATTED INPUT FILE =======


        *************************************************************
        *                                                           *
        *  Thank you very much for using Q-Chem.  Have a nice day.  *
        *                                                           *
        *************************************************************


