                  Welcome to Q-Chem
     A Quantum Leap Into The Future Of Chemistry


 Q-Chem 5.4 (devel), Q-Chem, Inc., Pleasanton, CA (2021)

 E. Epifanovsky,  A. T. B. Gilbert,  Xintian Feng,  Joonho Lee,  Yuezhi Mao,  
 N. Mardirossian,  P. Pokhilko,  A. White,  M. Wormit,  M. P. Coons,  
 A. L. Dempwolff,  Zhengting Gan,  D. Hait,  P. R. Horn,  L. D. Jacobson,  
 I. Kaliman,  J. Kussmann,  A. W. Lange,  Ka Un Lao,  D. S. Levine,  Jie Liu,  
 S. C. McKenzie,  A. F. Morrison,  K. Nanda,  F. Plasser,  D. R. Rehn,  
 M. L. Vidal,  Zhi-Qiang You,  Ying Zhu,  B. Alam,  B. Albrecht,  
 A. Aldossary,  E. Alguire,  J. H. Andersen,  D. Barton,  K. Begam,  A. Behn,  
 Y. A. Bernard,  E. J. Berquist,  H. Burton,  A. Carreras,  K. Carter-Fenk,  
 R. Chakraborty,  A. D. Chien,  K. D. Closser,  V. Cofer-Shabica,  
 S. Dasgupta,  Jia Deng,  M. de Wergifosse,  M. Diedenhofen,  Hainam Do,  
 S. Ehlert,  Po-Tung Fang,  S. Fatehi,  Qingguo Feng,  T. Friedhoff,  
 J. Gayvert,  Qinghui Ge,  G. Gidofalvi,  M. Goldey,  J. Gomes,  
 C. Gonzalez-Espinoza,  S. Gulania,  A. Gunina,  M. W. D. Hanson-Heine,  
 P. H. P. Harbach,  A. W. Hauser,  M. F. Herbst,  M. Hernandez Vera,  
 M. Hodecker,  Z. C. Holden,  S. Houck,  Xunkun Huang,  Kerwin Hui,  
 B. C. Huynh,  M. Ivanov,  Hyunjun Ji,  Hanjie Jiang,  B. Kaduk,  S. Kaehler,  
 K. Khistyaev,  Jaehoon Kim,  P. Klunzinger,  Z. Koczor-Benda,  
 Joong Hoon Koh,  D. Kosenkov,  L. Koulias,  T. Kowalczyk,  C. M. Krauter,  
 K. Kue,  A. Kunitsa,  T. Kus,  A. Landau,  K. V. Lawler,  D. Lefrancois,  
 S. Lehtola,  Rain Li,  Yi-Pei Li,  Jiashu Liang,  M. Liebenthal,  
 Hung-Hsuan Lin,  You-Sheng Lin,  Fenglai Liu,  Kuan-Yu Liu,  
 M. Loipersberger,  A. Luenser,  A. Manjanath,  P. Manohar,  E. Mansoor,  
 S. F. Manzer,  Shan-Ping Mao,  A. V. Marenich,  T. Markovich,  S. Mason,  
 S. A. Maurer,  P. F. McLaughlin,  M. F. S. J. Menger,  J.-M. Mewes,  
 S. A. Mewes,  P. Morgante,  J. W. Mullinax,  K. J. Oosterbaan,  G. Paran,  
 Alexander C. Paul,  Suranjan K. Paul,  F. Pavosevic,  Zheng Pei,  S. Prager,  
 E. I. Proynov,  E. Ramos,  B. Rana,  A. E. Rask,  A. Rettig,  R. M. Richard,  
 F. Rob,  E. Rossomme,  T. Scheele,  M. Scheurer,  M. Schneider,  
 N. Sergueev,  S. M. Sharada,  W. Skomorowski,  D. W. Small,  C. J. Stein,  
 Yu-Chuan Su,  E. J. Sundstrom,  Zhen Tao,  J. Thirman,  T. Tsuchimochi,  
 N. M. Tubman,  S. P. Veccham,  O. Vydrov,  J. Wenzel,  J. Witte,  A. Yamada,  
 Kun Yao,  S. Yeganeh,  S. R. Yost,  A. Zech,  Igor Ying Zhang,  Xing Zhang,  
 Yu Zhang,  D. Zuev,  A. Aspuru-Guzik,  A. T. Bell,  N. A. Besley,  
 K. B. Bravaya,  B. R. Brooks,  D. Casanova,  Jeng-Da Chai,  S. Coriani,  
 C. J. Cramer,  A. E. DePrince, III,  R. A. DiStasio Jr.,  A. Dreuw,  
 B. D. Dunietz,  T. R. Furlani,  W. A. Goddard III,  S. Grimme,  
 S. Hammes-Schiffer,  T. Head-Gordon,  W. J. Hehre,  Chao-Ping Hsu,  
 T.-C. Jagau,  Yousung Jung,  A. Klamt,  Jing Kong,  D. S. Lambrecht,  
 WanZhen Liang,  N. J. Mayhall,  C. W. McCurdy,  J. B. Neaton,  
 C. Ochsenfeld,  J. A. Parkhill,  R. Peverati,  V. A. Rassolov,  Yihan Shao,  
 L. V. Slipchenko,  T. Stauch,  R. P. Steele,  J. E. Subotnik,  
 A. J. W. Thom,  A. Tkatchenko,  D. G. Truhlar,  T. Van Voorhis,  
 T. A. Wesolowski,  K. B. Whaley,  H. L. Woodcock III,  P. M. Zimmerman,  
 S. Faraji,  P. M. W. Gill,  M. Head-Gordon,  J. M. Herbert,  A. I. Krylov

 Additional authors for Version 5.4.1: 
 S. Kotaru,  Shaozhi Li,  Xiangyuan Li,  F. Matz,  A. Molle,  Haisheng Ren,  
 Yingli Su,  Hung-Yi Tsai,  C. Utku,  Fang Wang

 Contributors to earlier versions of Q-Chem not listed above: 
 R. D. Adamson,  B. Austin,  R. Baer,  J. Baker,  G. J. O. Beran,  
 K. Brandhorst,  S. T. Brown,  E. F. C. Byrd,  A. K. Chakraborty,  
 G. K. L. Chan,  Chun-Min Chang,  Yunqing Chen,  C.-L. Cheng,  
 Siu Hung Chien,  D. M. Chipman,  D. L. Crittenden,  H. Dachsel,  
 R. J. Doerksen,  A. D. Dutoi,  R. G. Edgar,  J. Fosso-Tande,  
 L. Fusti-Molnar,  D. Ghosh,  A. Ghysels,  A. Golubeva-Zadorozhnaya,  
 J. Gonthier,  M. S. Gordon,  S. R. Gwaltney,  G. Hawkins,  J. E. Herr,  
 A. Heyden,  S. Hirata,  E. G. Hohenstein,  G. Kedziora,  F. J. Keil,  
 C. Kelley,  Jihan Kim,  R. A. King,  R. Z. Khaliullin,  P. P. Korambath,  
 W. Kurlancheek,  A. Laurent,  A. M. Lee,  M. S. Lee,  S. V. Levchenko,  
 Ching Yeh Lin,  D. Liotard,  E. Livshits,  R. C. Lochan,  I. Lotan,  
 L. A. Martinez-Martinez,  P. E. Maslen,  N. Nair,  D. P. O'Neill,  
 D. Neuhauser,  E. Neuscamman,  C. M. Oana,  R. Olivares-Amaya,  R. Olson,  
 T. M. Perrine,  B. Peters,  P. A. Pieniazek,  A. Prociuk,  Y. M. Rhee,  
 J. Ritchie,  M. A. Rohrdanz,  E. Rosta,  N. J. Russ,  H. F. Schaefer III,  
 M. W. Schmidt,  N. E. Schultz,  S. Sharma,  N. Shenvi,  C. D. Sherrill,  
 A. C. Simmonett,  A. Sodt,  T. Stein,  D. Stuck,  K. S. Thanthiriwatte,  
 V. Vanovschi,  L. Vogt,  Tao Wang,  A. Warshel,  M. A. Watson,  
 C. F. Williams,  Q. Wu,  X. Xu,  Jun Yang,  W. Zhang,  Yan Zhao

 Please cite Q-Chem as follows:
 Y. Shao et al., Mol. Phys. 113, 184-215 (2015)
 DOI: 10.1080/00268976.2014.952696

 Q-Chem 5.4.1 for Intel X86 EM64T Linux

 Parts of Q-Chem use Armadillo 9.800.1 (Horizon Scraper).
 http://arma.sourceforge.net/

 Q-Chem begins on Mon Mar 20 18:09:01 2023  

 Host: cpu186.baobab
0

     Scratch files written to /scratch/fum/qchem69394//
 Processing $rem in /home/share/wesolowski/qc5.aug2021.FDE/config/preferences:
 Processing $rem in /home/fum/.qchemrc:

 Checking the input file for inconsistencies... 	...done.

--------------------------------------------------------------
User input:
--------------------------------------------------------------
$comment
generated from CCJob.Templates
$end

$rem
sym_ignore = true
method = adc(2)
ee_states = 10
basis = cc-pVDZ
mem_static = 1024
mem_total = 40000
adc_davidson_maxiter = 900
adc_davidson_conv = 6
adc_print = 3
adc_prop_es = true
adc_prop_es2es = true
adc_prop_tpa = true
molden_format = True
state_analysis = true
print_orbitals = 15
gen_scfman = false
fde_export_density = true
fde_details = 3
$end

$molecule
0 1
H -0.01987837589807565 -0.25095570518917454 0.08207866227169602
C -1.072407867783148 -0.525089535180181 0.006421778030661787
H -1.3012803806860516 -1.5910153125620297 -0.10169673421243824
C -2.0328478029279746 0.3994445573993021 0.06401754964456557
H -1.8163827288155783 1.4618808014066567 0.1251061962855901
H -3.09775659570344 0.12181815443421602 -0.058570308398572746                     
$end
--------------------------------------------------------------
 ----------------------------------------------------------------
             Standard Nuclear Orientation (Angstroms)
    I     Atom           X                Y                Z
 ----------------------------------------------------------------
    1      H      -0.0198783759    -0.2509557052     0.0820786623
    2      C      -1.0724078678    -0.5250895352     0.0064217780
    3      H      -1.3012803807    -1.5910153126    -0.1016967342
    4      C      -2.0328478029     0.3994445574     0.0640175496
    5      H      -1.8163827288     1.4618808014     0.1251061963
    6      H      -3.0977565957     0.1218181544    -0.0585703084
 ----------------------------------------------------------------
 Nuclear Repulsion Energy =          33.19369644 hartrees
 There are        8 alpha and        8 beta electrons
 Requested basis set is cc-pVDZ
 There are 24 shells and 48 basis functions
 Total memory of 40000 MB is distributed as follows: 
   MEM_STATIC is set to 1024 MB
   QALLOC/CCMAN JOB total memory use is  38976 MB
 Warning: actual memory use might exceed 40000 MB

 Total QAlloc Memory Limit  40000 MB
 Mega-Array Size      1001 MB
 MEM_STATIC part      1024 MB

                       Distance Matrix (Angstroms)
             H (  1)   C (  2)   H (  3)   C (  4)   H (  5)
   C (  2)  1.090271
   H (  3)  1.863203  1.095568
   C (  4)  2.115512  1.334363  2.127107
   H (  5)  2.482557  2.125003  3.104343  1.085983
   H (  6)  3.103559  2.127146  2.482536  1.107310  1.863176

 A cutoff of  1.0D-11 yielded    300 shell pairs
 There are      1220 function pairs (      1329 Cartesian)
 Smallest overlap matrix eigenvalue = 4.83E-03

 Scale SEOQF with 1.000000e-01/1.000000e-01/1.000000e+00

 Standard Electronic Orientation quadrupole field applied
 Nucleus-field energy     =     0.0000000021 hartrees
 Guess from superposition of atomic densities
 Warning:  Energy on first SCF cycle will be non-variational
 SAD guess density has 16.000000 electrons
 A restricted Hartree-Fock SCF calculation will be
 performed using Pulay DIIS extrapolation
 SCF converges when DIIS error is below 1.0E-08
 using 10 threads for integral computing
 -------------------------------------------------------
 OpenMP Integral computing Module                
 Release: version 1.0, May 2013, Q-Chem Inc. Pittsburgh 
 -------------------------------------------------------
 ---------------------------------------
  Cycle       Energy         DIIS Error
 ---------------------------------------
    1     -78.3948140024      9.91E-02
    2     -78.0170398862      7.12E-03
    3     -78.0374812670      1.82E-03
    4     -78.0389559336      5.62E-04
    5     -78.0390727459      5.83E-05
    6     -78.0390746226      9.46E-06
    7     -78.0390746856      2.39E-06
    8     -78.0390746887      9.41E-07
    9     -78.0390746891      1.58E-07
   10     -78.0390746891      4.51E-08
   11     -78.0390746891      8.15E-09 Convergence criterion met
 ---------------------------------------
 SCF time:  CPU 2.14 s  wall 3.67 s
 SCF   energy in the final basis set = -78.03907469
 Total energy in the final basis set = -78.03907469
Exporting Density Matrix to file 'Densmat_SCF.txt'.
Export successful
================================================================================
|                                                                              |
|                                 A D C  M A N                                 |
|                                                                              |
 ------------------------------------------------------------------------------ 
|                                                                              |
| Components:                                                                  |
|                                                                              |
| - libvmm - 1.3-trunk                                                         |
|   Authors:                                                                   |
|   Evgeny Epifanovsky, Ilya Kaliman                                           |
|                                                                              |
| - libtensor - 2.5-trunk                                                      |
|   Authors:                                                                   |
|   Evgeny Epifanovsky, Michael Wormit, Dmitry Zuev, Sam Manzer,               |
|   Ilya Kaliman                                                               |
|                                                                              |
| - libwfa - 1.1-trunk                                                         |
|   Authors:                                                                   |
|   Felix Plasser, Stefanie Mewes (Baeppler), Benjamin Thomitzni,              |
|   Michael Wormit, Feng Chen, Anna I. Krylov, Pavel Pokhilko                  |
|                                                                              |
| - libadc - 1.1-trunk                                                         |
|   Authors:                                                                   |
|   Michael Wormit, Adrian L. Dempwolff, Philipp H. P. Harbach,                |
|   Caroline Krauter, Dirk Rehn, Matthias Schneider, Jan Wenzel                |
|                                                                              |
| - adcman - 2.6-trunk                                                         |
|   Authors:                                                                   |
|   Michael Wormit, Adrian L. Dempwolff, Philipp H. P. Harbach,                |
|   Caroline Krauter, Daniel Lefrancois, Jan-Michael Mewes, Dirk Rehn,         |
|   Matthias Schneider, Jan Wenzel, Andreas Dreuw                              |
|                                                                              |
| Authors of earlier versions of ADCMAN:                                       |
| Andreas Dreuw, Jan Hendrik Starcke, Dirk Rehn, Michael Wormit                |
|                                                                              |
================================================================================

 Created directory /scratch/fum/qchem69394/plots
  Import QC data ...  CPU 0.00 s  wall 0.03 s

 Alpha MOs, Restricted
 -- Occupied --                  
-11.239 -11.237  -1.030  -0.786  -0.635  -0.582  -0.499  -0.374
  1 A     2 A     3 A     4 A     5 A     6 A     7 A     8 A                  
 -- Virtual --                   
  0.167   0.203   0.231   0.236   0.303   0.462   0.580   0.609
  9 A    10 A    11 A    12 A    13 A    14 A    15 A    16 A                  
  0.689   0.705   0.776   0.807   0.858   0.927   0.970   1.006
 17 A    18 A    19 A    20 A    21 A    22 A    23 A    24 A                  
  1.121   1.236   1.240   1.262   1.298   1.592   1.728   1.744
 25 A    26 A    27 A    28 A    29 A    30 A    31 A    32 A                  
  1.809   1.850   1.856   1.900   1.962   1.974   2.219   2.251
 33 A    34 A    35 A    36 A    37 A    38 A    39 A    40 A                  
  2.352   2.424   2.493   2.621   2.676   2.797   3.094   3.364
 41 A    42 A    43 A    44 A    45 A    46 A    47 A    48 A                  

 Beta MOs, Restricted
 -- Occupied --                  
-11.239 -11.237  -1.030  -0.786  -0.635  -0.582  -0.499  -0.374
  1 A     2 A     3 A     4 A     5 A     6 A     7 A     8 A                  
 -- Virtual --                   
  0.167   0.203   0.231   0.236   0.303   0.462   0.580   0.609
  9 A    10 A    11 A    12 A    13 A    14 A    15 A    16 A                  
  0.689   0.705   0.776   0.807   0.858   0.927   0.970   1.006
 17 A    18 A    19 A    20 A    21 A    22 A    23 A    24 A                  
  1.121   1.236   1.240   1.262   1.298   1.592   1.728   1.744
 25 A    26 A    27 A    28 A    29 A    30 A    31 A    32 A                  
  1.809   1.850   1.856   1.900   1.962   1.974   2.219   2.251
 33 A    34 A    35 A    36 A    37 A    38 A    39 A    40 A                  
  2.352   2.424   2.493   2.621   2.676   2.797   3.094   3.364
 41 A    42 A    43 A    44 A    45 A    46 A    47 A    48 A                  
  Import AO data ...  CPU 0.01 s  wall 0.33 s
  Using point group: C1
  Irreducible representations in point group: A
  Molecular orbitals: 
  Occupied MOs:
  Block   0:   1 (  A) A   2 (  A) A   3 (  A) A   4 (  A) A   5 (  A) A
                  -11.24      -11.24       -1.03     -0.7858     -0.6348
               6 (  A) A   7 (  A) A   8 (  A) A
                 -0.5821     -0.4993     -0.3743
  Block   1:   1 (  A) B   2 (  A) B   3 (  A) B   4 (  A) B   5 (  A) B
                  -11.24      -11.24       -1.03     -0.7858     -0.6348
               6 (  A) B   7 (  A) B   8 (  A) B
                 -0.5821     -0.4993     -0.3743
  Virtual MOs:
  Block   0:   9 (  A) A  10 (  A) A  11 (  A) A  12 (  A) A  13 (  A) A
                  0.1672      0.2025       0.231      0.2364      0.3029
              14 (  A) A  15 (  A) A  16 (  A) A  17 (  A) A  18 (  A) A
                  0.4624        0.58      0.6087      0.6889      0.7053
              19 (  A) A  20 (  A) A  21 (  A) A  22 (  A) A
                  0.7756      0.8072      0.8583      0.9271
  Block   1:  23 (  A) A  24 (  A) A  25 (  A) A  26 (  A) A  27 (  A) A
                  0.9701       1.006       1.121       1.236        1.24
              28 (  A) A  29 (  A) A  30 (  A) A  31 (  A) A  32 (  A) A
                   1.262       1.298       1.592       1.728       1.744
              33 (  A) A  34 (  A) A  35 (  A) A  36 (  A) A
                   1.809        1.85       1.856         1.9
  Block   2:  37 (  A) A  38 (  A) A  39 (  A) A  40 (  A) A  41 (  A) A
                   1.962       1.974       2.219       2.251       2.352
              42 (  A) A  43 (  A) A  44 (  A) A  45 (  A) A  46 (  A) A
                   2.424       2.493       2.621       2.676       2.797
              47 (  A) A  48 (  A) A
                   3.094       3.364
  Block   3:   9 (  A) B  10 (  A) B  11 (  A) B  12 (  A) B  13 (  A) B
                  0.1672      0.2025       0.231      0.2364      0.3029
              14 (  A) B  15 (  A) B  16 (  A) B  17 (  A) B  18 (  A) B
                  0.4624        0.58      0.6087      0.6889      0.7053
              19 (  A) B  20 (  A) B  21 (  A) B  22 (  A) B
                  0.7756      0.8072      0.8583      0.9271
  Block   4:  23 (  A) B  24 (  A) B  25 (  A) B  26 (  A) B  27 (  A) B
                  0.9701       1.006       1.121       1.236        1.24
              28 (  A) B  29 (  A) B  30 (  A) B  31 (  A) B  32 (  A) B
                   1.262       1.298       1.592       1.728       1.744
              33 (  A) B  34 (  A) B  35 (  A) B  36 (  A) B
                   1.809        1.85       1.856         1.9
  Block   5:  37 (  A) B  38 (  A) B  39 (  A) B  40 (  A) B  41 (  A) B
                   1.962       1.974       2.219       2.251       2.352
              42 (  A) B  43 (  A) B  44 (  A) B  45 (  A) B  46 (  A) B
                   2.424       2.493       2.621       2.676       2.797
              47 (  A) B  48 (  A) B
                   3.094       3.364
  Import MO data ...  CPU 0.17 s  wall 0.64 s
  Import HF data ...  CPU 1.01 s  wall 0.49 s
  Import 2e integrals ...  CPU 1.33 s  wall 0.52 s

--------------------------------------------------------------------------------
                                   HF Summary                                   
--------------------------------------------------------------------------------
  Energy:                                                  -78.0390746891 a.u.
  Dip. moment [a.u.]:                  [   0.005863,    0.003310,   -0.024652]
  Total dipole [Debye]:                                               0.064955
  <r^2> [a.u.]:                        [ 174.464783,   35.366402,   11.818571]
  Total <r^2> [a.u.]:                                               221.649755
--------------------------------------------------------------------------------
  HF properties ...  CPU 0.04 s  wall 0.09 s
  MP(1) calculation ...  CPU 0.02 s  wall 0.06 s
  N^6 prerequesite intermediates ...  CPU 0.75 s  wall 0.26 s
  Difference density matrix of state mp2_gs printed to ASCII file 'State_mp2_gs_Difference.txt'
Exporting MP density matrix to file 'Densmat_MP.txt'.
Export successful
  Total density matrix of state mp2_gs printed to ASCII file 'State_mp2_gs_Total.txt'
Exporting MP density matrix to file 'Densmat_MP.txt'.
Export successful

--------------------------------------------------------------------------------
                                 MP(2) Summary                                  
--------------------------------------------------------------------------------
  MP energy contribution:                                   -0.2806265854 a.u.
  Total energy:                                            -78.3197012745 a.u.
  Dip. moment [a.u.]:                  [   0.004922,    0.002940,   -0.024386]
  Total dipole [Debye]:                                               0.063674
  <r^2> [a.u.]:                        [ 174.495736,   35.404112,   11.646457]
  Total <r^2> [a.u.]:                                               221.546305

  Density matrix analysis:
  ------------------------
  NOs
    Occupation of frontier NOs:
       0.0456   1.9379
    Number of electrons: 16.000000
    Number of unpaired electrons: n_u =  0.40785, n_u,nl =  0.04598
    NO participation ratio (PR_NO): 13.881954
  
  
  Mulliken Population Analysis
  Atom      Charge (e)              h+              e-           Del q
  --------------------------------------------------------------------
   1 H        0.054024        0.013993       -0.011290        0.002703
   2 C       -0.107466        0.094378       -0.099861       -0.005483
   3 H        0.055972        0.013852       -0.011322        0.002530
   4 C       -0.113301        0.095179       -0.100060       -0.004880
   5 H        0.053975        0.013957       -0.011343        0.002614
   6 H        0.056796        0.013862       -0.011346        0.002517
  --------------------------------------------------------------------
  Sum:        0.000000        0.245222       -0.245222        0.000000
  
  Multipole moment analysis of the density matrix
    Molecular charge:                      0.000000
    Number of electrons:                   16.000000
      Center of electronic charge [Ang]: [ -1.554340,  -0.063356,   0.030154]
    Total nuclear charge:                  16.000000
      Center of nuclear charge [Ang]:    [ -1.554177,  -0.063259,   0.029347]
    Dipole moment [D]:                     0.063674
      Cartesian components [D]:          [  0.012511,   0.007473,  -0.061984]
    RMS size of the density [Ang]:         1.206880
      Cartesian components [Ang]:        [  0.798758,   0.784615,   0.450471]
  
  Exciton analysis of the difference density matrix
    <r_h> [Ang]:                  [ -1.557469,  -0.064149,   0.033973]
    <r_e> [Ang]:                  [ -1.555439,  -0.063350,   0.033399]
    |<r_e - r_h>| [Ang]:            0.002256
    Hole size [Ang]:                1.402224
      Cartesian components [Ang]: [  0.853642,   0.839917,   0.729430]
    Electron size [Ang]:            1.361822
      Cartesian components [Ang]: [  0.877708,   0.865231,   0.579278]
--------------------------------------------------------------------------------
  MP(2) calculation ...  CPU 0.42 s  wall 0.37 s
  Start ADC(2)-s ...  CPU 0.02 s  wall 0.03 s
  ADC(2) intermediates ...  CPU 0.08 s  wall 0.03 s
  Starting Davidson for singlet states of irrep A ... 
--------------------------------------------------------------------------------
   It NVec Conv  Avg. Norm  Max. Norm  Conv. states           Remark
--------------------------------------------------------------------------------
        10    0  1.329e-01  4.686e-01  0.4114 n n n n n n n n Guess.
    1   20    0  2.838e-02  1.621e-01  0.3255 n n n n n n n n 
    2   30    0  6.690e-03  2.919e-02  0.3207 n n n n n n n n 
    3   40    0  2.642e-03  1.522e-02  0.3203 n n n n n n n n 
    4   50    0  1.093e-03  8.270e-03  0.3203 n n n n n n n n 
    5   20    0  7.752e-04  6.325e-03  0.3203 n n n n n n n n Subspace collapsed.
    6   30    0  1.005e-03  7.957e-03  0.3203 n n n n n n n n 
    7   40    0  7.435e-04  5.114e-03  0.3203 n n n n n n n n 
    8   50    0  4.181e-04  2.999e-03  0.3203 n n n n n n n n 
    9   20    0  2.422e-04  1.766e-03  0.3203 n n n n n n n n Subspace collapsed.
   10   30    0  1.511e-04  1.187e-03  0.3203 n n n n n n n n 
   11   40    4  7.070e-05  5.485e-04  0.3203 y y y y n n n n 
   12   50    5  2.973e-05  2.213e-04  0.3203 y y y y y n n n 
   13   20    5  2.644e-05  1.886e-04  0.3203 y y y y y n n n Subspace collapsed.
   14   30    6  2.833e-05  1.786e-04  0.3203 y y y y y y n n 
   15   40    6  2.552e-05  1.651e-04  0.3203 y y y y y y n n 
   16   50    6  1.181e-05  7.799e-05  0.3203 y y y y y y n n 
   17   20    6  6.395e-06  4.341e-05  0.3203 y y y y y y n n Subspace collapsed.
   18   30    6  3.643e-06  2.352e-05  0.3203 y y y y y y n n 
   19   40    7  1.776e-06  1.145e-05  0.3203 y y y y y y y n 
   20   50    7  1.150e-06  8.136e-06  0.3203 y y y y y y y n 
   21   20    7  9.325e-07  7.069e-06  0.3203 y y y y y y y n Subspace collapsed.
   22   30    7  1.504e-06  1.206e-05  0.3203 y y y y y y y n 
   23   40    7  1.249e-06  1.095e-05  0.3203 y y y y y y y n 
   24   50    8  8.782e-07  7.957e-06  0.3203 y y y y y y y y 
   25   10    8  8.782e-07  7.957e-06  0.3203 y y y y y y y y Subspace collapsed.
   26   10    8  8.782e-07  7.957e-06  0.3203 y y y y y y y y 
   27   20    8  3.999e-07  3.633e-06  0.3203 y y y y y y y y 
   28   27    8  2.568e-07  2.327e-06  0.3203 y y y y y y y y 
   29   34    9  1.477e-07  1.354e-06  0.3203 y y y y y y y y 
   30   41   10  8.953e-08  8.312e-07  0.3203 y y y y y y y y Converged.
--------------------------------------------------------------------------------
  Davidson Summary: 
 ------------------------------------------------------------
  State  0: excitation energy =   0.3203 a.u.   (converged)
  State  1: excitation energy =   0.3283 a.u.   (converged)
  State  2: excitation energy =   0.3358 a.u.   (converged)
  State  3: excitation energy =   0.3578 a.u.   (converged)
  State  4: excitation energy =   0.3730 a.u.   (converged)
  State  5: excitation energy =   0.3862 a.u.   (converged)
  State  6: excitation energy =   0.4198 a.u.   (converged)
  State  7: excitation energy =   0.4429 a.u.   (converged)
  State  8: excitation energy =   0.4534 a.u.   (converged)
  State  9: excitation energy =   0.4583 a.u.   (converged)
 ------------------------------------------------------------

  Singlet states of irrep A ...  CPU 204.36 s  wall 65.81 s
  TDMs ...  CPU 2.49 s  wall 0.93 s
  SDMs ...  CPU 5.31 s  wall 1.62 s
  Starting TPA DIIS iterations ... 
------------------------------------ 
   It     Res. Norm  Remark
------------------------------------
                       Guess.
    1     4.374e+00  
    2     5.812e+00  
    3     1.089e+00  
    4     2.682e-01  
    5     6.621e-02  
    6     2.837e-02  
    7     8.529e-03  
    8     1.656e-03  
    9     6.241e-04  
   10     1.039e-04  
   11     3.888e-05  
   12     6.655e-06  
   13     2.966e-06  
   14     8.730e-07  Converged.
   ... Converged in 14 steps (norm: 8.73035e-07)
------------------------------------
  Starting TPA DIIS iterations ... 
------------------------------------ 
   It     Res. Norm  Remark
------------------------------------
                       Guess.
    1     4.214e+00  
    2     5.584e+00  
    3     1.037e+00  
    4     2.608e-01  
    5     6.581e-02  
    6     2.765e-02  
    7     8.327e-03  
    8     1.596e-03  
    9     6.067e-04  
   10     9.860e-05  
   11     3.720e-05  
   12     6.258e-06  
   13     3.375e-06  
   14     1.061e-06  
   15     5.056e-07  Converged.
   ... Converged in 15 steps (norm: 5.0564e-07)
------------------------------------
  Starting TPA DIIS iterations ... 
------------------------------------ 
   It     Res. Norm  Remark
------------------------------------
                       Guess.
    1     8.053e-01  
    2     7.207e-01  
    3     2.106e-01  
    4     1.356e-01  
    5     1.745e-02  
    6     6.326e-03  
    7     1.178e-03  
    8     4.623e-04  
    9     1.696e-04  
   10     2.867e-05  
   11     1.989e-05  
   12     7.074e-06  
   13     3.328e-06  
   14     1.507e-06  
   15     5.405e-07  Converged.
   ... Converged in 15 steps (norm: 5.40492e-07)
------------------------------------
  Starting TPA DIIS iterations ... 
------------------------------------ 
   It     Res. Norm  Remark
------------------------------------
                       Guess.
    1     4.565e+00  
    2     6.156e+00  
    3     1.144e+00  
    4     2.881e-01  
    5     7.182e-02  
    6     3.098e-02  
    7     9.301e-03  
    8     1.811e-03  
    9     6.865e-04  
   10     1.142e-04  
   11     4.342e-05  
   12     7.464e-06  
   13     3.408e-06  
   14     1.008e-06  
   15     4.586e-07  Converged.
   ... Converged in 15 steps (norm: 4.58634e-07)
------------------------------------
  Starting TPA DIIS iterations ... 
------------------------------------ 
   It     Res. Norm  Remark
------------------------------------
                       Guess.
    1     4.398e+00  
    2     5.913e+00  
    3     1.089e+00  
    4     2.800e-01  
    5     7.139e-02  
    6     3.019e-02  
    7     9.079e-03  
    8     1.745e-03  
    9     6.666e-04  
   10     1.083e-04  
   11     4.155e-05  
   12     7.049e-06  
   13     3.903e-06  
   14     1.251e-06  
   15     5.933e-07  Converged.
   ... Converged in 15 steps (norm: 5.93342e-07)
------------------------------------
  Starting TPA DIIS iterations ... 
------------------------------------ 
   It     Res. Norm  Remark
------------------------------------
                       Guess.
    1     8.219e-01  
    2     7.520e-01  
    3     2.195e-01  
    4     1.416e-01  
    5     1.848e-02  
    6     6.766e-03  
    7     1.280e-03  
    8     5.087e-04  
    9     1.875e-04  
   10     3.282e-05  
   11     2.252e-05  
   12     8.074e-06  
   13     3.793e-06  
   14     1.677e-06  
   15     6.279e-07  Converged.
   ... Converged in 15 steps (norm: 6.27882e-07)
------------------------------------
  Starting TPA DIIS iterations ... 
------------------------------------ 
   It     Res. Norm  Remark
------------------------------------
                       Guess.
    1     4.759e+00  
    2     6.508e+00  
    3     1.199e+00  
    4     3.090e-01  
    5     7.766e-02  
    6     3.373e-02  
    7     1.011e-02  
    8     1.973e-03  
    9     7.525e-04  
   10     1.249e-04  
   11     4.829e-05  
   12     8.329e-06  
   13     3.895e-06  
   14     1.162e-06  
   15     5.343e-07  Converged.
   ... Converged in 15 steps (norm: 5.34299e-07)
------------------------------------
  Starting TPA DIIS iterations ... 
------------------------------------ 
   It     Res. Norm  Remark
------------------------------------
                       Guess.
    1     4.584e+00  
    2     6.251e+00  
    3     1.142e+00  
    4     3.001e-01  
    5     7.721e-02  
    6     3.286e-02  
    7     9.864e-03  
    8     1.900e-03  
    9     7.297e-04  
   10     1.184e-04  
   11     4.623e-05  
   12     7.902e-06  
   13     4.489e-06  
   14     1.466e-06  
   15     6.914e-07  Converged.
   ... Converged in 15 steps (norm: 6.91408e-07)
------------------------------------
  Starting TPA DIIS iterations ... 
------------------------------------ 
   It     Res. Norm  Remark
------------------------------------
                       Guess.
    1     8.386e-01  
    2     7.839e-01  
    3     2.284e-01  
    4     1.476e-01  
    5     1.953e-02  
    6     7.223e-03  
    7     1.389e-03  
    8     5.573e-04  
    9     2.063e-04  
   10     3.758e-05  
   11     2.539e-05  
   12     9.182e-06  
   13     4.306e-06  
   14     1.864e-06  
   15     7.141e-07  Converged.
   ... Converged in 15 steps (norm: 7.1408e-07)
------------------------------------
  Starting TPA DIIS iterations ... 
------------------------------------ 
   It     Res. Norm  Remark
------------------------------------
                       Guess.
    1     5.413e+00  
    2     7.728e+00  
    3     1.385e+00  
    4     3.837e-01  
    5     9.861e-02  
    6     4.369e-02  
    7     1.301e-02  
    8     2.565e-03  
    9     9.951e-04  
   10     1.637e-04  
   11     6.663e-05  
   12     1.157e-05  
   13     5.847e-06  
   14     1.813e-06  
   15     8.472e-07  Converged.
   ... Converged in 15 steps (norm: 8.47189e-07)
------------------------------------
  Starting TPA DIIS iterations ... 
------------------------------------ 
   It     Res. Norm  Remark
------------------------------------
                       Guess.
    1     5.213e+00  
    2     7.423e+00  
    3     1.319e+00  
    4     3.718e-01  
    5     9.805e-02  
    6     4.254e-02  
    7     1.268e-02  
    8     2.465e-03  
    9     9.611e-04  
   10     1.551e-04  
   11     6.393e-05  
   12     1.117e-05  
   13     6.853e-06  
   14     2.382e-06  
   15     1.094e-06  
   16     4.026e-07  Converged.
   ... Converged in 16 steps (norm: 4.0262e-07)
------------------------------------
  Starting TPA DIIS iterations ... 
------------------------------------ 
   It     Res. Norm  Remark
------------------------------------
                       Guess.
    1     8.939e-01  
    2     8.940e-01  
    3     2.573e-01  
    4     1.673e-01  
    5     2.316e-02  
    6     8.847e-03  
    7     1.790e-03  
    8     7.281e-04  
    9     2.734e-04  
   10     5.755e-05  
   11     3.658e-05  
   12     1.368e-05  
   13     6.302e-06  
   14     2.640e-06  
   15     1.006e-06  
   16     5.074e-07  Converged.
   ... Converged in 16 steps (norm: 5.07413e-07)
------------------------------------
  Starting TPA DIIS iterations ... 
------------------------------------ 
   It     Res. Norm  Remark
------------------------------------
                       Guess.
    1     5.955e+00  
    2     8.774e+00  
    3     1.538e+00  
    4     4.503e-01  
    5     1.172e-01  
    6     5.269e-02  
    7     1.560e-02  
    8     3.104e-03  
    9     1.219e-03  
   10     1.985e-04  
   11     8.392e-05  
   12     1.460e-05  
   13     7.833e-06  
   14     2.531e-06  
   15     1.178e-06  
   16     4.290e-07  Converged.
   ... Converged in 16 steps (norm: 4.28973e-07)
------------------------------------
  Starting TPA DIIS iterations ... 
------------------------------------ 
   It     Res. Norm  Remark
------------------------------------
                       Guess.
    1     5.733e+00  
    2     8.427e+00  
    3     1.465e+00  
    4     4.355e-01  
    5     1.166e-01  
    6     5.128e-02  
    7     1.519e-02  
    8     2.977e-03  
    9     1.173e-03  
   10     1.880e-04  
   11     8.073e-05  
   12     1.433e-05  
   13     9.278e-06  
   14     3.379e-06  
   15     1.517e-06  
   16     5.584e-07  Converged.
   ... Converged in 16 steps (norm: 5.5839e-07)
------------------------------------
  Starting TPA DIIS iterations ... 
------------------------------------ 
   It     Res. Norm  Remark
------------------------------------
                       Guess.
    1     9.388e-01  
    2     9.877e-01  
    3     2.803e-01  
    4     1.831e-01  
    5     2.625e-02  
    6     1.028e-02  
    7     2.163e-03  
    8     8.692e-04  
    9     3.323e-04  
   10     7.824e-05  
   11     4.768e-05  
   12     1.837e-05  
   13     8.210e-06  
   14     3.498e-06  
   15     1.307e-06  
   16     6.691e-07  Converged.
   ... Converged in 16 steps (norm: 6.69148e-07)
------------------------------------
  Starting TPA DIIS iterations ... 
------------------------------------ 
   It     Res. Norm  Remark
------------------------------------
                       Guess.
    1     6.498e+00  
    2     9.849e+00  
    3     1.691e+00  
    4     5.208e-01  
    5     1.370e-01  
    6     6.232e-02  
    7     1.834e-02  
    8     3.685e-03  
    9     1.462e-03  
   10     2.353e-04  
   11     1.029e-04  
   12     1.792e-05  
   13     1.016e-05  
   14     3.428e-06  
   15     1.578e-06  
   16     5.874e-07  Converged.
   ... Converged in 16 steps (norm: 5.87411e-07)
------------------------------------
  Starting TPA DIIS iterations ... 
------------------------------------ 
   It     Res. Norm  Remark
------------------------------------
                       Guess.
    1     6.255e+00  
    2     9.459e+00  
    3     1.610e+00  
    4     5.029e-01  
    5     1.362e-01  
    6     6.063e-02  
    7     1.785e-02  
    8     3.527e-03  
    9     1.402e-03  
   10     2.228e-04  
   11     9.934e-05  
   12     1.790e-05  
   13     1.214e-05  
   14     4.610e-06  
   15     2.027e-06  
   16     7.386e-07  Converged.
   ... Converged in 16 steps (norm: 7.38587e-07)
------------------------------------
  Starting TPA DIIS iterations ... 
------------------------------------ 
   It     Res. Norm  Remark
------------------------------------
                       Guess.
    1     9.833e-01  
    2     1.084e+00  
    3     3.025e-01  
    4     1.986e-01  
    5     2.941e-02  
    6     1.179e-02  
    7     2.570e-03  
    8     1.003e-03  
    9     3.933e-04  
   10     1.022e-04  
   11     6.049e-05  
   12     2.398e-05  
   13     1.032e-05  
   14     4.637e-06  
   15     1.713e-06  
   16     8.743e-07  Converged.
   ... Converged in 16 steps (norm: 8.74298e-07)
------------------------------------
  Starting TPA DIIS iterations ... 
------------------------------------ 
   It     Res. Norm  Remark
------------------------------------
                       Guess.
    1     8.323e+00  
    2     1.366e+01  
    3     2.195e+00  
    4     7.822e-01  
    5     2.101e-01  
    6     9.886e-02  
    7     2.854e-02  
    8     5.944e-03  
    9     2.414e-03  
   10     3.717e-04  
   11     1.769e-04  
   12     3.123e-05  
   13     2.033e-05  
   14     7.912e-06  
   15     3.545e-06  
   16     1.329e-06  
   17     5.924e-07  Converged.
   ... Converged in 17 steps (norm: 5.92402e-07)
------------------------------------
  Starting TPA DIIS iterations ... 
------------------------------------ 
   It     Res. Norm  Remark
------------------------------------
                       Guess.
    1     8.007e+00  
    2     1.312e+01  
    3     2.089e+00  
    4     7.512e-01  
    5     2.089e-01  
    6     9.607e-02  
    7     2.773e-02  
    8     5.647e-03  
    9     2.293e-03  
   10     3.520e-04  
   11     1.731e-04  
   12     3.320e-05  
   13     2.482e-05  
   14     1.059e-05  
   15     4.501e-06  
   16     1.526e-06  
   17     7.083e-07  Converged.
   ... Converged in 17 steps (norm: 7.08323e-07)
------------------------------------
  Starting TPA DIIS iterations ... 
------------------------------------ 
   It     Res. Norm  Remark
------------------------------------
                       Guess.
    1     1.131e+00  
    2     1.422e+00  
    3     3.720e-01  
    4     2.489e-01  
    5     4.047e-02  
    6     1.725e-02  
    7     4.158e-03  
    8     1.358e-03  
    9     6.086e-04  
   10     2.007e-04  
   11     1.161e-04  
   12     5.014e-05  
   13     1.934e-05  
   14     1.194e-05  
   15     3.811e-06  
   16     1.834e-06  
   17     7.791e-07  Converged.
   ... Converged in 17 steps (norm: 7.79054e-07)
------------------------------------
  Starting TPA DIIS iterations ... 
------------------------------------ 
   It     Res. Norm  Remark
------------------------------------
                       Guess.
    1     1.010e+01  
    2     1.763e+01  
    3     2.675e+00  
    4     1.066e+00  
    5     2.901e-01  
    6     1.399e-01  
    7     3.972e-02  
    8     8.596e-03  
    9     3.524e-03  
   10     5.194e-04  
   11     2.598e-04  
   12     4.830e-05  
   13     3.326e-05  
   14     1.450e-05  
   15     6.716e-06  
   16     2.450e-06  
   17     1.340e-06  
   18     3.615e-07  Converged.
   ... Converged in 18 steps (norm: 3.61477e-07)
------------------------------------
  Starting TPA DIIS iterations ... 
------------------------------------ 
   It     Res. Norm  Remark
------------------------------------
                       Guess.
    1     9.719e+00  
    2     1.693e+01  
    3     2.546e+00  
    4     1.019e+00  
    5     2.884e-01  
    6     1.358e-01  
    7     3.854e-02  
    8     8.105e-03  
    9     3.320e-03  
   10     4.917e-04  
   11     2.583e-04  
   12     5.388e-05  
   13     4.123e-05  
   14     1.916e-05  
   15     8.363e-06  
   16     2.652e-06  
   17     1.522e-06  
   18     3.322e-07  Converged.
   ... Converged in 18 steps (norm: 3.32182e-07)
------------------------------------
  Starting TPA DIIS iterations ... 
------------------------------------ 
   It     Res. Norm  Remark
------------------------------------
                       Guess.
    1     1.275e+00  
    2     1.775e+00  
    3     4.338e-01  
    4     2.960e-01  
    5     5.184e-02  
    6     2.283e-02  
    7     5.944e-03  
    8     1.596e-03  
    9     8.306e-04  
   10     3.153e-04  
   11     1.889e-04  
   12     8.686e-05  
   13     3.312e-05  
   14     2.453e-05  
   15     6.093e-06  
   16     3.155e-06  
   17     1.209e-06  
   18     3.892e-07  Converged.
   ... Converged in 18 steps (norm: 3.89204e-07)
------------------------------------
  Starting TPA DIIS iterations ... 
------------------------------------ 
   It     Res. Norm  Remark
------------------------------------
                       Guess.
    1     1.112e+01  
    2     1.999e+01  
    3     2.942e+00  
    4     1.236e+00  
    5     3.386e-01  
    6     1.653e-01  
    7     4.653e-02  
    8     1.030e-02  
    9     4.224e-03  
   10     6.086e-04  
   11     3.109e-04  
   12     6.046e-05  
   13     4.179e-05  
   14     1.914e-05  
   15     9.155e-06  
   16     3.316e-06  
   17     2.007e-06  
   18     6.455e-07  Converged.
   ... Converged in 18 steps (norm: 6.45458e-07)
------------------------------------
  Starting TPA DIIS iterations ... 
------------------------------------ 
   It     Res. Norm  Remark
------------------------------------
                       Guess.
    1     1.069e+01  
    2     1.920e+01  
    3     2.800e+00  
    4     1.179e+00  
    5     3.366e-01  
    6     1.604e-01  
    7     4.511e-02  
    8     9.667e-03  
    9     3.964e-03  
   10     5.758e-04  
   11     3.114e-04  
   12     6.855e-05  
   13     5.208e-05  
   14     2.511e-05  
   15     1.128e-05  
   16     3.500e-06  
   17     2.214e-06  
   18     5.216e-07  Converged.
   ... Converged in 18 steps (norm: 5.21565e-07)
------------------------------------
  Starting TPA DIIS iterations ... 
------------------------------------ 
   It     Res. Norm  Remark
------------------------------------
                       Guess.
    1     1.357e+00  
    2     1.984e+00  
    3     4.668e-01  
    4     3.221e-01  
    5     5.850e-02  
    6     2.594e-02  
    7     7.025e-03  
    8     1.717e-03  
    9     9.612e-04  
   10     3.853e-04  
   11     2.382e-04  
   12     1.126e-04  
   13     4.395e-05  
   14     3.335e-05  
   15     7.671e-06  
   16     4.089e-06  
   17     1.466e-06  
   18     4.619e-07  Converged.
   ... Converged in 18 steps (norm: 4.61866e-07)
------------------------------------
  Starting TPA DIIS iterations ... 
------------------------------------ 
   It     Res. Norm  Remark
------------------------------------
                       Guess.
    1     1.165e+01  
    2     2.126e+01  
    3     3.081e+00  
    4     1.327e+00  
    5     3.650e-01  
    6     1.792e-01  
    7     5.024e-02  
    8     1.125e-02  
    9     4.611e-03  
   10     6.568e-04  
   11     3.390e-04  
   12     6.771e-05  
   13     4.662e-05  
   14     2.183e-05  
   15     1.061e-05  
   16     3.844e-06  
   17     2.439e-06  
   18     8.638e-07  Converged.
   ... Converged in 18 steps (norm: 8.6382e-07)
------------------------------------
  Starting TPA DIIS iterations ... 
------------------------------------ 
   It     Res. Norm  Remark
------------------------------------
                       Guess.
    1     1.120e+01  
    2     2.041e+01  
    3     2.933e+00  
    4     1.266e+00  
    5     3.628e-01  
    6     1.738e-01  
    7     4.869e-02  
    8     1.054e-02  
    9     4.320e-03  
   10     6.213e-04  
   11     3.407e-04  
   12     7.719e-05  
   13     5.820e-05  
   14     2.853e-05  
   15     1.303e-05  
   16     4.011e-06  
   17     2.651e-06  
   18     7.113e-07  Converged.
   ... Converged in 18 steps (norm: 7.11325e-07)
------------------------------------
  Starting TPA DIIS iterations ... 
------------------------------------ 
   It     Res. Norm  Remark
------------------------------------
                       Guess.
    1     1.400e+00  
    2     2.096e+00  
    3     4.836e-01  
    4     3.357e-01  
    5     6.207e-02  
    6     2.753e-02  
    7     7.608e-03  
    8     1.783e-03  
    9     1.031e-03  
   10     4.231e-04  
   11     2.664e-04  
   12     1.275e-04  
   13     5.057e-05  
   14     3.837e-05  
   15     8.653e-06  
   16     4.632e-06  
   17     1.614e-06  
   18     5.068e-07  Converged.
   ... Converged in 18 steps (norm: 5.06832e-07)
------------------------------------
  Two-photon absorbption ...  CPU 175.06 s  wall 47.58 s
  Transition density matrix of state singlet_A_1 printed to ASCII file 'State_singlet_A_1_Transition.txt'
  Transition density matrix of state singlet_A_2 printed to ASCII file 'State_singlet_A_2_Transition.txt'
  Transition density matrix of state singlet_A_3 printed to ASCII file 'State_singlet_A_3_Transition.txt'
  Transition density matrix of state singlet_A_4 printed to ASCII file 'State_singlet_A_4_Transition.txt'
  Transition density matrix of state singlet_A_5 printed to ASCII file 'State_singlet_A_5_Transition.txt'
  Transition density matrix of state singlet_A_6 printed to ASCII file 'State_singlet_A_6_Transition.txt'
  Transition density matrix of state singlet_A_7 printed to ASCII file 'State_singlet_A_7_Transition.txt'
  Transition density matrix of state singlet_A_8 printed to ASCII file 'State_singlet_A_8_Transition.txt'
  Transition density matrix of state singlet_A_9 printed to ASCII file 'State_singlet_A_9_Transition.txt'
  Transition density matrix of state singlet_A_10 printed to ASCII file 'State_singlet_A_10_Transition.txt'
  Transition properties ...  CPU 0.33 s  wall 0.59 s
  Difference density matrix of state singlet_A_1 printed to ASCII file 'State_singlet_A_1_Difference.txt'
  Total density matrix of state singlet_A_1 printed to ASCII file 'State_singlet_A_1_Total.txt'
  Difference density matrix of state singlet_A_2 printed to ASCII file 'State_singlet_A_2_Difference.txt'
  Total density matrix of state singlet_A_2 printed to ASCII file 'State_singlet_A_2_Total.txt'
  Difference density matrix of state singlet_A_3 printed to ASCII file 'State_singlet_A_3_Difference.txt'
  Total density matrix of state singlet_A_3 printed to ASCII file 'State_singlet_A_3_Total.txt'
  Difference density matrix of state singlet_A_4 printed to ASCII file 'State_singlet_A_4_Difference.txt'
  Total density matrix of state singlet_A_4 printed to ASCII file 'State_singlet_A_4_Total.txt'
  Difference density matrix of state singlet_A_5 printed to ASCII file 'State_singlet_A_5_Difference.txt'
  Total density matrix of state singlet_A_5 printed to ASCII file 'State_singlet_A_5_Total.txt'
  Difference density matrix of state singlet_A_6 printed to ASCII file 'State_singlet_A_6_Difference.txt'
  Total density matrix of state singlet_A_6 printed to ASCII file 'State_singlet_A_6_Total.txt'
  Difference density matrix of state singlet_A_7 printed to ASCII file 'State_singlet_A_7_Difference.txt'
  Total density matrix of state singlet_A_7 printed to ASCII file 'State_singlet_A_7_Total.txt'
  Difference density matrix of state singlet_A_8 printed to ASCII file 'State_singlet_A_8_Difference.txt'
  Total density matrix of state singlet_A_8 printed to ASCII file 'State_singlet_A_8_Total.txt'
  Difference density matrix of state singlet_A_9 printed to ASCII file 'State_singlet_A_9_Difference.txt'
  Total density matrix of state singlet_A_9 printed to ASCII file 'State_singlet_A_9_Total.txt'
  Difference density matrix of state singlet_A_10 printed to ASCII file 'State_singlet_A_10_Difference.txt'
  Total density matrix of state singlet_A_10 printed to ASCII file 'State_singlet_A_10_Total.txt'
  Properties ...  CPU 0.61 s  wall 0.98 s
  ISR TDMS ...  CPU 30.89 s  wall 9.50 s
  ISR transition properties ...  CPU 0.50 s  wall 0.24 s
  Sum-over-states TPA ...  CPU 0.00 s  wall 0.00 s

--------------------------------------------------------------------------------
                   State-averaged natural transition orbitals
--------------------------------------------------------------------------------
--------------------------------------------------------------------------------
  SA-NTO decomposition ...  CPU 0.01 s  wall 0.03 s

--------------------------------------------------------------------------------
                             Excited State Summary
--------------------------------------------------------------------------------
--------------------------------------------------------------------------------

  Excited state 1 (singlet, A)                                     [converged]
  ----------------------------------------------------------------------------
  Term symbol:  2 (1) A                                     R^2 =  2.99451e-13

  Total energy:                                            -77.9993911063 a.u.
  Excitation energy:                                               8.716083 eV

  Osc. strength:                                                      0.443194
  Trans. dip. moment [a.u.]:           [   1.042128,   -0.992543,   -0.065485]
  <i|r^2|0> [a.u.]:                    [   6.140883,   -0.258610,    0.015839]
  Two-photon absorption cross-section (SoS) [a.u.]:                   0.024322
  Two-photon absorption matrix (SoS) [a.u.]:
                                       |    0.034410    0.006527    0.033869 |
                                       |    0.006527   -0.000724   -0.019009 |
                                       |    0.033869   -0.019009    0.019492 |
  Two-photon absorption cross-section [a.u.]:                         0.048158
  Two-photon absorption matrix [a.u.]:
                                       |    0.040987    0.003901    0.052757 |
                                       |    0.003901    0.003141   -0.041947 |
                                       |    0.052757   -0.041947    0.005028 |

  Dip. moment [a.u.]:                  [   0.010858,   -0.001763,   -0.029509]
  Total dipole [Debye]:                                               0.080046
  <r^2> [a.u.]:                        [ 175.284379,   36.119511,   12.053547]
  Total <r^2> [a.u.]:                                               223.457437

  V1^2 = 0.9712, V2^2 = 0.0288

  Important amplitudes:
      occ i     occ j     vir a      vir b          v   
    -----------------------------------------------------
     8 (A) A              9 (A) A                 0.6805
     6 (A) A             14 (A) A                -0.0618
     4 (A) A             10 (A) A                 0.0609
     7 (A) A             16 (A) A                -0.0571
     5 (A) A             13 (A) A                 0.0526
     6 (A) A             23 (A) A                -0.0482
     8 (A) A             20 (A) A                 0.0346
     6 (A) A             19 (A) A                 0.0301
     3 (A) A             12 (A) A                -0.0283
     5 (A) A             22 (A) A                 0.0215
     8 (A) A             10 (A) A                -0.0187
     4 (A) A             24 (A) A                 0.0187
     7 (A) A             11 (A) A                -0.0186
     8 (A) A   8 (A) B   17 (A) A   20 (A) B     -0.0183
     3 (A) A             26 (A) A                 0.0174
     8 (A) A   8 (A) B    9 (A) A   28 (A) B      0.0167
     6 (A) A             26 (A) A                 0.0153
     7 (A) A             21 (A) A                -0.0152
     3 (A) A             14 (A) A                -0.0143
     6 (A) A             12 (A) A                 0.0136
     3 (A) A   4 (A) B    9 (A) A    9 (A) B     -0.0129
     6 (A) A              9 (A) A                -0.0127
     3 (A) A             19 (A) A                 0.0120
     8 (A) A   8 (A) B   18 (A) A   19 (A) B     -0.0110
     7 (A) A             32 (A) A                -0.0096
     7 (A) A             36 (A) A                -0.0085
     3 (A) A             23 (A) A                -0.0082
     4 (A) A              9 (A) A                -0.0072
     8 (A) A   8 (A) B   25 (A) A   29 (A) B     -0.0068
     3 (A) A             27 (A) A                 0.0066
     6 (A) A             35 (A) A                 0.0065
     3 (A) A   6 (A) B    9 (A) A   28 (A) B      0.0064
     6 (A) A             40 (A) A                -0.0062
     5 (A) A   8 (A) B   11 (A) A    9 (A) B      0.0062
     7 (A) A   8 (A) B   13 (A) A   20 (A) B      0.0060
     5 (A) A   7 (A) B    9 (A) A    9 (A) B      0.0060
     5 (A) A   8 (A) B   11 (A) A   20 (A) B     -0.0060
     6 (A) A   8 (A) A   19 (A) A   28 (A) A     -0.0059
     5 (A) A   8 (A) B   16 (A) A    9 (A) B     -0.0059
     7 (A) A   8 (A) B   22 (A) A   20 (A) B      0.0057
    -----------------------------------------------------

  Density matrix analysis:
  ------------------------
  NOs
    Occupation of frontier NOs:
       0.9494   1.0216
    Number of electrons: 16.000000
    Number of unpaired electrons: n_u =  2.31707, n_u,nl =  2.03333
    NO participation ratio (PR_NO):  2.872998
  
  
  Mulliken Population Analysis
  Atom      Charge (e)              h+              e-           Del q
  --------------------------------------------------------------------
   1 H        0.061805        0.020402       -0.012621        0.007781
   2 C       -0.121993        0.490583       -0.505110       -0.014527
   3 H        0.064062        0.020677       -0.012587        0.008091
   4 C       -0.127353        0.490776       -0.504829       -0.014053
   5 H        0.060484        0.020626       -0.014117        0.006509
   6 H        0.062994        0.020697       -0.014499        0.006198
  --------------------------------------------------------------------
  Sum:        0.000000        1.063762       -1.063762        0.000000
  
  Multipole moment analysis of the density matrix
    Molecular charge:                      0.000000
    Number of electrons:                   16.000000
      Center of electronic charge [Ang]: [ -1.554536,  -0.063201,   0.030323]
    Total nuclear charge:                  16.000000
      Center of nuclear charge [Ang]:    [ -1.554177,  -0.063259,   0.029347]
    Dipole moment [D]:                     0.080046
      Cartesian components [D]:          [  0.027598,  -0.004481,  -0.075005]
    RMS size of the density [Ang]:         1.220413
      Cartesian components [Ang]:        [  0.806974,   0.792566,   0.458300]
  
  Exciton analysis of the difference density matrix
    <r_h> [Ang]:                  [ -1.554365,  -0.063384,   0.042393]
    <r_e> [Ang]:                  [ -1.557317,  -0.061044,   0.044941]
    |<r_e - r_h>| [Ang]:            0.004548
    Hole size [Ang]:                1.288289
      Cartesian components [Ang]: [  0.729544,   0.717937,   0.782318]
    Electron size [Ang]:            1.467537
      Cartesian components [Ang]: [  0.854782,   0.839076,   0.847916]

  Transition density matrix analysis:
  -----------------------------------
  
  CT numbers (Mulliken)
    omega =     0.9530
    <Phe> =    -0.1602
  
  Exciton analysis of the transition density matrix
    Trans. dipole moment [D]:             1.830878
      Cartesian components [D]:         [  1.324412,  -1.261397,  -0.083223]
    <r_h> [Ang]:                        [ -1.553268,  -0.063402,   0.040113]
    <r_e> [Ang]:                        [ -1.557698,  -0.061191,   0.047021]
    |<r_e - r_h>| [Ang]:                  0.008499
    Hole size [Ang]:                      1.214928
      Cartesian components [Ang]:       [  0.648887,   0.640309,   0.803119]
    Electron size [Ang]:                  1.490831
      Cartesian components [Ang]:       [  0.865417,   0.848286,   0.868356]
    RMS electron-hole separation [Ang]:   1.940792
      Cartesian components [Ang]:       [  1.105985,   1.084738,   1.169108]
    Covariance(r_h, r_e) [Ang^2]:        -0.033987
    Correlation coefficient:             -0.018765
    Center-of-mass size [Ang]:            0.952714
      Cartesian components [Ang]:       [  0.528398,   0.520220,   0.598188]

  Decomposition into state-averaged NTOs
    H- 0 -> L+ 0:  0.6686 ( 89.4%)
    H- 2 -> L+ 5:  0.0829 (  1.4%)
                   omega =  95.3%
  ----------------------------------------------------------------------------


  Excited state 2 (singlet, A)                                     [converged]
  ----------------------------------------------------------------------------
  Term symbol:  3 (1) A                                     R^2 =  5.46026e-13

  Total energy:                                            -77.9914444411 a.u.
  Excitation energy:                                               8.932323 eV

  Osc. strength:                                                      0.000243
  Trans. dip. moment [a.u.]:           [  -0.006749,   -0.015481,   -0.028744]
  <i|r^2|0> [a.u.]:                    [  -0.038958,    0.187012,   -0.188503]
  Two-photon absorption cross-section (SoS) [a.u.]:                   4.532814
  Two-photon absorption matrix (SoS) [a.u.]:
                                       |   -0.081912    0.073528   -0.526874 |
                                       |    0.073528    0.170702   -0.502346 |
                                       |   -0.526874   -0.502346   -0.156134 |
  Two-photon absorption cross-section [a.u.]:                         1.062114
  Two-photon absorption matrix [a.u.]:
                                       |   -0.356913   -0.026968    0.124593 |
                                       |   -0.026968    0.292856    0.096159 |
                                       |    0.124593    0.096159    0.024468 |

  Dip. moment [a.u.]:                  [   0.008482,    0.039307,   -0.052096]
  Total dipole [Debye]:                                               0.167272
  <r^2> [a.u.]:                        [ 173.468447,   34.631123,   13.340157]
  Total <r^2> [a.u.]:                                               221.439727

  V1^2 = 0.9540, V2^2 = 0.0460

  Important amplitudes:
      occ i     occ j     vir a      vir b          v   
    -----------------------------------------------------
     7 (A) A              9 (A) A                 0.6670
     8 (A) A             11 (A) A                -0.1485
     7 (A) A             20 (A) A                 0.0753
     8 (A) A             10 (A) A                 0.0499
     5 (A) A   8 (A) B    9 (A) A    9 (A) B      0.0314
     8 (A) A             16 (A) A                 0.0279
     8 (A) A             21 (A) A                -0.0176
     7 (A) A             10 (A) A                 0.0156
     5 (A) A             28 (A) A                -0.0149
     4 (A) A   7 (A) B    9 (A) A   19 (A) B     -0.0135
     5 (A) A   7 (A) B    9 (A) A   16 (A) B      0.0133
     7 (A) A   8 (A) B   20 (A) A   17 (A) B     -0.0105
     7 (A) A   8 (A) A    9 (A) A   28 (A) A     -0.0097
     5 (A) A   8 (A) B    9 (A) A   20 (A) B      0.0094
     7 (A) A             12 (A) A                -0.0092
     4 (A) A   6 (A) B    9 (A) A   16 (A) B      0.0090
     5 (A) A   6 (A) A    9 (A) A   23 (A) A      0.0090
     5 (A) A   6 (A) A    9 (A) A   14 (A) A      0.0088
     8 (A) A   7 (A) B    9 (A) A   28 (A) B      0.0085
     5 (A) A   6 (A) B    9 (A) A   19 (A) B     -0.0085
     4 (A) A   5 (A) A    9 (A) A   10 (A) A      0.0085
     6 (A) A   7 (A) B    9 (A) A   18 (A) B     -0.0084
     3 (A) A   7 (A) B    9 (A) A   18 (A) B      0.0079
     5 (A) A   6 (A) B    9 (A) A   23 (A) B      0.0079
     5 (A) A   7 (A) A    9 (A) A   16 (A) A      0.0078
     4 (A) A   7 (A) B   19 (A) A    9 (A) B     -0.0074
     7 (A) A   8 (A) B   17 (A) A   20 (A) B     -0.0074
     4 (A) A   8 (A) B    9 (A) A   25 (A) B      0.0073
     5 (A) A   5 (A) B    9 (A) A   13 (A) B     -0.0072
     7 (A) A   8 (A) B   19 (A) A   18 (A) B     -0.0070
     4 (A) A   5 (A) B    9 (A) A   18 (A) B     -0.0068
     5 (A) A   8 (A) A    9 (A) A   20 (A) A      0.0068
     7 (A) A   7 (A) B   20 (A) A   22 (A) B      0.0065
     7 (A) A   8 (A) B   17 (A) A    9 (A) B     -0.0065
     5 (A) A   6 (A) B    9 (A) A   14 (A) B      0.0063
     5 (A) A   7 (A) B   11 (A) A   20 (A) B     -0.0061
     4 (A) A   5 (A) B   10 (A) A    9 (A) B     -0.0061
     4 (A) A   7 (A) A    9 (A) A   19 (A) A     -0.0061
     4 (A) A   6 (A) B   16 (A) A    9 (A) B      0.0058
     6 (A) A   7 (A) A   19 (A) A   28 (A) A     -0.0055
    -----------------------------------------------------

  Density matrix analysis:
  ------------------------
  NOs
    Occupation of frontier NOs:
       0.9526   1.0585
    Number of electrons: 16.000000
    Number of unpaired electrons: n_u =  2.35866, n_u,nl =  2.06736
    NO participation ratio (PR_NO):  3.065230
  
  
  Mulliken Population Analysis
  Atom      Charge (e)              h+              e-           Del q
  --------------------------------------------------------------------
   1 H        0.161829        0.125946       -0.018141        0.107805
   2 C       -0.306654        0.269227       -0.468415       -0.199187
   3 H        0.142183        0.118720       -0.032508        0.086211
   4 C       -0.309261        0.276408       -0.472369       -0.195960
   5 H        0.152550        0.115573       -0.016998        0.098575
   6 H        0.159353        0.137454       -0.034897        0.102557
  --------------------------------------------------------------------
  Sum:        0.000000        1.043328       -1.043328        0.000000
  
  Multipole moment analysis of the density matrix
    Molecular charge:                      0.000000
    Number of electrons:                   16.000000
      Center of electronic charge [Ang]: [ -1.554458,  -0.064559,   0.031070]
    Total nuclear charge:                  16.000000
      Center of nuclear charge [Ang]:    [ -1.554177,  -0.063259,   0.029347]
    Dipole moment [D]:                     0.167272
      Cartesian components [D]:          [  0.021560,   0.099907,  -0.132415]
    RMS size of the density [Ang]:         1.205868
      Cartesian components [Ang]:        [  0.787190,   0.775847,   0.482194]
  
  Exciton analysis of the difference density matrix
    <r_h> [Ang]:                  [ -1.576984,  -0.065050,   0.025166]
    <r_e> [Ang]:                  [ -1.578790,  -0.083495,   0.039220]
    |<r_e - r_h>| [Ang]:            0.023260
    Hole size [Ang]:                1.496153
      Cartesian components [Ang]: [  1.034494,   0.977463,   0.461368]
    Electron size [Ang]:            1.483416
      Cartesian components [Ang]: [  0.888120,   0.863263,   0.816421]

  Transition density matrix analysis:
  -----------------------------------
  
  CT numbers (Mulliken)
    omega =     0.9212
    <Phe> =    -0.0115
  
  Exciton analysis of the transition density matrix
    Trans. dipole moment [D]:             0.042369
      Cartesian components [D]:         [ -0.008578,  -0.019674,  -0.036530]
    <r_h> [Ang]:                        [ -1.579195,  -0.063905,   0.021610]
    <r_e> [Ang]:                        [ -1.578257,  -0.085552,   0.042823]
    |<r_e - r_h>| [Ang]:                  0.030322
    Hole size [Ang]:                      1.525907
      Cartesian components [Ang]:       [  1.060991,   0.998771,   0.452930]
    Electron size [Ang]:                  1.479047
      Cartesian components [Ang]:       [  0.877045,   0.852274,   0.831866]
    RMS electron-hole separation [Ang]:   2.105760
      Cartesian components [Ang]:       [  1.361071,   1.298235,   0.946728]
    Covariance(r_h, r_e) [Ang^2]:         0.041333
    Correlation coefficient:              0.018314
    Center-of-mass size [Ang]:            1.072222
      Cartesian components [Ang]:       [  0.695936,   0.663868,   0.473933]

  Decomposition into state-averaged NTOs
    H- 1 -> L+ 0:  0.6595 ( 87.0%)
    H- 0 -> L+ 2:  0.1511 (  4.6%)
                   omega =  92.1%
  ----------------------------------------------------------------------------


  Excited state 3 (singlet, A)                                     [converged]
  ----------------------------------------------------------------------------
  Term symbol:  4 (1) A                                     R^2 =  6.41819e-14

  Total energy:                                            -77.9839325755 a.u.
  Excitation energy:                                               9.136731 eV

  Osc. strength:                                                      0.025120
  Trans. dip. moment [a.u.]:           [   0.075822,   -0.026786,   -0.325201]
  <i|r^2|0> [a.u.]:                    [   0.463339,   -0.000585,    0.039017]
  Two-photon absorption cross-section (SoS) [a.u.]:                   0.564631
  Two-photon absorption matrix (SoS) [a.u.]:
                                       |   -0.062237    0.025334   -0.091317 |
                                       |    0.025334    0.000063   -0.075916 |
                                       |   -0.091317   -0.075916   -0.245744 |
  Two-photon absorption cross-section [a.u.]:                         0.640293
  Two-photon absorption matrix [a.u.]:
                                       |   -0.138104    0.058565   -0.093188 |
                                       |    0.058565   -0.087712   -0.074137 |
                                       |   -0.093188   -0.074137   -0.157235 |

  Dip. moment [a.u.]:                  [   0.154959,    0.137697,    0.052357]
  Total dipole [Debye]:                                               0.543447
  <r^2> [a.u.]:                        [ 180.874388,   40.966186,   11.240156]
  Total <r^2> [a.u.]:                                               233.080730

  V1^2 = 0.9580, V2^2 = 0.0420

  Important amplitudes:
      occ i     occ j     vir a      vir b          v   
    -----------------------------------------------------
     8 (A) A             10 (A) A                 0.6861
     7 (A) A              9 (A) A                -0.0543
     8 (A) A             24 (A) A                 0.0503
     8 (A) A             18 (A) A                -0.0330
     4 (A) A              9 (A) A                 0.0243
     8 (A) A   8 (A) B    9 (A) A   12 (A) B     -0.0221
     8 (A) A              9 (A) A                 0.0181
     8 (A) A   8 (A) B   10 (A) A   17 (A) B      0.0170
     5 (A) A   8 (A) B   11 (A) A   10 (A) B      0.0168
     8 (A) A             15 (A) A                 0.0148
     7 (A) A   8 (A) B   13 (A) A   10 (A) B     -0.0142
     8 (A) A             11 (A) A                -0.0142
     4 (A) A   8 (A) B   12 (A) A   10 (A) B     -0.0112
     6 (A) A   8 (A) A   10 (A) A   15 (A) A     -0.0111
     6 (A) A   8 (A) B   15 (A) A   10 (A) B      0.0108
     7 (A) A   8 (A) B   22 (A) A   10 (A) B     -0.0108
     4 (A) A   8 (A) A   10 (A) A   12 (A) A      0.0107
     7 (A) A   8 (A) A   10 (A) A   22 (A) A      0.0099
     7 (A) A   8 (A) A   10 (A) A   13 (A) A      0.0098
     5 (A) A   8 (A) A   10 (A) A   11 (A) A     -0.0097
     5 (A) A   8 (A) B   21 (A) A   10 (A) B      0.0093
     6 (A) A   8 (A) B   10 (A) A   10 (A) B     -0.0089
     6 (A) A   8 (A) A   10 (A) A   18 (A) A     -0.0085
     7 (A) A   8 (A) A   12 (A) A   16 (A) A      0.0083
     3 (A) A   4 (A) B   10 (A) A    9 (A) B     -0.0079
     5 (A) A   8 (A) A   10 (A) A   21 (A) A     -0.0078
     4 (A) A   8 (A) B   19 (A) A   10 (A) B      0.0075
     8 (A) A   8 (A) B    9 (A) A   23 (A) B      0.0075
     8 (A) A   8 (A) B   10 (A) A   28 (A) B      0.0073
     7 (A) A   8 (A) B   16 (A) A   12 (A) B     -0.0071
     5 (A) A   8 (A) B   10 (A) A   11 (A) B      0.0071
     3 (A) A   8 (A) A   10 (A) A   24 (A) A     -0.0071
     3 (A) A   8 (A) B   10 (A) A   10 (A) B      0.0070
     8 (A) A   8 (A) B    9 (A) A   19 (A) B      0.0069
     3 (A) A   8 (A) B   10 (A) A   18 (A) B     -0.0067
     6 (A) A   8 (A) B   18 (A) A   10 (A) B      0.0065
     3 (A) A   6 (A) B   10 (A) A   28 (A) B      0.0061
     7 (A) A   8 (A) B   12 (A) A   11 (A) B      0.0059
     7 (A) A             20 (A) A                -0.0059
     6 (A) A             28 (A) A                -0.0057
    -----------------------------------------------------

  Density matrix analysis:
  ------------------------
  NOs
    Occupation of frontier NOs:
       0.9785   0.9874
    Number of electrons: 16.000000
    Number of unpaired electrons: n_u =  2.30150, n_u,nl =  2.02800
    NO participation ratio (PR_NO):  2.730589
  
  
  Mulliken Population Analysis
  Atom      Charge (e)              h+              e-           Del q
  --------------------------------------------------------------------
   1 H       -0.129286        0.055357       -0.238667       -0.183311
   2 C        0.305811        0.530960       -0.117683        0.413277
   3 H       -0.172384        0.053719       -0.282074       -0.228356
   4 C        0.301135        0.532342       -0.117906        0.414436
   5 H       -0.129240        0.055192       -0.238406       -0.183214
   6 H       -0.176035        0.054298       -0.287130       -0.232832
  --------------------------------------------------------------------
  Sum:        0.000000        1.281867       -1.281867        0.000000
  
  Multipole moment analysis of the density matrix
    Molecular charge:                      -0.000000
    Number of electrons:                   16.000000
      Center of electronic charge [Ang]: [ -1.559302,  -0.067813,   0.027615]
    Total nuclear charge:                  16.000000
      Center of nuclear charge [Ang]:    [ -1.554177,  -0.063259,   0.029347]
    Dipole moment [D]:                     0.543447
      Cartesian components [D]:          [  0.393867,   0.349992,   0.133079]
    RMS size of the density [Ang]:         1.281618
      Cartesian components [Ang]:        [  0.856855,   0.844028,   0.442674]
  
  Exciton analysis of the difference density matrix
    <r_h> [Ang]:                  [ -1.556638,  -0.064280,   0.036655]
    <r_e> [Ang]:                  [ -1.618575,  -0.119910,   0.004974]
    |<r_e - r_h>| [Ang]:            0.089077
    Hole size [Ang]:                1.414542
      Cartesian components [Ang]: [  0.837228,   0.825058,   0.786929]
    Electron size [Ang]:            2.077276
      Cartesian components [Ang]: [  1.377579,   1.373146,   0.729259]

  Transition density matrix analysis:
  -----------------------------------
  
  CT numbers (Mulliken)
    omega =     0.9250
    <Phe> =    -0.0116
  
  Exciton analysis of the transition density matrix
    Trans. dipole moment [D]:             0.425737
      Cartesian components [D]:         [  0.096360,  -0.034042,  -0.413289]
    <r_h> [Ang]:                        [ -1.551009,  -0.060394,   0.044008]
    <r_e> [Ang]:                        [ -1.639758,  -0.138881,  -0.003875]
    |<r_e - r_h>| [Ang]:                  0.127786
    Hole size [Ang]:                      1.215651
      Cartesian components [Ang]:       [  0.639247,   0.629414,   0.820371]
    Electron size [Ang]:                  2.290751
      Cartesian components [Ang]:       [  1.518633,   1.514346,   0.805016]
    RMS electron-hole separation [Ang]:   2.586196
      Cartesian components [Ang]:       [  1.642314,   1.634521,   1.148720]
    Covariance(r_h, r_e) [Ang^2]:         0.026633
    Correlation coefficient:              0.009564
    Center-of-mass size [Ang]:            1.301789
      Cartesian components [Ang]:       [  0.827715,   0.823607,   0.575511]

  Decomposition into state-averaged NTOs
    H- 0 -> L+ 1:  0.6742 ( 90.9%)
                   omega =  92.5%
  ----------------------------------------------------------------------------


  Excited state 4 (singlet, A)                                     [converged]
  ----------------------------------------------------------------------------
  Term symbol:  5 (1) A                                     R^2 =  5.03259e-13

  Total energy:                                            -77.9618805708 a.u.
  Excitation energy:                                               9.736797 eV

  Osc. strength:                                                      0.000240
  Trans. dip. moment [a.u.]:           [   0.000434,   -0.000884,    0.031680]
  <i|r^2|0> [a.u.]:                    [   0.004059,    0.038633,   -0.045956]
  Two-photon absorption cross-section (SoS) [a.u.]:                 135.567590
  Two-photon absorption matrix (SoS) [a.u.]:
                                       |   -0.087708    0.395622   -2.821192 |
                                       |    0.395622    0.855396   -2.856031 |
                                       |   -2.821192   -2.856031   -0.779310 |
  Two-photon absorption cross-section [a.u.]:                        82.654487
  Two-photon absorption matrix [a.u.]:
                                       |   -0.323515    0.284182   -2.223214 |
                                       |    0.284182    0.927584   -2.155270 |
                                       |   -2.223214   -2.155270   -0.601068 |

  Dip. moment [a.u.]:                  [  -0.190987,   -0.206079,    0.006674]
  Total dipole [Debye]:                                               0.714359
  <r^2> [a.u.]:                        [ 179.181636,   40.838383,   10.940127]
  Total <r^2> [a.u.]:                                               230.960147

  V1^2 = 0.9633, V2^2 = 0.0367

  Important amplitudes:
      occ i     occ j     vir a      vir b          v   
    -----------------------------------------------------
     8 (A) A             11 (A) A                -0.6692
     7 (A) A              9 (A) A                -0.1491
     8 (A) A             21 (A) A                -0.0777
     8 (A) A             16 (A) A                 0.0673
     8 (A) A             10 (A) A                -0.0260
     8 (A) A   8 (A) B    9 (A) A   13 (A) B     -0.0167
     5 (A) A   8 (A) B   11 (A) A   11 (A) B     -0.0157
     8 (A) A   8 (A) B   11 (A) A   17 (A) B     -0.0137
     7 (A) A             20 (A) A                -0.0135
     7 (A) A   8 (A) B   13 (A) A   11 (A) B      0.0127
     4 (A) A   8 (A) B   12 (A) A   11 (A) B      0.0110
     5 (A) A   8 (A) A   11 (A) A   21 (A) A      0.0109
     8 (A) A   8 (A) B    9 (A) A   22 (A) B     -0.0109
     7 (A) A   8 (A) A   11 (A) A   22 (A) A     -0.0095
     6 (A) A   8 (A) B   10 (A) A   11 (A) B      0.0090
     6 (A) A   8 (A) B   15 (A) A   11 (A) B     -0.0089
     7 (A) A   8 (A) B   22 (A) A   11 (A) B      0.0088
     3 (A) A   4 (A) B   11 (A) A    9 (A) B      0.0083
     3 (A) A   8 (A) B   11 (A) A   18 (A) B      0.0079
     6 (A) A   8 (A) A   11 (A) A   15 (A) A      0.0079
     7 (A) A   8 (A) A   13 (A) A   16 (A) A      0.0079
     7 (A) A   8 (A) A   11 (A) A   13 (A) A     -0.0075
     4 (A) A   8 (A) B   19 (A) A   11 (A) B     -0.0070
     5 (A) A   8 (A) B   21 (A) A   11 (A) B     -0.0069
     5 (A) A   8 (A) B    9 (A) A    9 (A) B     -0.0067
     4 (A) A   8 (A) A   11 (A) A   12 (A) A     -0.0062
     3 (A) A   6 (A) B   11 (A) A   28 (A) B     -0.0060
     6 (A) A   8 (A) A   11 (A) A   18 (A) A      0.0059
     6 (A) A   8 (A) B   18 (A) A   11 (A) B     -0.0058
     7 (A) A   8 (A) B   16 (A) A   13 (A) B     -0.0057
     3 (A) A   8 (A) B   11 (A) A   30 (A) B      0.0056
     5 (A) A   8 (A) B   10 (A) A   10 (A) B     -0.0055
     6 (A) A              9 (A) A                 0.0055
     7 (A) A   8 (A) B   12 (A) A   10 (A) B     -0.0054
     8 (A) A   8 (A) B   20 (A) A   22 (A) B     -0.0054
     3 (A) A   8 (A) A   11 (A) A   18 (A) A      0.0054
     6 (A) A   8 (A) B   11 (A) A   10 (A) B      0.0054
     3 (A) A   8 (A) A   11 (A) A   24 (A) A      0.0053
     3 (A) A   5 (A) B   11 (A) A   25 (A) B      0.0053
     5 (A) A   8 (A) A   11 (A) A   16 (A) A     -0.0049
    -----------------------------------------------------

  Density matrix analysis:
  ------------------------
  NOs
    Occupation of frontier NOs:
       0.9413   1.0268
    Number of electrons: 16.000000
    Number of unpaired electrons: n_u =  2.32250, n_u,nl =  2.04932
    NO participation ratio (PR_NO):  2.918006
  
  
  Mulliken Population Analysis
  Atom      Charge (e)              h+              e-           Del q
  --------------------------------------------------------------------
   1 H       -0.171725        0.046603       -0.272353       -0.225750
   2 C        0.256702        0.496453       -0.132284        0.364168
   3 H       -0.082471        0.044734       -0.183176       -0.138442
   4 C        0.249155        0.497238       -0.134782        0.362456
   5 H       -0.157863        0.045588       -0.257426       -0.211838
   6 H       -0.093798        0.046224       -0.196818       -0.150594
  --------------------------------------------------------------------
  Sum:        0.000000        1.176841       -1.176841        0.000000
  
  Multipole moment analysis of the density matrix
    Molecular charge:                      0.000000
    Number of electrons:                   16.000000
      Center of electronic charge [Ang]: [ -1.547860,  -0.056443,   0.029126]
    Total nuclear charge:                  16.000000
      Center of nuclear charge [Ang]:    [ -1.554177,  -0.063259,   0.029347]
    Dipole moment [D]:                     0.714358
      Cartesian components [D]:          [ -0.485440,  -0.523802,   0.016965]
    RMS size of the density [Ang]:         1.281526
      Cartesian components [Ang]:        [  0.860306,   0.843539,   0.436604]
  
  Exciton analysis of the difference density matrix
    <r_h> [Ang]:                  [ -1.549373,  -0.057174,   0.038965]
    <r_e> [Ang]:                  [ -1.461281,   0.036813,   0.024998]
    |<r_e - r_h>| [Ang]:            0.129572
    Hole size [Ang]:                1.394919
      Cartesian components [Ang]: [  0.820915,   0.804545,   0.790319]
    Electron size [Ang]:            2.110412
      Cartesian components [Ang]: [  1.433222,   1.393660,   0.676334]

  Transition density matrix analysis:
  -----------------------------------
  
  CT numbers (Mulliken)
    omega =     0.9292
    <Phe> =    -0.0144
  
  Exciton analysis of the transition density matrix
    Trans. dipole moment [D]:             0.040281
      Cartesian components [D]:         [  0.000552,  -0.001124,   0.040262]
    <r_h> [Ang]:                        [ -1.555084,  -0.063148,   0.042736]
    <r_e> [Ang]:                        [ -1.444381,   0.055817,   0.023806]
    |<r_e - r_h>| [Ang]:                  0.163603
    Hole size [Ang]:                      1.228698
      Cartesian components [Ang]:       [  0.662607,   0.647501,   0.807088]
    Electron size [Ang]:                  2.244450
      Cartesian components [Ang]:       [  1.525230,   1.481991,   0.717585]
    RMS electron-hole separation [Ang]:   2.552781
      Cartesian components [Ang]:       [  1.657591,   1.613528,   1.079634]
    Covariance(r_h, r_e) [Ang^2]:         0.028665
    Correlation coefficient:              0.010394
    Center-of-mass size [Ang]:            1.284969
      Cartesian components [Ang]:       [  0.835972,   0.812680,   0.540229]

  Decomposition into state-averaged NTOs
    H- 0 -> L+ 2:  0.6614 ( 87.5%)
    H- 1 -> L+ 0: -0.1470 (  4.3%)
                   omega =  92.9%
  ----------------------------------------------------------------------------


  Excited state 5 (singlet, A)                                     [converged]
  ----------------------------------------------------------------------------
  Term symbol:  6 (1) A                                     R^2 =  1.98123e-12

  Total energy:                                            -77.9466688564 a.u.
  Excitation energy:                                              10.150728 eV

  Osc. strength:                                                      0.000051
  Trans. dip. moment [a.u.]:           [   0.010268,   -0.009922,    0.001304]
  <i|r^2|0> [a.u.]:                    [   0.133978,   -0.165030,    0.059626]
  Two-photon absorption cross-section (SoS) [a.u.]:                 219.495455
  Two-photon absorption matrix (SoS) [a.u.]:
                                       |    0.017378    0.392117   -3.682777 |
                                       |    0.392117   -0.959278    3.621026 |
                                       |   -3.682777    3.621026    0.291587 |
  Two-photon absorption cross-section [a.u.]:                       113.847536
[...]
    16   -2.294794035455e-03
    17   -1.732448399116e-03
    18   -1.263504131555e-04
    19   -2.842878939255e-03
    20    1.417713043490e-02
    21    9.584921390625e-01
    22   -3.441940728286e-04
    23    1.409996039330e-02
    24    8.441926311554e-04
    25    7.052284022999e-02
    26   -5.237811643212e-02
    27   -1.381473088417e+00
    28    1.060101513944e-01
    29   -8.893870718711e-02
    30    1.432535772929e-02
    31    3.981320223724e-01
    32   -3.555864441753e-01
    33    5.372277907180e-02
    34    1.497412730122e-02
    35   -3.129711409959e-03
    36   -9.885972952202e-04
    37    1.503016182935e-03
    38   -2.680714205178e-03
    39    8.881774809325e-03
    40    9.056502694358e-01
    41    7.960893041097e-04
    42   -1.379412544453e-02
    43   -2.541124475687e-04
    44    1.370228994925e-02
    45    9.513938545778e-01
    46    1.355522864628e-02
    47    4.128539356616e-04
    48    1.587383485466e-03
Sym=X
Ene= 0.231018
Spin=Alpha
Occup=0
     1    2.995134960660e-02
     2    1.227130616069e+00
     3   -1.413639881307e-02
     4   -3.615339401560e-03
     5   -1.223660777374e-03
     6    3.628324707840e-03
     7   -1.758149810135e-03
     8   -9.484611464277e-02
     9   -1.595962247932e-01
    10   -1.560923556950e-01
    11   -2.172077950955e-02
    12   -5.478180457430e-01
    13   -5.438236887826e-01
    14   -7.621761102706e-02
    15    1.299707045002e-03
    16   -8.319742800787e-04
    17   -1.197334486259e-03
    18    1.499407277969e-03
    19   -5.071252091233e-04
    20   -3.000439646843e-02
    21   -1.117118055866e+00
    22   -2.807633409221e-03
    23   -1.198235762206e-02
    24   -9.678149190039e-04
    25    9.654903398761e-04
    26   -1.195783992166e-03
    27   -3.395219305899e-02
    28   -1.545202546550e-01
    29   -1.628213200196e-01
    30   -2.233358582731e-02
    31   -5.084959928533e-01
    32   -5.700155792298e-01
    33   -7.539886249559e-02
    34    7.077423560763e-04
    35    1.102977430061e-03
    36    1.401558480355e-03
    37   -1.137150740360e-03
    38   -5.315083165846e-04
    39    2.784133683668e-02
    40    1.188042065019e+00
    41   -3.110206836007e-03
    42   -1.354628367829e-02
    43   -1.070812670545e-03
    44   -3.199190040098e-02
    45   -1.136388352968e+00
    46   -1.239548286021e-02
    47   -3.159252476561e-03
    48   -1.203318313778e-03
Sym=X
Ene= 0.236396
Spin=Alpha
Occup=0
     1    1.966363631546e-02
     2    1.060767496152e+00
     3   -1.596315109084e-02
     4   -9.001284073651e-03
     5   -1.315151554098e-03
     6    8.739384921264e-02
     7   -8.256309954431e-02
     8   -1.553128387152e+00
     9   -5.567409592940e-02
    10    5.896684608183e-02
    11    8.061163152828e-03
    12   -2.355071341391e-01
    13    2.333707499436e-01
    14    3.671685701064e-02
    15    2.106123968776e-02
    16   -1.983332599392e-03
    17   -4.865537578064e-03
    18    3.322298836548e-04
    19   -1.245368814616e-02
    20    1.895599402363e-02
    21    1.090728793652e+00
    22    8.473076088379e-03
    23    1.634720982790e-02
    24    2.174218256793e-03
    25   -8.674184306302e-02
    26    8.164349694996e-02
    27    1.537160969332e+00
    28   -5.711229828873e-02
    29    5.789014585185e-02
    30   -1.421522449327e-02
    31   -2.264130318121e-01
    32    2.446293326360e-01
    33   -5.094523129642e-02
    34   -2.091557439855e-02
    35    3.847460156145e-03
    36    2.909172101601e-03
    37   -1.280061936683e-03
    38    1.215823986515e-02
    39   -1.998827556502e-02
    40   -1.101410852865e+00
    41    8.345472393771e-03
    42    1.691589589825e-02
    43    7.336101340941e-04
    44   -1.826448129888e-02
    45   -1.031750261807e+00
    46   -1.490032231136e-02
    47   -9.135962391207e-03
    48   -2.622778544105e-03
Sym=X
Ene= 0.302904
Spin=Alpha
Occup=0
     1    2.170513680407e-02
     2   -1.657565168566e+00
     3    2.344645056515e-02
     4   -5.388927567940e-04
     5    5.030857599440e-04
     6    2.663336550916e-04
     7    1.518879513058e-04
     8   -1.070247500101e-02
     9    1.350051883303e-01
    10    1.425700145346e-01
    11    1.961301814444e-02
    12    1.132767853998e+00
    13    1.170840688854e+00
    14    1.609587849335e-01
    15   -3.734824141179e-04
    16    9.405450103880e-04
    17   -3.906196617229e-03
    18    3.420625162397e-02
    19    1.385515486349e-03
    20   -2.211469073317e-02
    21    1.661059278460e+00
    22   -1.390243299582e-03
    23    2.341225800757e-02
    24    2.676344684614e-03
    25   -2.364428130466e-04
    26    4.463006892099e-04
    27   -3.019187789716e-02
    28   -1.360320038195e-01
    29   -1.426111160622e-01
    30   -1.956724385875e-02
    31   -1.113619152792e+00
    32   -1.180068437196e+00
    33   -1.602611943096e-01
    34    9.447722294608e-04
    35    4.082257149246e-03
    36   -4.507463936099e-04
    37    3.365158967058e-02
    38    4.299047825454e-04
    39   -2.260430809438e-02
    40    1.670977930718e+00
    41    1.267540642830e-03
    42   -2.347049637687e-02
    43   -1.639118224629e-03
    44    1.734158849567e-02
    45   -1.629653363184e+00
    46   -2.327902566244e-02
    47    7.861293576368e-04
    48   -1.524365833089e-03
Sym=X
Ene= 0.462390
Spin=Alpha
Occup=0
     1   -1.216503856716e-01
     2   -6.964455178569e-01
     3   -1.544398094331e-02
     4   -9.747698385066e-03
     5   -1.718506366784e-03
     6    6.238865113369e-02
     7    1.668786292504e-02
     8   -3.622692732610e+00
     9    1.027531373209e-01
    10   -9.918771311911e-02
    11    4.770739870901e-04
    12    2.421285590282e+00
    13   -2.312852002695e+00
    14   -1.605409375541e-01
    15    5.307662928149e-02
    16   -3.729353168821e-03
    17   -6.433685139390e-03
    18   -1.574103163472e-03
    19    1.950914663734e-02
    20   -1.121821005631e-01
    21   -6.963896249642e-01
    22    1.037764728783e-02
    23    1.502692668800e-02
    24    1.769577761948e-03
    25   -6.282760257571e-02
    26   -1.592156961878e-02
    27    3.633761415029e+00
    28    1.057639798681e-01
    29   -1.011892479572e-01
    30    1.268856579794e-02
    31    2.393099315856e+00
    32   -2.329287395107e+00
    33   -1.095578918235e-01
    34   -5.186278528708e-02
    35    2.474647313265e-03
    36    7.279333912043e-03
    37    2.241105220886e-03
    38   -2.089301940706e-02
    39    1.021347884931e-01
    40    7.367757775995e-01
    41    1.040244534249e-02
    42    1.476310004213e-02
    43    2.251975291923e-03
    44    1.205968148337e-01
    45    6.559271756461e-01
    46   -1.517982098592e-02
    47   -9.024557046598e-03
    48   -1.142224235428e-03
Sym=X
Ene= 0.579967
Spin=Alpha
Occup=0
     1    2.462180587742e-01
     2    3.175804436260e-02
     3   -2.065217604413e-02
     4    2.658387885780e-02
     5    1.549666036072e-03
     6   -5.421263491242e-03
     7   -1.683986820910e-01
     8   -4.512944765580e-01
     9    3.082901995395e-01
    10   -2.898504779542e-01
    11   -1.518642438637e-02
    12   -7.316897281375e-01
    13    6.832245374647e-01
    14    1.974513521464e-02
    15   -1.688564783631e-03
    16    5.409244951946e-03
    17    3.328732910238e-03
    18    1.049938717652e-03
    19    5.997797396606e-02
    20    2.318787087647e-01
    21    4.673717898769e-02
    22   -2.764743613573e-02
    23    2.141851493730e-02
    24    7.490370059963e-04
    25   -7.049646613951e-03
    26   -1.692397448338e-01
    27   -3.810214506757e-01
    28   -3.065337513431e-01
    29    2.862402468604e-01
    30    1.756615340755e-02
    31    7.639048390324e-01
    32   -7.361475164855e-01
    33   -1.229314430276e-02
    34   -1.768626801976e-03
    35    5.608311122086e-03
    36    3.375457553542e-03
    37   -2.646480588669e-05
    38    6.006766588848e-02
    39    2.334309689929e-01
    40    7.864794465829e-02
    41    2.737155558256e-02
    42   -2.060624120218e-02
    43    5.192344190370e-04
    44    2.401810775965e-01
    45    3.181302377816e-02
    46    2.278024685957e-02
    47   -2.838391805014e-02
    48   -4.198131365831e-04
Sym=X
Ene= 0.608750
Spin=Alpha
Occup=0
     1   -5.012211905278e-01
     2    2.399485072646e-01
     3   -5.803287423236e-02
     4    3.832128170872e-02
     5    1.289375819912e-03
     6    6.649711311909e-04
     7   -3.262233211083e-03
     8    6.701621106859e-02
     9   -3.345745659182e-02
    10   -3.981901954611e-02
    11   -5.667225135728e-03
    12    2.191225195897e-01
    13    3.176705958971e-01
    14    4.155147665838e-02
    15   -3.100099858601e-03
    16   -5.756368129026e-03
    17    1.520240198844e-02
    18   -1.469504397676e-01
    19   -6.576769949420e-03
    20    5.306957151223e-01
    21   -2.338350609853e-01
    22    3.907639084646e-02
    23   -5.850771508462e-02
    24   -3.999870079823e-03
    25   -8.069038194815e-04
    26   -6.510456283236e-03
    27   -2.704270396969e-02
    28   -3.217566148209e-02
    29   -4.043869518270e-02
    30   -5.562906196955e-03
    31    2.056897028604e-01
    32    3.223510782718e-01
    33    3.799215489569e-02
    34    1.464102383849e-03
    35    1.534893049161e-02
    36   -5.499244782624e-03
    37    1.494410521386e-01
    38    9.189950138836e-03
    39   -5.226203800398e-01
    40    2.236664099388e-01
    41    3.865915890671e-02
    42   -5.820654226999e-02
    43   -1.063021508222e-03
    44    5.223360010080e-01
    45   -2.845904054590e-01
    46   -5.904277729382e-02
    47    3.803324429991e-02
    48   -1.882910584005e-03
Sym=X
Ene= 0.688909
Spin=Alpha
Occup=0
     1   -3.381031240749e-02
     2   -9.861592066428e-03
     3   -3.225836918751e-03
     4   -1.938632625099e-03
     5   -1.992787326860e-02
     6   -2.228020475810e-03
     7   -1.600305787159e-02
     8   -1.009164833537e-02
     9    4.108835713748e-02
    10    5.217107961061e-02
    11   -6.692168603502e-01
    12    1.107287503544e-02
    13   -9.359161532278e-02
    14    6.097432144330e-01
    15    6.214271486537e-04
    16    8.048107830587e-02
    17   -7.988358709304e-02
    18   -1.064857236978e-02
    19   -1.175003240687e-02
    20   -3.382741744358e-02
    21   -8.217927599142e-03
    22    4.507141945919e-03
    23    6.046793277924e-03
    24   -1.789738956662e-02
    25   -8.773444947265e-04
    26   -3.130155896276e-02
    27    4.566293511842e-02
    28    2.758175655781e-02
    29    6.438138914620e-02
    30   -6.675422288704e-01
    31    1.967972401269e-02
    32   -1.019270669486e-01
    33    6.072094285469e-01
    34    1.731985366404e-02
    35   -8.251021770130e-02
    36    7.692827773101e-02
    37    1.125085293904e-02
    38    5.145018571477e-03
    39   -8.193457198132e-03
    40    3.857870373604e-02
    41    1.277921653842e-03
    42   -6.234575306550e-03
    43   -2.084209112623e-02
    44   -8.391613263317e-03
    45    3.769661335233e-02
    46    8.464219891125e-03
    47    1.547614337819e-03
    48   -1.596554785613e-02
Sym=X
Ene= 0.705289
Spin=Alpha
Occup=0
     1   -4.930852465238e-01
     2    1.524876591217e-01
     3   -7.798474241237e-02
     4   -4.339270561694e-02
     5   -4.658660348931e-03
     6   -4.639116591102e-02
     7   -3.013770787583e-01
     8    4.889139332482e-01
     9    1.879721150036e-01
    10   -1.945295109036e-01
    11    2.508892678895e-02
    12   -5.372628730769e-02
    13    8.986414323258e-02
    14    1.368434807345e-03
    15    1.893882796545e-01
    16   -2.279409022206e-02
    17   -3.413549206946e-02
    18    2.401748784132e-03
    19   -7.636225744505e-02
    20   -4.794411081135e-01
    21    1.808087261543e-01
    22    4.119480682273e-02
    23    8.005326975883e-02
    24    1.227226224601e-02
    25   -4.545148322526e-02
    26   -2.968263601364e-01
    27    4.315894835207e-01
    28   -2.042851637457e-01
    29    1.781868696171e-01
    30    3.807203190854e-02
    31    6.238458711039e-02
    32   -1.867381140106e-02
    33   -6.669397633891e-02
    34    1.892523463376e-01
    35   -2.139663215531e-02
    36   -3.539829842734e-02
    37    3.665228370413e-03
    38   -7.568426871428e-02
    39   -4.872126879858e-01
    40    1.378897170190e-01
    41   -3.928385244668e-02
    42   -8.085307143672e-02
    43   -9.795393051334e-03
    44   -4.904509932497e-01
    45    1.853557933562e-01
    46    7.685650338966e-02
    47    4.556247570187e-02
    48    6.942639287873e-03
Sym=X
Ene= 0.775630
Spin=Alpha
Occup=0
     1   -5.373968195126e-01
     2    4.714326041777e-01
     3   -1.088340248377e-01
     4   -2.595621806946e-02
     5   -7.184364993479e-03
     6   -8.882424671924e-02
     7    2.220766451523e-01
     8    5.664755821778e-01
     9   -1.051955075490e-01
    10    9.315175546605e-02
    11    3.691557491580e-02
    12   -2.777648615801e-01
    13    3.011415727170e-01
    14   -4.165872440418e-02
    15    2.017307288277e-01
    16   -1.681483287245e-02
    17   -3.327669315793e-02
    18   -4.008531912121e-03
    19   -7.739677664699e-03
    20   -5.349931875140e-01
    21    4.853753109077e-01
    22    2.085524284657e-02
    23    1.076261163140e-01
    24    1.122493519170e-02
    25    8.855938269810e-02
    26   -2.334605284696e-01
    27   -5.561812322992e-01
    28   -8.549634674840e-02
    29    1.179088714240e-01
    30   -1.101876987477e-02
    31   -3.291191262895e-01
    32    2.344023100415e-01
    33    6.499431311929e-02
    34   -2.009954796394e-01
    35    2.633739709548e-02
    36    2.440822507103e-02
    37    4.686652825499e-03
    38    6.856881265869e-03
    39    5.239554271771e-01
    40   -4.335934783716e-01
    41    2.115009657132e-02
    42    1.039088816157e-01
    43    1.041900006281e-02
    44    5.570986708213e-01
    45   -5.323256032803e-01
    46   -1.111913217607e-01
    47   -2.712509452039e-02
    48   -8.197837446159e-03
Sym=X
Ene= 0.807201
Spin=Alpha
Occup=0
     1   -1.647419886587e-02
     2    1.921800829999e-02
     3   -2.307417096662e-03
     4    3.588418730085e-03
     5   -3.274964794864e-02
     6   -3.743569964688e-03
     7    1.876707025536e-02
     8   -1.004851525495e-02
     9    2.156457271700e-02
    10    8.385905167264e-02
    11   -7.605664422365e-01
    12   -4.932436165007e-02
    13   -1.053613389132e-01
    14    1.119483099562e+00
    15    1.643713330573e-02
    16   -6.494643207643e-02
    17    6.036123274152e-02
    18    8.190807486764e-03
    19    8.363930741191e-03
    20   -1.647783043739e-02
    21    1.878248364628e-02
    22    5.347910972875e-04
    23    6.504997727871e-03
    24   -3.044486741911e-02
    25    2.363554189136e-03
    26    5.951832526982e-03
    27   -1.864203570795e-03
    28   -4.661678145613e-02
    29   -5.660653045279e-02
    30    7.629778642181e-01
    31    4.287409087393e-02
    32    1.052073812183e-01
    33   -1.120546001178e+00
    34   -4.357714316722e-03
    35   -6.354251688987e-02
    36    6.292552409424e-02
    37    9.336271397833e-03
    38    1.379523470053e-03
    39    1.454270070081e-02
    40   -2.273659543445e-02
    41   -4.931938105036e-03
    42    6.326250267917e-03
    43    3.274837437079e-02
    44    1.549289307544e-02
    45   -2.973213676826e-02
    46   -1.171611551639e-02
    47   -1.075620353866e-04
    48    2.941444212959e-02
Sym=X
Ene= 0.858287
Spin=Alpha
Occup=0
     1    9.017059105224e-03
     2   -1.065005273341e+00
     3    1.432317001426e-01
     4    5.619273094204e-02
     5    1.367645366823e-02
     6   -1.229986863363e-03
     7    2.278634828124e-02
     8   -2.617982905151e-02
     9   -4.143685052991e-01
    10   -4.163279243008e-01
    11   -5.883457128718e-02
    12    9.375945184885e-01
    13    9.501993495720e-01
    14    1.323676717203e-01
    15    1.145621455255e-03
    16    1.484444127316e-02
    17   -1.768917431725e-02
    18    2.290965888682e-01
    19    1.394401226965e-02
    20   -1.771563246243e-02
    21    1.064346151113e+00
    22    4.947440650513e-02
    23    1.479455832778e-01
    24    1.398951589587e-02
    25    3.060554848718e-03
    26    1.507785676585e-02
    27   -1.860587736713e-03
    28   -4.294121513649e-01
    29   -4.271702690832e-01
    30   -5.912286125800e-02
    31    9.669900367840e-01
    32    9.812165917662e-01
    33    1.355704103227e-01
    34   -1.067338745375e-02
    35   -1.560805663648e-02
    36    1.744860536674e-02
    37   -2.301566279169e-01
    38   -1.413073014219e-02
    39    2.474399199517e-02
    40   -1.080720447861e+00
    41    4.643701244355e-02
    42    1.524020422971e-01
    43    1.100108473975e-02
    44   -6.073267049481e-03
    45    1.085350434543e+00
    46    1.457806735689e-01
    47    5.573761931921e-02
    48    1.740514396581e-02
Sym=X
Ene= 0.927106
Spin=Alpha
Occup=0
     1   -1.461228229033e-01
     2    1.222984951097e+00
     3   -1.856902675496e-01
     4    8.042877690426e-03
     5   -4.124449246733e-03
     6   -2.910369898836e-03
     7    1.817909341979e-02
     8   -7.453215962712e-02
     9    4.555443740102e-01
    10    5.224219879570e-01
    11    6.945325724247e-02
    12   -1.334920411145e+00
    13   -1.524986265852e+00
    14   -2.045294522717e-01
    15    1.027130700958e-02
    16   -2.621845722758e-04
    17    1.634537705315e-02
    18   -1.280546582322e-01
    19    5.005569052609e-03
    20    1.336613056695e-01
    21   -1.268515021017e+00
    22    1.086461762994e-02
    23   -1.816476392282e-01
    24   -2.017669531166e-02
    25    4.165328125489e-03
    26    3.838424803802e-02
    27   -2.651580591811e-03
    28   -5.033686241058e-01
    29   -4.572869386914e-01
    30   -6.656255022504e-02
    31    1.452311942116e+00
    32    1.353643694201e+00
    33    1.952308029163e-01
    34   -1.161168663816e-02
    35   -1.281908982311e-02
    36    5.989516915451e-03
    37   -1.189384371225e-01
    38   -2.582116119897e-02
    39    1.416259619374e-01
    40   -1.160637998115e+00
    41   -2.288075369176e-02
    42    1.737578908832e-01
    43    1.320151826584e-02
    44   -1.358872511746e-01
    45    1.258025336279e+00
    46    1.838945959485e-01
    47   -2.454111607723e-04
    48    1.151567516203e-02
Sym=X
Ene= 0.970062
Spin=Alpha
Occup=0
     1   -5.606372010506e-02
     2    9.623331347767e-01
     3   -9.586876821905e-02
     4   -9.669698472195e-02
     5   -1.397103618643e-02
     6    2.670315350841e-02
     7    2.510717146079e-01
     8    5.175887969625e-01
     9    5.030908312690e-01
    10   -4.348951570163e-01
    11   -2.729276129444e-02
    12   -1.556990622632e+00
    13    1.307271120116e+00
    14    8.317705099545e-02
    15   -5.692073353244e-02
    16   -2.717312836814e-02
    17    6.699678644990e-04
    18    9.401617685463e-03
    19   -2.965022012499e-01
    20   -6.486647192039e-02
    21    8.290945100021e-01
    22    9.227453773284e-02
    23    8.344569825551e-02
    24    1.053232675378e-02
    25   -2.683416330086e-02
    26   -2.495879260247e-01
    27   -5.211926259143e-01
    28    4.499353911623e-01
    29   -4.930764534597e-01
    30   -4.719167322079e-03
    31   -1.351892400689e+00
    32    1.531970370143e+00
    33    2.953026497078e-02
    34    5.830434572886e-02
    35    2.889215303249e-02
    36   -1.149591094615e-04
    37   -2.708322000345e-02
    38    2.930496614541e-01
    39    6.315177237025e-02
    40   -1.003735281412e+00
    41    9.073060766739e-02
    42    1.064542886352e-01
    43    7.033548607258e-03
    44    5.750172406487e-02
    45   -7.858627162742e-01
    46   -7.241162062690e-02
    47   -9.503272003986e-02
    48   -1.962974589550e-02
[5D]

======= END OF MOLDEN-FORMATTED INPUT FILE =======


        *************************************************************
        *                                                           *
        *  Thank you very much for using Q-Chem.  Have a nice day.  *
        *                                                           *
        *************************************************************


