                  Welcome to Q-Chem
     A Quantum Leap Into The Future Of Chemistry


 Q-Chem 5.4 (devel), Q-Chem, Inc., Pleasanton, CA (2021)

 E. Epifanovsky,  A. T. B. Gilbert,  Xintian Feng,  Joonho Lee,  Yuezhi Mao,  
 N. Mardirossian,  P. Pokhilko,  A. White,  M. Wormit,  M. P. Coons,  
 A. L. Dempwolff,  Zhengting Gan,  D. Hait,  P. R. Horn,  L. D. Jacobson,  
 I. Kaliman,  J. Kussmann,  A. W. Lange,  Ka Un Lao,  D. S. Levine,  Jie Liu,  
 S. C. McKenzie,  A. F. Morrison,  K. Nanda,  F. Plasser,  D. R. Rehn,  
 M. L. Vidal,  Zhi-Qiang You,  Ying Zhu,  B. Alam,  B. Albrecht,  
 A. Aldossary,  E. Alguire,  J. H. Andersen,  D. Barton,  K. Begam,  A. Behn,  
 Y. A. Bernard,  E. J. Berquist,  H. Burton,  A. Carreras,  K. Carter-Fenk,  
 R. Chakraborty,  A. D. Chien,  K. D. Closser,  V. Cofer-Shabica,  
 S. Dasgupta,  Jia Deng,  M. de Wergifosse,  M. Diedenhofen,  Hainam Do,  
 S. Ehlert,  Po-Tung Fang,  S. Fatehi,  Qingguo Feng,  T. Friedhoff,  
 J. Gayvert,  Qinghui Ge,  G. Gidofalvi,  M. Goldey,  J. Gomes,  
 C. Gonzalez-Espinoza,  S. Gulania,  A. Gunina,  M. W. D. Hanson-Heine,  
 P. H. P. Harbach,  A. W. Hauser,  M. F. Herbst,  M. Hernandez Vera,  
 M. Hodecker,  Z. C. Holden,  S. Houck,  Xunkun Huang,  Kerwin Hui,  
 B. C. Huynh,  M. Ivanov,  Hyunjun Ji,  Hanjie Jiang,  B. Kaduk,  S. Kaehler,  
 K. Khistyaev,  Jaehoon Kim,  P. Klunzinger,  Z. Koczor-Benda,  
 Joong Hoon Koh,  D. Kosenkov,  L. Koulias,  T. Kowalczyk,  C. M. Krauter,  
 K. Kue,  A. Kunitsa,  T. Kus,  A. Landau,  K. V. Lawler,  D. Lefrancois,  
 S. Lehtola,  Rain Li,  Yi-Pei Li,  Jiashu Liang,  M. Liebenthal,  
 Hung-Hsuan Lin,  You-Sheng Lin,  Fenglai Liu,  Kuan-Yu Liu,  
 M. Loipersberger,  A. Luenser,  A. Manjanath,  P. Manohar,  E. Mansoor,  
 S. F. Manzer,  Shan-Ping Mao,  A. V. Marenich,  T. Markovich,  S. Mason,  
 S. A. Maurer,  P. F. McLaughlin,  M. F. S. J. Menger,  J.-M. Mewes,  
 S. A. Mewes,  P. Morgante,  J. W. Mullinax,  K. J. Oosterbaan,  G. Paran,  
 Alexander C. Paul,  Suranjan K. Paul,  F. Pavosevic,  Zheng Pei,  S. Prager,  
 E. I. Proynov,  E. Ramos,  B. Rana,  A. E. Rask,  A. Rettig,  R. M. Richard,  
 F. Rob,  E. Rossomme,  T. Scheele,  M. Scheurer,  M. Schneider,  
 N. Sergueev,  S. M. Sharada,  W. Skomorowski,  D. W. Small,  C. J. Stein,  
 Yu-Chuan Su,  E. J. Sundstrom,  Zhen Tao,  J. Thirman,  T. Tsuchimochi,  
 N. M. Tubman,  S. P. Veccham,  O. Vydrov,  J. Wenzel,  J. Witte,  A. Yamada,  
 Kun Yao,  S. Yeganeh,  S. R. Yost,  A. Zech,  Igor Ying Zhang,  Xing Zhang,  
 Yu Zhang,  D. Zuev,  A. Aspuru-Guzik,  A. T. Bell,  N. A. Besley,  
 K. B. Bravaya,  B. R. Brooks,  D. Casanova,  Jeng-Da Chai,  S. Coriani,  
 C. J. Cramer,  A. E. DePrince, III,  R. A. DiStasio Jr.,  A. Dreuw,  
 B. D. Dunietz,  T. R. Furlani,  W. A. Goddard III,  S. Grimme,  
 S. Hammes-Schiffer,  T. Head-Gordon,  W. J. Hehre,  Chao-Ping Hsu,  
 T.-C. Jagau,  Yousung Jung,  A. Klamt,  Jing Kong,  D. S. Lambrecht,  
 WanZhen Liang,  N. J. Mayhall,  C. W. McCurdy,  J. B. Neaton,  
 C. Ochsenfeld,  J. A. Parkhill,  R. Peverati,  V. A. Rassolov,  Yihan Shao,  
 L. V. Slipchenko,  T. Stauch,  R. P. Steele,  J. E. Subotnik,  
 A. J. W. Thom,  A. Tkatchenko,  D. G. Truhlar,  T. Van Voorhis,  
 T. A. Wesolowski,  K. B. Whaley,  H. L. Woodcock III,  P. M. Zimmerman,  
 S. Faraji,  P. M. W. Gill,  M. Head-Gordon,  J. M. Herbert,  A. I. Krylov

 Additional authors for Version 5.4.1: 
 S. Kotaru,  Shaozhi Li,  Xiangyuan Li,  F. Matz,  A. Molle,  Haisheng Ren,  
 Yingli Su,  Hung-Yi Tsai,  C. Utku,  Fang Wang

 Contributors to earlier versions of Q-Chem not listed above: 
 R. D. Adamson,  B. Austin,  R. Baer,  J. Baker,  G. J. O. Beran,  
 K. Brandhorst,  S. T. Brown,  E. F. C. Byrd,  A. K. Chakraborty,  
 G. K. L. Chan,  Chun-Min Chang,  Yunqing Chen,  C.-L. Cheng,  
 Siu Hung Chien,  D. M. Chipman,  D. L. Crittenden,  H. Dachsel,  
 R. J. Doerksen,  A. D. Dutoi,  R. G. Edgar,  J. Fosso-Tande,  
 L. Fusti-Molnar,  D. Ghosh,  A. Ghysels,  A. Golubeva-Zadorozhnaya,  
 J. Gonthier,  M. S. Gordon,  S. R. Gwaltney,  G. Hawkins,  J. E. Herr,  
 A. Heyden,  S. Hirata,  E. G. Hohenstein,  G. Kedziora,  F. J. Keil,  
 C. Kelley,  Jihan Kim,  R. A. King,  R. Z. Khaliullin,  P. P. Korambath,  
 W. Kurlancheek,  A. Laurent,  A. M. Lee,  M. S. Lee,  S. V. Levchenko,  
 Ching Yeh Lin,  D. Liotard,  E. Livshits,  R. C. Lochan,  I. Lotan,  
 L. A. Martinez-Martinez,  P. E. Maslen,  N. Nair,  D. P. O'Neill,  
 D. Neuhauser,  E. Neuscamman,  C. M. Oana,  R. Olivares-Amaya,  R. Olson,  
 T. M. Perrine,  B. Peters,  P. A. Pieniazek,  A. Prociuk,  Y. M. Rhee,  
 J. Ritchie,  M. A. Rohrdanz,  E. Rosta,  N. J. Russ,  H. F. Schaefer III,  
 M. W. Schmidt,  N. E. Schultz,  S. Sharma,  N. Shenvi,  C. D. Sherrill,  
 A. C. Simmonett,  A. Sodt,  T. Stein,  D. Stuck,  K. S. Thanthiriwatte,  
 V. Vanovschi,  L. Vogt,  Tao Wang,  A. Warshel,  M. A. Watson,  
 C. F. Williams,  Q. Wu,  X. Xu,  Jun Yang,  W. Zhang,  Yan Zhao

 Please cite Q-Chem as follows:
 Y. Shao et al., Mol. Phys. 113, 184-215 (2015)
 DOI: 10.1080/00268976.2014.952696

 Q-Chem 5.4.1 for Intel X86 EM64T Linux

 Parts of Q-Chem use Armadillo 9.800.1 (Horizon Scraper).
 http://arma.sourceforge.net/

 Q-Chem begins on Thu Nov 17 15:39:40 2022  

 Host: cpu185.baobab
0

     Scratch files written to /scratch/fum/qchem21496//
 Processing $rem in /home/share/wesolowski/qc5.aug2021.FDE/config/preferences:
 Processing $rem in /home/fum/.qchemrc:

 Checking the input file for inconsistencies... 	...done.

--------------------------------------------------------------
User input:
--------------------------------------------------------------
$comment
generated from CCJob.Templates
$end

$rem
sym_ignore = true
method = adc(2)
ee_states = 10
basis = cc-pVDZ
mem_static = 1024
mem_total = 40000
adc_davidson_maxiter = 900
adc_davidson_conv = 6
adc_print = 3
adc_prop_es = true
adc_prop_es2es = true
adc_prop_tpa = true
molden_format = True
state_analysis = true
print_orbitals = 15
gen_scfman = false
fde_export_density = true
fde_details = 3
$end

$molecule
0 1
H -0.0348278765 -0.2442097827 0.0636489606
C -1.0765972949 -0.5142748755 -0.0023551776
H -1.313264467 -1.5767591607 -0.0757276926
C -2.043634118 0.3926884087 0.0061254933
H -1.8137616575 1.4459188338 0.0804456828
H -3.085977293 0.114931858 -0.0593381042                     
$end
--------------------------------------------------------------
 ----------------------------------------------------------------
             Standard Nuclear Orientation (Angstroms)
    I     Atom           X                Y                Z
 ----------------------------------------------------------------
    1      H      -0.0348278765    -0.2442097827     0.0636489606
    2      C      -1.0765972949    -0.5142748755    -0.0023551776
    3      H      -1.3132644670    -1.5767591607    -0.0757276926
    4      C      -2.0436341180     0.3926884087     0.0061254933
    5      H      -1.8137616575     1.4459188338     0.0804456828
    6      H      -3.0859772930     0.1149318580    -0.0593381042
 ----------------------------------------------------------------
 Nuclear Repulsion Energy =          33.48724083 hartrees
 There are        8 alpha and        8 beta electrons
 Requested basis set is cc-pVDZ
 There are 24 shells and 48 basis functions
 Total memory of 40000 MB is distributed as follows: 
   MEM_STATIC is set to 1024 MB
   QALLOC/CCMAN JOB total memory use is  38976 MB
 Warning: actual memory use might exceed 40000 MB

 Total QAlloc Memory Limit  40000 MB
 Mega-Array Size      1001 MB
 MEM_STATIC part      1024 MB

                       Distance Matrix (Angstroms)
             H (  1)   C (  2)   H (  3)   C (  4)   H (  5)
   C (  2)  1.078228
   H (  3)  1.851895  1.090994
   C (  4)  2.108139  1.325826  2.102109
   H (  5)  2.453859  2.095859  3.067812  1.080583
   H (  6)  3.074674  2.106361  2.450428  1.080700  1.846510

 A cutoff of  1.0D-11 yielded    300 shell pairs
 There are      1220 function pairs (      1329 Cartesian)
 Smallest overlap matrix eigenvalue = 4.69E-03

 Scale SEOQF with 1.000000e-01/1.000000e-01/1.000000e+00

 Standard Electronic Orientation quadrupole field applied
 Nucleus-field energy     =     0.0000000022 hartrees
 Guess from superposition of atomic densities
 Warning:  Energy on first SCF cycle will be non-variational
 SAD guess density has 16.000000 electrons
 A restricted Hartree-Fock SCF calculation will be
 performed using Pulay DIIS extrapolation
 SCF converges when DIIS error is below 1.0E-08
 using 10 threads for integral computing
 -------------------------------------------------------
 OpenMP Integral computing Module                
 Release: version 1.0, May 2013, Q-Chem Inc. Pittsburgh 
 -------------------------------------------------------
 ---------------------------------------
  Cycle       Energy         DIIS Error
 ---------------------------------------
    1     -78.4475876030      1.02E-01
    2     -78.0177023435      7.24E-03
    3     -78.0383872402      1.86E-03
    4     -78.0398787665      5.84E-04
    5     -78.0400051008      5.83E-05
    6     -78.0400069845      1.00E-05
    7     -78.0400070482      3.47E-06
    8     -78.0400070529      1.07E-06
    9     -78.0400070535      1.38E-07
   10     -78.0400070535      4.10E-08
   11     -78.0400070535      7.97E-09 Convergence criterion met
 ---------------------------------------
 SCF time:  CPU 1.55 s  wall 2.22 s
 SCF   energy in the final basis set = -78.04000705
 Total energy in the final basis set = -78.04000705
Exporting Density Matrix to file 'Densmat_SCF.txt'.
Export successful
================================================================================
|                                                                              |
|                                 A D C  M A N                                 |
|                                                                              |
 ------------------------------------------------------------------------------ 
|                                                                              |
| Components:                                                                  |
|                                                                              |
| - libvmm - 1.3-trunk                                                         |
|   Authors:                                                                   |
|   Evgeny Epifanovsky, Ilya Kaliman                                           |
|                                                                              |
| - libtensor - 2.5-trunk                                                      |
|   Authors:                                                                   |
|   Evgeny Epifanovsky, Michael Wormit, Dmitry Zuev, Sam Manzer,               |
|   Ilya Kaliman                                                               |
|                                                                              |
| - libwfa - 1.1-trunk                                                         |
|   Authors:                                                                   |
|   Felix Plasser, Stefanie Mewes (Baeppler), Benjamin Thomitzni,              |
|   Michael Wormit, Feng Chen, Anna I. Krylov, Pavel Pokhilko                  |
|                                                                              |
| - libadc - 1.1-trunk                                                         |
|   Authors:                                                                   |
|   Michael Wormit, Adrian L. Dempwolff, Philipp H. P. Harbach,                |
|   Caroline Krauter, Dirk Rehn, Matthias Schneider, Jan Wenzel                |
|                                                                              |
| - adcman - 2.6-trunk                                                         |
|   Authors:                                                                   |
|   Michael Wormit, Adrian L. Dempwolff, Philipp H. P. Harbach,                |
|   Caroline Krauter, Daniel Lefrancois, Jan-Michael Mewes, Dirk Rehn,         |
|   Matthias Schneider, Jan Wenzel, Andreas Dreuw                              |
|                                                                              |
| Authors of earlier versions of ADCMAN:                                       |
| Andreas Dreuw, Jan Hendrik Starcke, Dirk Rehn, Michael Wormit                |
|                                                                              |
================================================================================

 Created directory /scratch/fum/qchem21496/plots
  Import QC data ...  CPU 0.00 s  wall 0.00 s

 Alpha MOs, Restricted
 -- Occupied --                  
-11.235 -11.233  -1.034  -0.789  -0.641  -0.584  -0.502  -0.376
  1 A     2 A     3 A     4 A     5 A     6 A     7 A     8 A                  
 -- Virtual --                   
  0.170   0.204   0.232   0.239   0.304   0.464   0.577   0.615
  9 A    10 A    11 A    12 A    13 A    14 A    15 A    16 A                  
  0.688   0.708   0.786   0.809   0.861   0.936   0.976   1.009
 17 A    18 A    19 A    20 A    21 A    22 A    23 A    24 A                  
  1.130   1.237   1.254   1.268   1.295   1.599   1.728   1.751
 25 A    26 A    27 A    28 A    29 A    30 A    31 A    32 A                  
  1.820   1.861   1.868   1.922   1.973   1.980   2.226   2.261
 33 A    34 A    35 A    36 A    37 A    38 A    39 A    40 A                  
  2.375   2.451   2.508   2.639   2.714   2.822   3.137   3.405
 41 A    42 A    43 A    44 A    45 A    46 A    47 A    48 A                  

 Beta MOs, Restricted
 -- Occupied --                  
-11.235 -11.233  -1.034  -0.789  -0.641  -0.584  -0.502  -0.376
  1 A     2 A     3 A     4 A     5 A     6 A     7 A     8 A                  
 -- Virtual --                   
  0.170   0.204   0.232   0.239   0.304   0.464   0.577   0.615
  9 A    10 A    11 A    12 A    13 A    14 A    15 A    16 A                  
  0.688   0.708   0.786   0.809   0.861   0.936   0.976   1.009
 17 A    18 A    19 A    20 A    21 A    22 A    23 A    24 A                  
  1.130   1.237   1.254   1.268   1.295   1.599   1.728   1.751
 25 A    26 A    27 A    28 A    29 A    30 A    31 A    32 A                  
  1.820   1.861   1.868   1.922   1.973   1.980   2.226   2.261
 33 A    34 A    35 A    36 A    37 A    38 A    39 A    40 A                  
  2.375   2.451   2.508   2.639   2.714   2.822   3.137   3.405
 41 A    42 A    43 A    44 A    45 A    46 A    47 A    48 A                  
  Import AO data ...  CPU 0.00 s  wall 0.01 s
  Using point group: C1
  Irreducible representations in point group: A
  Molecular orbitals: 
  Occupied MOs:
  Block   0:   1 (  A) A   2 (  A) A   3 (  A) A   4 (  A) A   5 (  A) A
                  -11.23      -11.23      -1.034     -0.7887     -0.6408
               6 (  A) A   7 (  A) A   8 (  A) A
                 -0.5836     -0.5024     -0.3757
  Block   1:   1 (  A) B   2 (  A) B   3 (  A) B   4 (  A) B   5 (  A) B
                  -11.23      -11.23      -1.034     -0.7887     -0.6408
               6 (  A) B   7 (  A) B   8 (  A) B
                 -0.5836     -0.5024     -0.3757
  Virtual MOs:
  Block   0:   9 (  A) A  10 (  A) A  11 (  A) A  12 (  A) A  13 (  A) A
                    0.17      0.2037      0.2324      0.2392      0.3036
              14 (  A) A  15 (  A) A  16 (  A) A  17 (  A) A  18 (  A) A
                  0.4636      0.5766      0.6149      0.6876      0.7083
              19 (  A) A  20 (  A) A  21 (  A) A  22 (  A) A
                   0.786      0.8087      0.8607      0.9361
  Block   1:  23 (  A) A  24 (  A) A  25 (  A) A  26 (  A) A  27 (  A) A
                   0.976       1.009        1.13       1.237       1.254
              28 (  A) A  29 (  A) A  30 (  A) A  31 (  A) A  32 (  A) A
                   1.268       1.295       1.599       1.728       1.751
              33 (  A) A  34 (  A) A  35 (  A) A  36 (  A) A
                    1.82       1.861       1.868       1.922
  Block   2:  37 (  A) A  38 (  A) A  39 (  A) A  40 (  A) A  41 (  A) A
                   1.973        1.98       2.226       2.261       2.375
              42 (  A) A  43 (  A) A  44 (  A) A  45 (  A) A  46 (  A) A
                   2.451       2.508       2.639       2.714       2.822
              47 (  A) A  48 (  A) A
                   3.137       3.405
  Block   3:   9 (  A) B  10 (  A) B  11 (  A) B  12 (  A) B  13 (  A) B
                    0.17      0.2037      0.2324      0.2392      0.3036
              14 (  A) B  15 (  A) B  16 (  A) B  17 (  A) B  18 (  A) B
                  0.4636      0.5766      0.6149      0.6876      0.7083
              19 (  A) B  20 (  A) B  21 (  A) B  22 (  A) B
                   0.786      0.8087      0.8607      0.9361
  Block   4:  23 (  A) B  24 (  A) B  25 (  A) B  26 (  A) B  27 (  A) B
                   0.976       1.009        1.13       1.237       1.254
              28 (  A) B  29 (  A) B  30 (  A) B  31 (  A) B  32 (  A) B
                   1.268       1.295       1.599       1.728       1.751
              33 (  A) B  34 (  A) B  35 (  A) B  36 (  A) B
                    1.82       1.861       1.868       1.922
  Block   5:  37 (  A) B  38 (  A) B  39 (  A) B  40 (  A) B  41 (  A) B
                   1.973        1.98       2.226       2.261       2.375
              42 (  A) B  43 (  A) B  44 (  A) B  45 (  A) B  46 (  A) B
                   2.451       2.508       2.639       2.714       2.822
              47 (  A) B  48 (  A) B
                   3.137       3.405
  Import MO data ...  CPU 0.01 s  wall 0.02 s
  Import HF data ...  CPU 0.08 s  wall 0.04 s
  Import 2e integrals ...  CPU 0.68 s  wall 0.12 s

--------------------------------------------------------------------------------
                                   HF Summary                                   
--------------------------------------------------------------------------------
  Energy:                                                  -78.0400070535 a.u.
  Dip. moment [a.u.]:                  [   0.000570,    0.001881,    0.000918]
  Total dipole [Debye]:                                               0.005513
  <r^2> [a.u.]:                        [ 175.307891,   34.725379,   11.612251]
  Total <r^2> [a.u.]:                                               221.645521
--------------------------------------------------------------------------------
  HF properties ...  CPU 0.01 s  wall 0.01 s
  MP(1) calculation ...  CPU 0.01 s  wall 0.01 s
  N^6 prerequesite intermediates ...  CPU 0.50 s  wall 0.08 s
  Difference density matrix of state mp2_gs printed to ASCII file 'State_mp2_gs_Difference.txt'
Exporting MP density matrix to file 'Densmat_MP.txt'.
Export successful
  Total density matrix of state mp2_gs printed to ASCII file 'State_mp2_gs_Total.txt'
Exporting MP density matrix to file 'Densmat_MP.txt'.
Export successful

--------------------------------------------------------------------------------
                                 MP(2) Summary                                  
--------------------------------------------------------------------------------
  MP energy contribution:                                   -0.2794103115 a.u.
  Total energy:                                            -78.3194173650 a.u.
  Dip. moment [a.u.]:                  [   0.000275,    0.001527,    0.000874]
  Total dipole [Debye]:                                               0.004525
  <r^2> [a.u.]:                        [ 175.355678,   34.764017,   11.448237]
  Total <r^2> [a.u.]:                                               221.567932

  Density matrix analysis:
  ------------------------
  NOs
    Occupation of frontier NOs:
       0.0448   1.9388
    Number of electrons: 16.000000
    Number of unpaired electrons: n_u =  0.40214, n_u,nl =  0.04461
    NO participation ratio (PR_NO): 13.920464
  
  
  Mulliken Population Analysis
  Atom      Charge (e)              h+              e-           Del q
  --------------------------------------------------------------------
   1 H        0.050160        0.014054       -0.011212        0.002842
   2 C       -0.103372        0.092889       -0.098490       -0.005601
   3 H        0.051565        0.014034       -0.011200        0.002834
   4 C       -0.098228        0.092296       -0.098219       -0.005922
   5 H        0.049413        0.014152       -0.011167        0.002985
   6 H        0.050462        0.014053       -0.011191        0.002862
  --------------------------------------------------------------------
  Sum:       -0.000000        0.241477       -0.241477        0.000000
  
  Multipole moment analysis of the density matrix
    Molecular charge:                      0.000000
    Number of electrons:                   16.000000
      Center of electronic charge [Ang]: [ -1.560585,  -0.061903,   0.001949]
    Total nuclear charge:                  16.000000
      Center of nuclear charge [Ang]:    [ -1.560576,  -0.061852,   0.001978]
    Dipole moment [D]:                     0.004525
      Cartesian components [D]:          [  0.000698,   0.003880,   0.002220]
    RMS size of the density [Ang]:         1.199405
      Cartesian components [Ang]:        [  0.795996,   0.777560,   0.447617]
  
  Exciton analysis of the difference density matrix
    <r_h> [Ang]:                  [ -1.560554,  -0.063510,   0.001731]
    <r_e> [Ang]:                  [ -1.559907,  -0.062734,   0.001830]
    |<r_e - r_h>| [Ang]:            0.001015
    Hole size [Ang]:                1.391660
      Cartesian components [Ang]: [  0.845773,   0.834218,   0.724891]
    Electron size [Ang]:            1.359727
      Cartesian components [Ang]: [  0.879071,   0.860711,   0.579023]
--------------------------------------------------------------------------------
  MP(2) calculation ...  CPU 0.13 s  wall 0.12 s
  Start ADC(2)-s ...  CPU 0.01 s  wall 0.00 s
  ADC(2) intermediates ...  CPU 0.02 s  wall 0.01 s
  Starting Davidson for singlet states of irrep A ... 
--------------------------------------------------------------------------------
   It NVec Conv  Avg. Norm  Max. Norm  Conv. states           Remark
--------------------------------------------------------------------------------
        10    0  1.331e-01  4.696e-01  0.4133 n n n n n n n n Guess.
    1   20    0  2.335e-02  1.101e-01  0.3284 n n n n n n n n 
    2   30    0  6.154e-03  3.245e-02  0.3237 n n n n n n n n 
    3   40    0  2.214e-03  1.672e-02  0.3233 n n n n n n n n 
    4   50    0  6.577e-04  5.170e-03  0.3233 n n n n n n n n 
    5   20    0  3.207e-04  2.629e-03  0.3233 n n n n n n n n Subspace collapsed.
    6   30    0  3.347e-04  3.251e-03  0.3233 n n n n n n n n 
    7   40    0  2.520e-04  2.408e-03  0.3233 n n n n n n n n 
    8   50    0  3.635e-04  3.620e-03  0.3233 n n n n n n n n 
    9   20    2  2.226e-04  2.219e-03  0.3233 n y n y n n n n Subspace collapsed.
   10   30    4  1.366e-04  1.356e-03  0.3233 n y y y n y n n 
   11   40    5  1.130e-04  1.127e-03  0.3233 n y y y y y n n 
   12   50    6  1.402e-04  1.401e-03  0.3233 y y y y y y n n 
   13   20    6  8.152e-05  8.150e-04  0.3233 y y y y y y n n Subspace collapsed.
   14   30    6  8.431e-05  8.429e-04  0.3233 y y y y y y n n 
   15   40    6  7.913e-05  7.912e-04  0.3233 y y y y y y n n 
   16   50    6  9.041e-05  9.040e-04  0.3233 y y y y y y n n 
   17   20    6  4.538e-05  4.537e-04  0.3233 y y y y y y n n Subspace collapsed.
   18   30    7  3.928e-05  3.928e-04  0.3233 y y y y y y y n 
   19   40    8  2.913e-05  2.913e-04  0.3233 y y y y y y y y 
   20   50    8  3.717e-05  3.717e-04  0.3233 y y y y y y y y 
   21   20    8  1.778e-05  1.778e-04  0.3233 y y y y y y y y Subspace collapsed.
   22   30    8  1.979e-05  1.979e-04  0.3233 y y y y y y y y 
   23   32    8  1.950e-05  1.950e-04  0.3233 y y y y y y y y 
   24   34    8  1.995e-05  1.995e-04  0.3233 y y y y y y y y 
   25   35    8  2.029e-05  2.028e-04  0.3233 y y y y y y y y 
   26   36    8  1.993e-05  1.993e-04  0.3233 y y y y y y y y 
   27   36    8  1.993e-05  1.993e-04  0.3233 y y y y y y y y 
   28   46    8  1.834e-05  1.834e-04  0.3233 y y y y y y y y 
   29   46    8  1.834e-05  1.834e-04  0.3233 y y y y y y y y 
   30   50    8  2.027e-05  2.027e-04  0.3233 y y y y y y y y 
   31   16    9  1.100e-05  1.100e-04  0.3233 y y y y y y y y Subspace collapsed.
   32   22    9  1.192e-05  1.192e-04  0.3233 y y y y y y y y 
   33   28    9  1.172e-05  1.172e-04  0.3233 y y y y y y y y 
   34   33    9  1.315e-05  1.315e-04  0.3233 y y y y y y y y 
   35   33    9  1.315e-05  1.315e-04  0.3233 y y y y y y y y 
   36   33    9  1.315e-05  1.315e-04  0.3233 y y y y y y y y 
   37   43    9  9.594e-06  9.594e-05  0.3233 y y y y y y y y 
   38   47    9  5.847e-06  5.847e-05  0.3233 y y y y y y y y 
   39   50    9  2.460e-06  2.460e-05  0.3233 y y y y y y y y 
   40   14    9  1.450e-06  1.450e-05  0.3233 y y y y y y y y Subspace collapsed.
   41   18    9  8.650e-07  8.650e-06  0.3233 y y y y y y y y 
   42   22    9  5.310e-07  5.310e-06  0.3233 y y y y y y y y 
   43   26    9  3.299e-07  3.299e-06  0.3233 y y y y y y y y 
   44   30    9  1.615e-07  1.615e-06  0.3233 y y y y y y y y 
   45   34    9  1.297e-07  1.297e-06  0.3233 y y y y y y y y 
   46   38    9  1.116e-07  1.116e-06  0.3233 y y y y y y y y 
   47   42    9  1.009e-07  1.009e-06  0.3233 y y y y y y y y 
   48   46    9  1.043e-07  1.043e-06  0.3233 y y y y y y y y 
   49   50   10  8.199e-08  8.199e-07  0.3233 y y y y y y y y Converged.
--------------------------------------------------------------------------------
  Davidson Summary: 
 ------------------------------------------------------------
  State  0: excitation energy =   0.3233 a.u.   (converged)
  State  1: excitation energy =   0.3325 a.u.   (converged)
  State  2: excitation energy =   0.3381 a.u.   (converged)
  State  3: excitation energy =   0.3615 a.u.   (converged)
  State  4: excitation energy =   0.3770 a.u.   (converged)
  State  5: excitation energy =   0.3893 a.u.   (converged)
  State  6: excitation energy =   0.4231 a.u.   (converged)
  State  7: excitation energy =   0.4484 a.u.   (converged)
  State  8: excitation energy =   0.4576 a.u.   (converged)
  State  9: excitation energy =   0.4624 a.u.   (converged)
 ------------------------------------------------------------

  Singlet states of irrep A ...  CPU 97.82 s  wall 36.78 s
  TDMs ...  CPU 0.67 s  wall 0.28 s
  SDMs ...  CPU 1.48 s  wall 0.52 s
  Starting TPA DIIS iterations ... 
------------------------------------ 
   It     Res. Norm  Remark
------------------------------------
                       Guess.
    1     4.347e+00  
    2     5.734e+00  
    3     1.065e+00  
    4     2.501e-01  
    5     6.358e-02  
    6     2.601e-02  
    7     8.078e-03  
    8     1.427e-03  
    9     5.341e-04  
   10     8.933e-05  
   11     2.813e-05  
   12     4.357e-06  
   13     1.463e-06  
   14     4.458e-07  Converged.
   ... Converged in 14 steps (norm: 4.45846e-07)
------------------------------------
  Starting TPA DIIS iterations ... 
------------------------------------ 
   It     Res. Norm  Remark
------------------------------------
                       Guess.
    1     4.074e+00  
    2     5.372e+00  
    3     1.018e+00  
    4     2.533e-01  
    5     6.328e-02  
    6     2.650e-02  
    7     8.009e-03  
    8     1.493e-03  
    9     5.519e-04  
   10     9.152e-05  
   11     2.946e-05  
   12     4.444e-06  
   13     1.502e-06  
   14     4.392e-07  Converged.
   ... Converged in 14 steps (norm: 4.39211e-07)
------------------------------------
  Starting TPA DIIS iterations ... 
------------------------------------ 
   It     Res. Norm  Remark
------------------------------------
                       Guess.
    1     6.876e-01  
    2     4.824e-01  
    3     1.701e-01  
    4     6.070e-02  
    5     1.828e-02  
    6     6.629e-03  
    7     1.056e-03  
    8     4.523e-04  
    9     1.339e-04  
   10     2.336e-05  
   11     9.854e-06  
   12     3.312e-06  
   13     2.171e-06  
   14     9.174e-07  Converged.
   ... Converged in 14 steps (norm: 9.17449e-07)
------------------------------------
  Starting TPA DIIS iterations ... 
------------------------------------ 
   It     Res. Norm  Remark
------------------------------------
                       Guess.
    1     4.566e+00  
    2     6.124e+00  
    3     1.128e+00  
    4     2.715e-01  
    5     6.981e-02  
    6     2.876e-02  
    7     8.919e-03  
    8     1.574e-03  
    9     5.926e-04  
   10     9.957e-05  
   11     3.159e-05  
   12     4.929e-06  
   13     1.668e-06  
   14     5.085e-07  Converged.
   ... Converged in 14 steps (norm: 5.08535e-07)
------------------------------------
  Starting TPA DIIS iterations ... 
------------------------------------ 
   It     Res. Norm  Remark
------------------------------------
                       Guess.
    1     4.278e+00  
    2     5.737e+00  
    3     1.077e+00  
    4     2.749e-01  
    5     6.949e-02  
    6     2.933e-02  
    7     8.850e-03  
    8     1.648e-03  
    9     6.125e-04  
   10     1.020e-04  
   11     3.308e-05  
   12     5.025e-06  
   13     1.708e-06  
   14     5.001e-07  Converged.
   ... Converged in 14 steps (norm: 5.00127e-07)
------------------------------------
  Starting TPA DIIS iterations ... 
------------------------------------ 
   It     Res. Norm  Remark
------------------------------------
                       Guess.
    1     6.971e-01  
    2     4.960e-01  
    3     1.778e-01  
    4     6.683e-02  
    5     1.938e-02  
    6     7.111e-03  
    7     1.162e-03  
    8     5.132e-04  
    9     1.539e-04  
   10     2.511e-05  
   11     1.115e-05  
   12     3.801e-06  
   13     2.586e-06  
   14     1.110e-06  
   15     4.236e-07  Converged.
   ... Converged in 15 steps (norm: 4.23631e-07)
------------------------------------
  Starting TPA DIIS iterations ... 
------------------------------------ 
   It     Res. Norm  Remark
------------------------------------
                       Guess.
    1     4.708e+00  
    2     6.380e+00  
    3     1.168e+00  
    4     2.858e-01  
    5     7.396e-02  
    6     3.060e-02  
    7     9.482e-03  
    8     1.672e-03  
    9     6.318e-04  
   10     1.064e-04  
   11     3.395e-05  
   12     5.317e-06  
   13     1.809e-06  
   14     5.515e-07  Converged.
   ... Converged in 14 steps (norm: 5.51468e-07)
------------------------------------
  Starting TPA DIIS iterations ... 
------------------------------------ 
   It     Res. Norm  Remark
------------------------------------
                       Guess.
    1     4.410e+00  
    2     5.977e+00  
    3     1.115e+00  
    4     2.892e-01  
    5     7.363e-02  
    6     3.122e-02  
    7     9.411e-03  
    8     1.752e-03  
    9     6.532e-04  
   10     1.091e-04  
   11     3.553e-05  
   12     5.419e-06  
   13     1.849e-06  
   14     5.419e-07  Converged.
   ... Converged in 14 steps (norm: 5.41857e-07)
------------------------------------
  Starting TPA DIIS iterations ... 
------------------------------------ 
   It     Res. Norm  Remark
------------------------------------
                       Guess.
    1     7.030e-01  
    2     5.046e-01  
    3     1.827e-01  
    4     7.099e-02  
    5     2.008e-02  
    6     7.432e-03  
    7     1.233e-03  
    8     5.548e-04  
    9     1.675e-04  
   10     2.607e-05  
   11     1.205e-05  
   12     4.143e-06  
   13     2.880e-06  
   14     1.250e-06  
   15     4.724e-07  Converged.
   ... Converged in 15 steps (norm: 4.72408e-07)
------------------------------------
  Starting TPA DIIS iterations ... 
------------------------------------ 
   It     Res. Norm  Remark
------------------------------------
                       Guess.
    1     5.391e+00  
    2     7.643e+00  
    3     1.360e+00  
    4     3.585e-01  
    5     9.507e-02  
    6     4.005e-02  
    7     1.234e-02  
    8     2.169e-03  
    9     8.335e-04  
   10     1.419e-04  
   11     4.629e-05  
   12     7.364e-06  
   13     2.571e-06  
   14     7.829e-07  Converged.
   ... Converged in 14 steps (norm: 7.82875e-07)
------------------------------------
  Starting TPA DIIS iterations ... 
------------------------------------ 
   It     Res. Norm  Remark
------------------------------------
                       Guess.
    1     5.047e+00  
    2     7.158e+00  
    3     1.298e+00  
    4     3.622e-01  
    5     9.470e-02  
    6     4.099e-02  
    7     1.227e-02  
    8     2.280e-03  
    9     8.618e-04  
   10     1.455e-04  
   11     4.835e-05  
   12     7.496e-06  
   13     2.605e-06  
   14     7.674e-07  Converged.
   ... Converged in 14 steps (norm: 7.67405e-07)
------------------------------------
  Starting TPA DIIS iterations ... 
------------------------------------ 
   It     Res. Norm  Remark
------------------------------------
                       Guess.
    1     7.287e-01  
    2     5.439e-01  
    3     2.058e-01  
    4     9.274e-02  
    5     2.344e-02  
    6     9.070e-03  
    7     1.612e-03  
    8     7.709e-04  
    9     2.373e-04  
   10     2.972e-05  
   11     1.690e-05  
   12     6.094e-06  
   13     4.570e-06  
   14     2.094e-06  
   15     7.290e-07  Converged.
   ... Converged in 15 steps (norm: 7.29045e-07)
------------------------------------
  Starting TPA DIIS iterations ... 
------------------------------------ 
   It     Res. Norm  Remark
------------------------------------
                       Guess.
    1     5.936e+00  
    2     8.687e+00  
    3     1.513e+00  
    4     4.211e-01  
    5     1.132e-01  
    6     4.829e-02  
    7     1.481e-02  
    8     2.596e-03  
    9     1.009e-03  
   10     1.728e-04  
   11     5.732e-05  
   12     9.196e-06  
   13     3.281e-06  
   14     9.997e-07  Converged.
   ... Converged in 14 steps (norm: 9.99668e-07)
------------------------------------
  Starting TPA DIIS iterations ... 
------------------------------------ 
   It     Res. Norm  Remark
------------------------------------
                       Guess.
    1     5.556e+00  
    2     8.136e+00  
    3     1.443e+00  
    4     4.250e-01  
    5     1.129e-01  
    6     4.954e-02  
    7     1.474e-02  
    8     2.734e-03  
    9     1.044e-03  
   10     1.773e-04  
   11     5.974e-05  
   12     9.356e-06  
   13     3.296e-06  
   14     9.803e-07  Converged.
   ... Converged in 14 steps (norm: 9.80275e-07)
------------------------------------
  Starting TPA DIIS iterations ... 
------------------------------------ 
   It     Res. Norm  Remark
------------------------------------
                       Guess.
    1     7.468e-01  
    2     5.732e-01  
    3     2.236e-01  
    4     1.121e-01  
    5     2.617e-02  
    6     1.049e-02  
    7     1.956e-03  
    8     9.506e-04  
    9     2.952e-04  
   10     3.334e-05  
   11     2.149e-05  
   12     8.064e-06  
   13     6.257e-06  
   14     2.977e-06  
   15     9.769e-07  Converged.
   ... Converged in 15 steps (norm: 9.7685e-07)
------------------------------------
  Starting TPA DIIS iterations ... 
------------------------------------ 
   It     Res. Norm  Remark
------------------------------------
                       Guess.
    1     6.438e+00  
    2     9.674e+00  
    3     1.653e+00  
    4     4.820e-01  
    5     1.309e-01  
    6     5.638e-02  
    7     1.721e-02  
    8     3.009e-03  
    9     1.182e-03  
   10     2.031e-04  
   11     6.827e-05  
   12     1.102e-05  
   13     4.007e-06  
   14     1.226e-06  
   15     5.346e-07  Converged.
   ... Converged in 15 steps (norm: 5.34637e-07)
------------------------------------
  Starting TPA DIIS iterations ... 
------------------------------------ 
   It     Res. Norm  Remark
------------------------------------
                       Guess.
    1     6.025e+00  
    2     9.060e+00  
    3     1.576e+00  
    4     4.860e-01  
    5     1.305e-01  
    6     5.792e-02  
    7     1.715e-02  
    8     3.174e-03  
    9     1.222e-03  
   10     2.084e-04  
   11     7.100e-05  
   12     1.121e-05  
   13     3.992e-06  
   14     1.205e-06  
   15     3.600e-07  Converged.
   ... Converged in 15 steps (norm: 3.60046e-07)
------------------------------------
  Starting TPA DIIS iterations ... 
------------------------------------ 
   It     Res. Norm  Remark
------------------------------------
                       Guess.
    1     7.619e-01  
    2     5.987e-01  
    3     2.396e-01  
    4     1.313e-01  
    5     2.875e-02  
    6     1.188e-02  
    7     2.304e-03  
    8     1.110e-03  
    9     3.482e-04  
   10     3.856e-05  
   11     2.629e-05  
   12     1.023e-05  
   13     8.073e-06  
   14     3.949e-06  
   15     1.263e-06  
   16     5.964e-07  Converged.
   ... Converged in 16 steps (norm: 5.96379e-07)
------------------------------------
  Starting TPA DIIS iterations ... 
------------------------------------ 
   It     Res. Norm  Remark
------------------------------------
                       Guess.
    1     8.231e+00  
    2     1.338e+01  
    3     2.145e+00  
    4     7.211e-01  
    5     2.002e-01  
    6     8.875e-02  
    7     2.665e-02  
    8     4.627e-03  
    9     1.871e-03  
   10     3.242e-04  
   11     1.122e-04  
   12     1.837e-05  
   13     7.097e-06  
   14     2.282e-06  
   15     1.130e-06  
   16     4.047e-07  Converged.
   ... Converged in 16 steps (norm: 4.04687e-07)
------------------------------------
  Starting TPA DIIS iterations ... 
------------------------------------ 
   It     Res. Norm  Remark
------------------------------------
                       Guess.
    1     7.700e+00  
    2     1.253e+01  
    3     2.043e+00  
    4     7.250e-01  
    5     1.998e-01  
    6     9.161e-02  
    7     2.661e-02  
    8     4.897e-03  
    9     1.931e-03  
   10     3.325e-04  
   11     1.156e-04  
   12     1.878e-05  
   13     6.812e-06  
   14     2.264e-06  
   15     6.422e-07  Converged.
   ... Converged in 15 steps (norm: 6.42245e-07)
------------------------------------
  Starting TPA DIIS iterations ... 
------------------------------------ 
   It     Res. Norm  Remark
------------------------------------
                       Guess.
    1     8.068e-01  
    2     6.815e-01  
    3     2.937e-01  
    4     2.077e-01  
    5     3.863e-02  
    6     1.731e-02  
    7     3.757e-03  
    8     1.554e-03  
    9     5.290e-04  
   10     7.087e-05  
   11     4.803e-05  
   12     2.109e-05  
   13     1.631e-05  
   14     8.572e-06  
   15     2.949e-06  
   16     1.425e-06  
   17     3.235e-07  Converged.
   ... Converged in 17 steps (norm: 3.23549e-07)
------------------------------------
  Starting TPA DIIS iterations ... 
------------------------------------ 
   It     Res. Norm  Remark
------------------------------------
                       Guess.
    1     1.016e+01  
    2     1.766e+01  
    3     2.662e+00  
    4     1.008e+00  
    5     2.841e-01  
    6     1.289e-01  
    7     3.808e-02  
    8     6.575e-03  
    9     2.721e-03  
   10     4.724e-04  
   11     1.644e-04  
   12     2.752e-05  
   13     1.116e-05  
   14     3.945e-06  
   15     2.142e-06  
   16     8.259e-07  Converged.
   ... Converged in 16 steps (norm: 8.25922e-07)
------------------------------------
  Starting TPA DIIS iterations ... 
------------------------------------ 
   It     Res. Norm  Remark
------------------------------------
                       Guess.
    1     9.503e+00  
    2     1.653e+01  
    3     2.532e+00  
    4     1.011e+00  
    5     2.839e-01  
    6     1.335e-01  
    7     3.807e-02  
    8     6.973e-03  
    9     2.805e-03  
   10     4.844e-04  
   11     1.681e-04  
   12     2.858e-05  
   13     1.024e-05  
   14     3.895e-06  
   15     1.117e-06  
   16     7.269e-07  Converged.
   ... Converged in 16 steps (norm: 7.26937e-07)
------------------------------------
  Starting TPA DIIS iterations ... 
------------------------------------ 
   It     Res. Norm  Remark
------------------------------------
                       Guess.
    1     8.444e-01  
    2     7.599e-01  
    3     3.476e-01  
    4     2.955e-01  
    5     5.023e-02  
    6     2.356e-02  
    7     5.588e-03  
    8     1.801e-03  
    9     7.110e-04  
   10     1.170e-04  
   11     7.904e-05  
   12     3.843e-05  
   13     2.636e-05  
   14     1.513e-05  
   15     6.017e-06  
   16     2.869e-06  
   17     6.709e-07  Converged.
   ... Converged in 17 steps (norm: 6.70868e-07)
------------------------------------
  Starting TPA DIIS iterations ... 
------------------------------------ 
   It     Res. Norm  Remark
------------------------------------
                       Guess.
    1     1.105e+01  
    2     1.972e+01  
    3     2.896e+00  
    4     1.149e+00  
    5     3.257e-01  
    6     1.490e-01  
    7     4.373e-02  
    8     7.536e-03  
    9     3.147e-03  
   10     5.461e-04  
   11     1.895e-04  
   12     3.218e-05  
   13     1.333e-05  
   14     4.935e-06  
   15     2.783e-06  
   16     1.111e-06  
   17     8.346e-07  Converged.
   ... Converged in 17 steps (norm: 8.3463e-07)
------------------------------------
  Starting TPA DIIS iterations ... 
------------------------------------ 
   It     Res. Norm  Remark
------------------------------------
                       Guess.
    1     1.034e+01  
    2     1.847e+01  
    3     2.754e+00  
    4     1.151e+00  
    5     3.255e-01  
    6     1.545e-01  
    7     4.375e-02  
    8     7.997e-03  
    9     3.242e-03  
   10     5.599e-04  
   11     1.933e-04  
   12     3.375e-05  
   13     1.200e-05  
   14     4.813e-06  
   15     1.455e-06  
   16     9.744e-07  Converged.
   ... Converged in 16 steps (norm: 9.74382e-07)
------------------------------------
  Starting TPA DIIS iterations ... 
------------------------------------ 
   It     Res. Norm  Remark
------------------------------------
                       Guess.
    1     8.592e-01  
    2     7.934e-01  
    3     3.713e-01  
    4     3.353e-01  
    5     5.584e-02  
    6     2.644e-02  
    7     6.493e-03  
    8     1.866e-03  
    9     7.927e-04  
   10     1.400e-04  
   11     9.584e-05  
   12     4.840e-05  
   13     3.079e-05  
   14     1.841e-05  
   15     7.887e-06  
   16     3.814e-06  
   17     9.701e-07  Converged.
   ... Converged in 17 steps (norm: 9.70102e-07)
------------------------------------
  Starting TPA DIIS iterations ... 
------------------------------------ 
   It     Res. Norm  Remark
------------------------------------
                       Guess.
    1     1.156e+01  
    2     2.093e+01  
    3     3.029e+00  
    4     1.231e+00  
    5     3.500e-01  
    6     1.609e-01  
    7     4.705e-02  
    8     8.099e-03  
    9     3.399e-03  
   10     5.894e-04  
   11     2.040e-04  
   12     3.496e-05  
   13     1.466e-05  
   14     5.568e-06  
   15     3.207e-06  
   16     1.310e-06  
   17     9.805e-07  Converged.
   ... Converged in 17 steps (norm: 9.80491e-07)
------------------------------------
  Starting TPA DIIS iterations ... 
------------------------------------ 
   It     Res. Norm  Remark
------------------------------------
                       Guess.
    1     1.081e+01  
    2     1.960e+01  
    3     2.880e+00  
    4     1.233e+00  
    5     3.499e-01  
    6     1.670e-01  
    7     4.708e-02  
    8     8.598e-03  
    9     3.499e-03  
   10     6.042e-04  
   11     2.079e-04  
   12     3.690e-05  
   13     1.306e-05  
   14     5.382e-06  
   15     1.690e-06  
   16     1.138e-06  
   17     6.671e-07  Converged.
   ... Converged in 17 steps (norm: 6.67077e-07)
------------------------------------
  Starting TPA DIIS iterations ... 
------------------------------------ 
   It     Res. Norm  Remark
------------------------------------
                       Guess.
    1     8.671e-01  
    2     8.119e-01  
    3     3.846e-01  
    4     3.572e-01  
    5     5.909e-02  
    6     2.804e-02  
    7     7.020e-03  
    8     1.897e-03  
    9     8.388e-04  
   10     1.533e-04  
   11     1.061e-04  
   12     5.463e-05  
   13     3.327e-05  
   14     2.020e-05  
   15     9.100e-06  
   16     4.451e-06  
   17     1.201e-06  
   18     6.288e-07  Converged.
   ... Converged in 18 steps (norm: 6.28838e-07)
------------------------------------
  Two-photon absorbption ...  CPU 63.53 s  wall 17.37 s
  Transition density matrix of state singlet_A_1 printed to ASCII file 'State_singlet_A_1_Transition.txt'
  Transition density matrix of state singlet_A_2 printed to ASCII file 'State_singlet_A_2_Transition.txt'
  Transition density matrix of state singlet_A_3 printed to ASCII file 'State_singlet_A_3_Transition.txt'
  Transition density matrix of state singlet_A_4 printed to ASCII file 'State_singlet_A_4_Transition.txt'
  Transition density matrix of state singlet_A_5 printed to ASCII file 'State_singlet_A_5_Transition.txt'
  Transition density matrix of state singlet_A_6 printed to ASCII file 'State_singlet_A_6_Transition.txt'
  Transition density matrix of state singlet_A_7 printed to ASCII file 'State_singlet_A_7_Transition.txt'
  Transition density matrix of state singlet_A_8 printed to ASCII file 'State_singlet_A_8_Transition.txt'
  Transition density matrix of state singlet_A_9 printed to ASCII file 'State_singlet_A_9_Transition.txt'
  Transition density matrix of state singlet_A_10 printed to ASCII file 'State_singlet_A_10_Transition.txt'
  Transition properties ...  CPU 0.17 s  wall 0.31 s
  Difference density matrix of state singlet_A_1 printed to ASCII file 'State_singlet_A_1_Difference.txt'
  Total density matrix of state singlet_A_1 printed to ASCII file 'State_singlet_A_1_Total.txt'
  Difference density matrix of state singlet_A_2 printed to ASCII file 'State_singlet_A_2_Difference.txt'
  Total density matrix of state singlet_A_2 printed to ASCII file 'State_singlet_A_2_Total.txt'
  Difference density matrix of state singlet_A_3 printed to ASCII file 'State_singlet_A_3_Difference.txt'
  Total density matrix of state singlet_A_3 printed to ASCII file 'State_singlet_A_3_Total.txt'
  Difference density matrix of state singlet_A_4 printed to ASCII file 'State_singlet_A_4_Difference.txt'
  Total density matrix of state singlet_A_4 printed to ASCII file 'State_singlet_A_4_Total.txt'
  Difference density matrix of state singlet_A_5 printed to ASCII file 'State_singlet_A_5_Difference.txt'
  Total density matrix of state singlet_A_5 printed to ASCII file 'State_singlet_A_5_Total.txt'
  Difference density matrix of state singlet_A_6 printed to ASCII file 'State_singlet_A_6_Difference.txt'
  Total density matrix of state singlet_A_6 printed to ASCII file 'State_singlet_A_6_Total.txt'
  Difference density matrix of state singlet_A_7 printed to ASCII file 'State_singlet_A_7_Difference.txt'
  Total density matrix of state singlet_A_7 printed to ASCII file 'State_singlet_A_7_Total.txt'
  Difference density matrix of state singlet_A_8 printed to ASCII file 'State_singlet_A_8_Difference.txt'
  Total density matrix of state singlet_A_8 printed to ASCII file 'State_singlet_A_8_Total.txt'
  Difference density matrix of state singlet_A_9 printed to ASCII file 'State_singlet_A_9_Difference.txt'
  Total density matrix of state singlet_A_9 printed to ASCII file 'State_singlet_A_9_Total.txt'
  Difference density matrix of state singlet_A_10 printed to ASCII file 'State_singlet_A_10_Difference.txt'
  Total density matrix of state singlet_A_10 printed to ASCII file 'State_singlet_A_10_Total.txt'
  Properties ...  CPU 0.32 s  wall 0.52 s
  ISR TDMS ...  CPU 9.02 s  wall 3.18 s
  ISR transition properties ...  CPU 0.17 s  wall 0.08 s
  Sum-over-states TPA ...  CPU 0.00 s  wall 0.00 s

--------------------------------------------------------------------------------
                   State-averaged natural transition orbitals
--------------------------------------------------------------------------------
--------------------------------------------------------------------------------
  SA-NTO decomposition ...  CPU 0.01 s  wall 0.02 s

--------------------------------------------------------------------------------
                             Excited State Summary
--------------------------------------------------------------------------------
--------------------------------------------------------------------------------

  Excited state 1 (singlet, A)                                     [converged]
  ----------------------------------------------------------------------------
  Term symbol:  2 (1) A                                     R^2 =  1.19578e-14

  Total energy:                                            -77.9961297687 a.u.
  Excitation energy:                                               8.797103 eV

  Osc. strength:                                                      0.448643
  Trans. dip. moment [a.u.]:           [   1.047278,   -0.992341,   -0.009836]
  <i|r^2|0> [a.u.]:                    [   6.181437,   -0.239595,   -0.000786]
  Two-photon absorption cross-section (SoS) [a.u.]:                   0.002445
  Two-photon absorption matrix (SoS) [a.u.]:
                                       |    0.005418   -0.010185   -0.001746 |
                                       |   -0.010185   -0.016986   -0.001815 |
                                       |   -0.001746   -0.001815    0.008229 |
  Two-photon absorption cross-section [a.u.]:                         0.002457
  Two-photon absorption matrix [a.u.]:
                                       |    0.014102   -0.005777    0.000134 |
                                       |   -0.005777   -0.014037    0.001500 |
                                       |    0.000134    0.001500    0.009877 |

  Dip. moment [a.u.]:                  [   0.000014,    0.001219,    0.001007]
  Total dipole [Debye]:                                               0.004017
  <r^2> [a.u.]:                        [ 176.119386,   35.448049,   11.868193]
  Total <r^2> [a.u.]:                                               223.435627

  V1^2 = 0.9714, V2^2 = 0.0286

  Important amplitudes:
      occ i     occ j     vir a      vir b          v   
    -----------------------------------------------------
     8 (A) A              9 (A) A                -0.6811
     4 (A) A             10 (A) A                -0.0612
     6 (A) A             14 (A) A                -0.0609
     7 (A) A             16 (A) A                -0.0574
     5 (A) A             13 (A) A                -0.0518
     6 (A) A             23 (A) A                -0.0483
     8 (A) A             20 (A) A                -0.0347
     6 (A) A             19 (A) A                -0.0295
     3 (A) A             12 (A) A                 0.0280
     5 (A) A             22 (A) A                 0.0217
     7 (A) A             11 (A) A                 0.0202
     4 (A) A             24 (A) A                -0.0189
     3 (A) A             26 (A) A                -0.0186
     8 (A) A   8 (A) B   17 (A) A   20 (A) B      0.0183
     8 (A) A   8 (A) B    9 (A) A   28 (A) B      0.0168
     6 (A) A             26 (A) A                -0.0165
     7 (A) A             21 (A) A                 0.0149
     6 (A) A             12 (A) A                -0.0145
     3 (A) A             14 (A) A                -0.0138
     3 (A) A   4 (A) B    9 (A) A    9 (A) B      0.0129
     3 (A) A             19 (A) A                -0.0117
     8 (A) A   8 (A) B   18 (A) A   19 (A) B      0.0112
     7 (A) A             32 (A) A                 0.0097
     7 (A) A             36 (A) A                -0.0086
     3 (A) A             23 (A) A                -0.0080
     8 (A) A   8 (A) B   25 (A) A   29 (A) B      0.0076
     6 (A) A             35 (A) A                -0.0073
     6 (A) A             40 (A) A                 0.0068
     3 (A) A   6 (A) B    9 (A) A   28 (A) B      0.0065
     5 (A) A   8 (A) B   11 (A) A    9 (A) B     -0.0060
     5 (A) A   7 (A) B    9 (A) A    9 (A) B     -0.0060
     6 (A) A   8 (A) A   19 (A) A   28 (A) A     -0.0060
     5 (A) A   8 (A) B   16 (A) A    9 (A) B     -0.0060
     5 (A) A   8 (A) B   11 (A) A   20 (A) B      0.0060
     7 (A) A   8 (A) B   13 (A) A   20 (A) B     -0.0060
     3 (A) A   5 (A) B    9 (A) A   25 (A) B      0.0058
     3 (A) A             40 (A) A                 0.0057
     7 (A) A   8 (A) B   22 (A) A   20 (A) B      0.0057
     6 (A) A   8 (A) A    9 (A) A   18 (A) A      0.0056
     8 (A) A   8 (A) B   19 (A) A   30 (A) B      0.0055
    -----------------------------------------------------

  Density matrix analysis:
  ------------------------
  NOs
    Occupation of frontier NOs:
       0.9496   1.0217
    Number of electrons: 16.000000
    Number of unpaired electrons: n_u =  2.31317, n_u,nl =  2.03245
    NO participation ratio (PR_NO):  2.863337
  
  
  Mulliken Population Analysis
  Atom      Charge (e)              h+              e-           Del q
  --------------------------------------------------------------------
   1 H        0.058274        0.020604       -0.012491        0.008114
   2 C       -0.119431        0.491271       -0.507330       -0.016059
   3 H        0.059433        0.020480       -0.012612        0.007868
   4 C       -0.114082        0.491250       -0.507104       -0.015854
   5 H        0.057182        0.020404       -0.012635        0.007769
   6 H        0.058624        0.020666       -0.012504        0.008162
  --------------------------------------------------------------------
  Sum:       -0.000000        1.064676       -1.064676       -0.000000
  
  Multipole moment analysis of the density matrix
    Molecular charge:                      -0.000000
    Number of electrons:                   16.000000
      Center of electronic charge [Ang]: [ -1.560577,  -0.061893,   0.001945]
    Total nuclear charge:                  16.000000
      Center of nuclear charge [Ang]:    [ -1.560576,  -0.061852,   0.001978]
    Dipole moment [D]:                     0.004017
      Cartesian components [D]:          [  0.000036,   0.003097,   0.002558]
    RMS size of the density [Ang]:         1.212966
      Cartesian components [Ang]:        [  0.804365,   0.785222,   0.455753]
  
  Exciton analysis of the difference density matrix
    <r_h> [Ang]:                  [ -1.560296,  -0.061225,   0.001605]
    <r_e> [Ang]:                  [ -1.560167,  -0.061072,   0.001539]
    |<r_e - r_h>| [Ang]:            0.000211
    Hole size [Ang]:                1.284570
      Cartesian components [Ang]: [  0.729207,   0.711074,   0.782784]
    Electron size [Ang]:            1.463482
      Cartesian components [Ang]: [  0.856163,   0.827984,   0.850415]

  Transition density matrix analysis:
  -----------------------------------
  
  CT numbers (Mulliken)
    omega =     0.9535
    <Phe> =    -0.1589
  
  Exciton analysis of the transition density matrix
    Trans. dipole moment [D]:             1.833597
      Cartesian components [D]:         [  1.330957,  -1.261140,  -0.012500]
    <r_h> [Ang]:                        [ -1.560296,  -0.060925,   0.001701]
    <r_e> [Ang]:                        [ -1.560190,  -0.061151,   0.001474]
    |<r_e - r_h>| [Ang]:                  0.000338
    Hole size [Ang]:                      1.211539
      Cartesian components [Ang]:       [  0.648805,   0.633429,   0.803521]
    Electron size [Ang]:                  1.487216
      Cartesian components [Ang]:       [  0.867136,   0.837206,   0.871190]
    RMS electron-hole separation [Ang]:   1.934790
      Cartesian components [Ang]:       [  1.108090,   1.069943,   1.170799]
    Covariance(r_h, r_e) [Ang^2]:        -0.031887
    Correlation coefficient:             -0.017697
    Center-of-mass size [Ang]:            0.950771
      Cartesian components [Ang]:       [  0.528650,   0.514664,   0.599681]

  Decomposition into state-averaged NTOs
    H- 0 -> L+ 0: -0.6700 ( 89.8%)
    H- 2 -> L+ 5: -0.0822 (  1.4%)
                   omega =  95.3%
  ----------------------------------------------------------------------------


  Excited state 2 (singlet, A)                                     [converged]
  ----------------------------------------------------------------------------
  Term symbol:  3 (1) A                                     R^2 =  3.96531e-14

  Total energy:                                            -77.9869332128 a.u.
  Excitation energy:                                               9.047354 eV

  Osc. strength:                                                      0.000079
  Trans. dip. moment [a.u.]:           [   0.003085,   -0.005545,    0.017736]
  <i|r^2|0> [a.u.]:                    [  -0.041798,   -0.092246,    0.150811]
  Two-photon absorption cross-section (SoS) [a.u.]:                   4.687192
  Two-photon absorption matrix (SoS) [a.u.]:
                                       |   -0.048872   -0.057148    0.517211 |
                                       |   -0.057148   -0.066870    0.552332 |
                                       |    0.517211    0.552332    0.115108 |
  Two-photon absorption cross-section [a.u.]:                         0.107571
  Two-photon absorption matrix [a.u.]:
                                       |    0.005256    0.007409   -0.033534 |
                                       |    0.007409    0.010604   -0.109827 |
                                       |   -0.033534   -0.109827   -0.016423 |

  Dip. moment [a.u.]:                  [   0.025086,    0.008687,    0.003467]
  Total dipole [Debye]:                                               0.068051
  <r^2> [a.u.]:                        [ 174.796919,   33.665145,   13.163712]
  Total <r^2> [a.u.]:                                               221.625776

  V1^2 = 0.9545, V2^2 = 0.0455

  Important amplitudes:
      occ i     occ j     vir a      vir b          v   
    -----------------------------------------------------
     7 (A) A              9 (A) A                -0.6686
     8 (A) A             11 (A) A                 0.1472
     7 (A) A             20 (A) A                -0.0760
     8 (A) A             10 (A) A                -0.0338
     5 (A) A   8 (A) B    9 (A) A    9 (A) B     -0.0313
     8 (A) A             16 (A) A                 0.0273
     8 (A) A             21 (A) A                 0.0174
     5 (A) A             28 (A) A                -0.0150
     4 (A) A   7 (A) B    9 (A) A   19 (A) B      0.0135
     5 (A) A   7 (A) B    9 (A) A   16 (A) B      0.0133
     7 (A) A   8 (A) B   20 (A) A   17 (A) B      0.0105
     7 (A) A   8 (A) A    9 (A) A   28 (A) A     -0.0097
     5 (A) A   8 (A) B    9 (A) A   20 (A) B     -0.0095
     4 (A) A   6 (A) B    9 (A) A   16 (A) B      0.0091
     5 (A) A   6 (A) A    9 (A) A   23 (A) A      0.0090
     5 (A) A   6 (A) A    9 (A) A   14 (A) A      0.0087
     8 (A) A   7 (A) B    9 (A) A   28 (A) B      0.0085
     5 (A) A   6 (A) B    9 (A) A   19 (A) B      0.0084
     4 (A) A   5 (A) A    9 (A) A   10 (A) A     -0.0084
     6 (A) A   7 (A) B    9 (A) A   18 (A) B      0.0084
     5 (A) A   6 (A) B    9 (A) A   23 (A) B      0.0080
     3 (A) A   7 (A) B    9 (A) A   18 (A) B     -0.0079
     5 (A) A   7 (A) A    9 (A) A   16 (A) A      0.0079
     4 (A) A   8 (A) B    9 (A) A   25 (A) B     -0.0076
     6 (A) A              9 (A) A                 0.0075
     4 (A) A   7 (A) B   19 (A) A    9 (A) B      0.0074
     7 (A) A   8 (A) B   17 (A) A   20 (A) B      0.0074
     5 (A) A   5 (A) B    9 (A) A   13 (A) B      0.0072
     7 (A) A   8 (A) B   19 (A) A   18 (A) B      0.0071
     5 (A) A   8 (A) A    9 (A) A   20 (A) A     -0.0069
     4 (A) A   5 (A) B    9 (A) A   18 (A) B      0.0068
     8 (A) A             12 (A) A                 0.0067
     7 (A) A   7 (A) B   20 (A) A   22 (A) B      0.0065
     7 (A) A   8 (A) B   17 (A) A    9 (A) B      0.0063
     4 (A) A   7 (A) A    9 (A) A   19 (A) A      0.0061
     5 (A) A   6 (A) B    9 (A) A   14 (A) B      0.0061
     4 (A) A   5 (A) B   10 (A) A    9 (A) B      0.0061
     5 (A) A   7 (A) B   11 (A) A   20 (A) B      0.0061
     4 (A) A   7 (A) B    9 (A) A   14 (A) B     -0.0060
     5 (A) A             38 (A) A                -0.0058
    -----------------------------------------------------

  Density matrix analysis:
  ------------------------
  NOs
    Occupation of frontier NOs:
       0.9559   1.0551
    Number of electrons: 16.000000
    Number of unpaired electrons: n_u =  2.35444, n_u,nl =  2.06369
    NO participation ratio (PR_NO):  3.035280
  
  
  Mulliken Population Analysis
  Atom      Charge (e)              h+              e-           Del q
  --------------------------------------------------------------------
   1 H        0.147811        0.116081       -0.018430        0.097650
   2 C       -0.303143        0.273865       -0.473635       -0.199771
   3 H        0.156520        0.136311       -0.031356        0.104955
   4 C       -0.299293        0.269793       -0.470858       -0.201065
   5 H        0.159182        0.129505       -0.019736        0.109769
   6 H        0.138923        0.117882       -0.029421        0.088461
  --------------------------------------------------------------------
  Sum:       -0.000000        1.043437       -1.043437        0.000000
  
  Multipole moment analysis of the density matrix
    Molecular charge:                      0.000000
    Number of electrons:                   16.000000
      Center of electronic charge [Ang]: [ -1.561406,  -0.062140,   0.001863]
    Total nuclear charge:                  16.000000
      Center of nuclear charge [Ang]:    [ -1.560576,  -0.061852,   0.001978]
    Dipole moment [D]:                     0.068051
      Cartesian components [D]:          [  0.063763,   0.022081,   0.008813]
    RMS size of the density [Ang]:         1.198746
      Cartesian components [Ang]:        [  0.788206,   0.765074,   0.479984]
  
  Exciton analysis of the difference density matrix
    <r_h> [Ang]:                  [ -1.560944,  -0.075152,   0.001277]
    <r_e> [Ang]:                  [ -1.573527,  -0.078784,  -0.000039]
    |<r_e - r_h>| [Ang]:            0.013163
    Hole size [Ang]:                1.486603
      Cartesian components [Ang]: [  0.982641,   1.018180,   0.455756]
    Electron size [Ang]:            1.478348
      Cartesian components [Ang]: [  0.881015,   0.860944,   0.817374]

  Transition density matrix analysis:
  -----------------------------------
  
  CT numbers (Mulliken)
    omega =     0.9223
    <Phe> =    -0.0120
  
  Exciton analysis of the transition density matrix
    Trans. dipole moment [D]:             0.023939
      Cartesian components [D]:         [  0.003920,  -0.007047,   0.022540]
    <r_h> [Ang]:                        [ -1.560264,  -0.076288,   0.001344]
    <r_e> [Ang]:                        [ -1.574814,  -0.078685,  -0.000213]
    |<r_e - r_h>| [Ang]:                  0.014828
    Hole size [Ang]:                      1.514837
      Cartesian components [Ang]:       [  1.002996,   1.044162,   0.445483]
    Electron size [Ang]:                  1.475516
      Cartesian components [Ang]:       [  0.872257,   0.849933,   0.833025]
    RMS electron-hole separation [Ang]:   2.095054
      Cartesian components [Ang]:       [  1.313454,   1.331589,   0.943908]
    Covariance(r_h, r_e) [Ang^2]:         0.041423
    Correlation coefficient:              0.018533
    Center-of-mass size [Ang]:            1.067090
      Cartesian components [Ang]:       [  0.672443,   0.680477,   0.472708]

  Decomposition into state-averaged NTOs
    H- 1 -> L+ 0: -0.6611 ( 87.4%)
    H- 0 -> L+ 2: -0.1480 (  4.4%)
                   omega =  92.2%
  ----------------------------------------------------------------------------


  Excited state 3 (singlet, A)                                     [converged]
  ----------------------------------------------------------------------------
  Term symbol:  4 (1) A                                     R^2 =  2.88891e-14

  Total energy:                                            -77.9813444033 a.u.
  Excitation energy:                                               9.199433 eV

  Osc. strength:                                                      0.024867
  Trans. dip. moment [a.u.]:           [  -0.016348,   -0.019021,    0.331215]
  <i|r^2|0> [a.u.]:                    [  -0.094869,    0.001662,   -0.009219]
  Two-photon absorption cross-section (SoS) [a.u.]:                   0.034001
  Two-photon absorption matrix (SoS) [a.u.]:
                                       |   -0.015995   -0.005162    0.039115 |
                                       |   -0.005162    0.004974    0.050319 |
                                       |    0.039115    0.050319    0.002570 |
  Two-photon absorption cross-section [a.u.]:                         0.036879
  Two-photon absorption matrix [a.u.]:
                                       |   -0.015621   -0.004297    0.040694 |
                                       |   -0.004297   -0.000910    0.052606 |
                                       |    0.040694    0.052606    0.005775 |

  Dip. moment [a.u.]:                  [   0.042969,    0.089459,    0.006308]
  Total dipole [Debye]:                                               0.252760
  <r^2> [a.u.]:                        [ 181.054211,   40.445190,   11.027296]
  Total <r^2> [a.u.]:                                               232.526697

  V1^2 = 0.9586, V2^2 = 0.0414

  Important amplitudes:
      occ i     occ j     vir a      vir b          v   
    -----------------------------------------------------
     8 (A) A             10 (A) A                -0.6881
     8 (A) A             24 (A) A                -0.0507
     7 (A) A              9 (A) A                 0.0355
     8 (A) A             18 (A) A                 0.0314
     4 (A) A              9 (A) A                -0.0239
     8 (A) A   8 (A) B    9 (A) A   12 (A) B      0.0218
     8 (A) A   8 (A) B   10 (A) A   17 (A) B     -0.0173
     5 (A) A   8 (A) B   11 (A) A   10 (A) B     -0.0166
     8 (A) A             15 (A) A                -0.0164
     7 (A) A   8 (A) B   13 (A) A   10 (A) B      0.0141
     4 (A) A   8 (A) B   12 (A) A   10 (A) B      0.0111
     6 (A) A   8 (A) A   10 (A) A   15 (A) A      0.0111
     7 (A) A   8 (A) B   22 (A) A   10 (A) B     -0.0108
     6 (A) A   8 (A) B   15 (A) A   10 (A) B     -0.0108
     4 (A) A   8 (A) A   10 (A) A   12 (A) A     -0.0107
     7 (A) A   8 (A) A   10 (A) A   22 (A) A      0.0099
     7 (A) A   8 (A) A   10 (A) A   13 (A) A     -0.0098
     5 (A) A   8 (A) A   10 (A) A   11 (A) A      0.0095
     5 (A) A   8 (A) B   21 (A) A   10 (A) B     -0.0094
     6 (A) A   8 (A) B   10 (A) A   10 (A) B      0.0088
     6 (A) A   8 (A) A   10 (A) A   18 (A) A      0.0086
     7 (A) A   8 (A) A   12 (A) A   16 (A) A      0.0082
     5 (A) A   8 (A) A   10 (A) A   21 (A) A      0.0080
     3 (A) A   4 (A) B   10 (A) A    9 (A) B      0.0079
     4 (A) A   8 (A) B   19 (A) A   10 (A) B     -0.0075
     8 (A) A   8 (A) B    9 (A) A   23 (A) B      0.0074
     8 (A) A   8 (A) B   10 (A) A   28 (A) B      0.0073
     3 (A) A   8 (A) B   10 (A) A   10 (A) B     -0.0071
     5 (A) A   8 (A) B   10 (A) A   11 (A) B     -0.0071
     3 (A) A   8 (A) A   10 (A) A   24 (A) A      0.0071
     7 (A) A   8 (A) B   16 (A) A   12 (A) B     -0.0071
     3 (A) A   8 (A) B   10 (A) A   18 (A) B      0.0069
     8 (A) A   8 (A) B    9 (A) A   19 (A) B     -0.0069
     6 (A) A   8 (A) B   18 (A) A   10 (A) B     -0.0066
     3 (A) A   6 (A) B   10 (A) A   28 (A) B      0.0062
     7 (A) A   8 (A) B   12 (A) A   11 (A) B     -0.0058
     6 (A) A             28 (A) A                -0.0057
     5 (A) A   8 (A) A   10 (A) A   16 (A) A      0.0056
     3 (A) A   5 (A) B   10 (A) A   25 (A) B      0.0056
     3 (A) A   8 (A) A   10 (A) A   18 (A) A      0.0055
    -----------------------------------------------------

  Density matrix analysis:
  ------------------------
  NOs
    Occupation of frontier NOs:
       0.9825   0.9841
    Number of electrons: 16.000000
    Number of unpaired electrons: n_u =  2.29055, n_u,nl =  2.02556
    NO participation ratio (PR_NO):  2.703588
  
  
  Mulliken Population Analysis
  Atom      Charge (e)              h+              e-           Del q
  --------------------------------------------------------------------
   1 H       -0.153800        0.054608       -0.258568       -0.203960
   2 C        0.323064        0.537392       -0.110956        0.426436
   3 H       -0.175840        0.053973       -0.281378       -0.227405
   4 C        0.325994        0.533877       -0.109655        0.424222
   5 H       -0.151043        0.054924       -0.255380       -0.200456
   6 H       -0.168374        0.053785       -0.272621       -0.218836
  --------------------------------------------------------------------
  Sum:       -0.000000        1.288558       -1.288558        0.000000
  
  Multipole moment analysis of the density matrix
    Molecular charge:                      -0.000000
    Number of electrons:                   16.000000
      Center of electronic charge [Ang]: [ -1.561997,  -0.064811,   0.001770]
    Total nuclear charge:                  16.000000
      Center of nuclear charge [Ang]:    [ -1.560576,  -0.061852,   0.001978]
    Dipole moment [D]:                     0.252760
      Cartesian components [D]:          [  0.109216,   0.227382,   0.016033]
    RMS size of the density [Ang]:         1.274987
      Cartesian components [Ang]:        [  0.853777,   0.838846,   0.439311]
  
  Exciton analysis of the difference density matrix
    <r_h> [Ang]:                  [ -1.559559,  -0.063289,   0.001702]
    <r_e> [Ang]:                  [ -1.577092,  -0.099400,  -0.000529]
    |<r_e - r_h>| [Ang]:            0.040205
    Hole size [Ang]:                1.409348
      Cartesian components [Ang]: [  0.834398,   0.819062,   0.786879]
    Electron size [Ang]:            2.075318
      Cartesian components [Ang]: [  1.370994,   1.378266,   0.726431]

  Transition density matrix analysis:
  -----------------------------------
  
  CT numbers (Mulliken)
    omega =     0.9260
    <Phe> =    -0.0109
  
  Exciton analysis of the transition density matrix
    Trans. dipole moment [D]:             0.422137
      Cartesian components [D]:         [ -0.020776,  -0.024173,   0.420932]
    <r_h> [Ang]:                        [ -1.558470,  -0.059033,   0.001796]
    <r_e> [Ang]:                        [ -1.582703,  -0.111787,  -0.001336]
    |<r_e - r_h>| [Ang]:                  0.058138
    Hole size [Ang]:                      1.210979
      Cartesian components [Ang]:       [  0.637050,   0.621545,   0.821169]
    Electron size [Ang]:                  2.293576
      Cartesian components [Ang]:       [  1.513409,   1.524860,   0.803047]
    RMS electron-hole separation [Ang]:   2.584429
      Cartesian components [Ang]:       [  1.634708,   1.640600,   1.146924]
    Covariance(r_h, r_e) [Ang^2]:         0.025531
    Correlation coefficient:              0.009192
    Center-of-mass size [Ang]:            1.301732
      Cartesian components [Ang]:       [  0.824742,   0.826778,   0.575104]

  Decomposition into state-averaged NTOs
    H- 0 -> L+ 1: -0.6786 ( 92.1%)
                   omega =  92.6%
  ----------------------------------------------------------------------------


  Excited state 4 (singlet, A)                                     [converged]
  ----------------------------------------------------------------------------
  Term symbol:  5 (1) A                                     R^2 =  1.23249e-13

  Total energy:                                            -77.9579416865 a.u.
  Excitation energy:                                               9.836253 eV

  Osc. strength:                                                      0.000059
  Trans. dip. moment [a.u.]:           [  -0.000513,    0.002244,   -0.015504]
  <i|r^2|0> [a.u.]:                    [  -0.020724,   -0.017540,    0.035874]
  Two-photon absorption cross-section (SoS) [a.u.]:                 145.161376
  Two-photon absorption matrix (SoS) [a.u.]:
                                       |   -0.277276   -0.319261    2.953201 |
                                       |   -0.319261   -0.363205    3.002030 |
                                       |    2.953201    3.002030    0.640723 |
  Two-photon absorption cross-section [a.u.]:                        87.817930
  Two-photon absorption matrix [a.u.]:
                                       |   -0.211151   -0.247917    2.270878 |
                                       |   -0.247917   -0.287284    2.360277 |
                                       |    2.270878    2.360277    0.498852 |

  Dip. moment [a.u.]:                  [  -0.103563,   -0.090805,   -0.011435]
  Total dipole [Debye]:                                               0.351292
  <r^2> [a.u.]:                        [ 180.494623,   40.456964,   10.752010]
  Total <r^2> [a.u.]:                                               231.703597

  V1^2 = 0.9635, V2^2 = 0.0365

  Important amplitudes:
      occ i     occ j     vir a      vir b          v   
    -----------------------------------------------------
     8 (A) A             11 (A) A                 0.6698
     7 (A) A              9 (A) A                 0.1488
     8 (A) A             21 (A) A                 0.0780
     8 (A) A             16 (A) A                 0.0653
     8 (A) A   8 (A) B    9 (A) A   13 (A) B      0.0165
     5 (A) A   8 (A) B   11 (A) A   11 (A) B      0.0156
     8 (A) A   8 (A) B   11 (A) A   17 (A) B      0.0140
     7 (A) A             20 (A) A                 0.0136
     7 (A) A   8 (A) B   13 (A) A   11 (A) B     -0.0128
     8 (A) A             10 (A) A                 0.0122
     8 (A) A             12 (A) A                 0.0112
     5 (A) A   8 (A) A   11 (A) A   21 (A) A     -0.0110
     4 (A) A   8 (A) B   12 (A) A   11 (A) B     -0.0110
     8 (A) A   8 (A) B    9 (A) A   22 (A) B     -0.0107
     6 (A) A              9 (A) A                -0.0107
     7 (A) A   8 (A) A   11 (A) A   22 (A) A     -0.0096
     6 (A) A   8 (A) B   15 (A) A   11 (A) B      0.0091
     6 (A) A   8 (A) B   10 (A) A   11 (A) B     -0.0090
     7 (A) A   8 (A) B   22 (A) A   11 (A) B      0.0089
     3 (A) A   4 (A) B   11 (A) A    9 (A) B     -0.0083
     3 (A) A   8 (A) B   11 (A) A   18 (A) B     -0.0081
     6 (A) A   8 (A) A   11 (A) A   15 (A) A     -0.0081
     7 (A) A   8 (A) A   13 (A) A   16 (A) A      0.0078
     7 (A) A   8 (A) A   11 (A) A   13 (A) A      0.0076
     5 (A) A   8 (A) B   21 (A) A   11 (A) B      0.0071
     4 (A) A   8 (A) B   19 (A) A   11 (A) B      0.0070
     5 (A) A   8 (A) B    9 (A) A    9 (A) B      0.0066
     4 (A) A   8 (A) A   11 (A) A   12 (A) A      0.0062
     6 (A) A   8 (A) A   11 (A) A   18 (A) A     -0.0061
     3 (A) A   6 (A) B   11 (A) A   28 (A) B     -0.0060
     6 (A) A   8 (A) B   18 (A) A   11 (A) B      0.0059
     7 (A) A   8 (A) B   16 (A) A   13 (A) B     -0.0057
     3 (A) A   8 (A) A   11 (A) A   18 (A) A     -0.0056
     3 (A) A   8 (A) B   11 (A) A   30 (A) B     -0.0055
     5 (A) A   8 (A) B   10 (A) A   10 (A) B      0.0055
     3 (A) A   5 (A) B   11 (A) A   25 (A) B     -0.0055
     7 (A) A   8 (A) B   12 (A) A   10 (A) B      0.0054
     6 (A) A   8 (A) B   11 (A) A   10 (A) B     -0.0054
     8 (A) A   8 (A) B   20 (A) A   22 (A) B     -0.0053
     3 (A) A   8 (A) A   11 (A) A   24 (A) A     -0.0052
    -----------------------------------------------------

  Density matrix analysis:
  ------------------------
  NOs
    Occupation of frontier NOs:
       0.9416   1.0271
    Number of electrons: 16.000000
    Number of unpaired electrons: n_u =  2.31861, n_u,nl =  2.04847
    NO participation ratio (PR_NO):  2.908972
  
  
  Mulliken Population Analysis
  Atom      Charge (e)              h+              e-           Del q
  --------------------------------------------------------------------
   1 H       -0.158068        0.045457       -0.253685       -0.208229
   2 C        0.270699        0.498421       -0.124351        0.374071
   3 H       -0.115835        0.047184       -0.214585       -0.167400
   4 C        0.275482        0.496884       -0.123174        0.373710
   5 H       -0.153294        0.047368       -0.250076       -0.202707
   6 H       -0.118983        0.045108       -0.214553       -0.169445
  --------------------------------------------------------------------
  Sum:       -0.000000        1.180423       -1.180423       -0.000000
  
  Multipole moment analysis of the density matrix
    Molecular charge:                      0.000000
    Number of electrons:                   16.000000
      Center of electronic charge [Ang]: [ -1.557151,  -0.058849,   0.002356]
    Total nuclear charge:                  16.000000
      Center of nuclear charge [Ang]:    [ -1.560576,  -0.061852,   0.001978]
    Dipole moment [D]:                     0.351291
      Cartesian components [D]:          [ -0.263231,  -0.230803,  -0.029066]
    RMS size of the density [Ang]:         1.275554
      Cartesian components [Ang]:        [  0.856889,   0.839408,   0.433790]
  
  Exciton analysis of the difference density matrix
    <r_h> [Ang]:                  [ -1.556963,  -0.059408,   0.002019]
    <r_e> [Ang]:                  [ -1.510413,  -0.018016,   0.007537]
    |<r_e - r_h>| [Ang]:            0.062535
    Hole size [Ang]:                1.392345
      Cartesian components [Ang]: [  0.815471,   0.806159,   0.789773]
    Electron size [Ang]:            2.118731
      Cartesian components [Ang]: [  1.423684,   1.415492,   0.677145]

  Transition density matrix analysis:
  -----------------------------------
  
  CT numbers (Mulliken)
    omega =     0.9300
    <Phe> =    -0.0137
  
  Exciton analysis of the transition density matrix
    Trans. dipole moment [D]:             0.019919
      Cartesian components [D]:         [ -0.000652,   0.002851,  -0.019703]
    <r_h> [Ang]:                        [ -1.560125,  -0.061640,   0.001591]
    <r_e> [Ang]:                        [ -1.500724,  -0.009924,   0.008598]
    |<r_e - r_h>| [Ang]:                  0.079071
    Hole size [Ang]:                      1.224865
      Cartesian components [Ang]:       [  0.654761,   0.648557,   0.806819]
    Electron size [Ang]:                  2.256756
      Cartesian components [Ang]:       [  1.516116,   1.508937,   0.719338]
    RMS electron-hole separation [Ang]:   2.558288
      Cartesian components [Ang]:       [  1.644094,   1.635354,   1.080468]
    Covariance(r_h, r_e) [Ang^2]:         0.027329
    Correlation coefficient:              0.009887
    Center-of-mass size [Ang]:            1.289176
      Cartesian components [Ang]:       [  0.829928,   0.825126,   0.540705]

  Decomposition into state-averaged NTOs
    H- 0 -> L+ 2: -0.6646 ( 88.3%)
    H- 1 -> L+ 0:  0.1468 (  4.3%)
                   omega =  93.0%
  ----------------------------------------------------------------------------


  Excited state 5 (singlet, A)                                     [converged]
  ----------------------------------------------------------------------------
  Term symbol:  6 (1) A                                     R^2 =  2.73245e-13

  Total energy:                                            -77.9424522068 a.u.
  Excitation energy:                                              10.257744 eV

  Osc. strength:                                                      0.000003
  Trans. dip. moment [a.u.]:           [   0.000184,    0.000634,   -0.003617]
  <i|r^2|0> [a.u.]:                    [   0.087418,   -0.098183,    0.011821]
[...]
    16   -1.523496998357e-03
    17   -1.684725125165e-03
    18   -7.682761987708e-04
    19   -3.249475334132e-03
    20    1.170663875967e-02
    21    9.478740938724e-01
    22   -1.404563469421e-05
    23    1.384791231991e-02
    24    8.072257648089e-04
    25    6.961260845324e-02
    26   -5.115187758074e-02
    27   -1.394821944253e+00
    28    9.995149112632e-02
    29   -9.076727945711e-02
    30   -6.876051216129e-04
    31    3.912377512461e-01
    32   -3.519500776333e-01
    33   -2.496148615408e-03
    34    1.545502336834e-02
    35   -1.460637037791e-03
    36   -1.757773073749e-03
    37   -5.221197191563e-05
    38   -3.060048970287e-03
    39    8.429845626947e-03
    40    9.082283980488e-01
    41    3.335401701908e-04
    42   -1.360771353140e-02
    43   -8.006035080061e-04
    44    1.117410808355e-02
    45    9.512855865670e-01
    46    1.428661540484e-02
    47    3.784418136552e-04
    48    6.983268381154e-04
Sym=X
Ene= 0.232403
Spin=Alpha
Occup=0
     1    2.593202090551e-02
     2    1.231914487031e+00
     3   -1.424329464702e-02
     4   -3.857370913131e-03
     5   -9.007868188712e-04
     6    2.962079307723e-03
     7   -3.819577293598e-03
     8   -5.233916193078e-02
     9   -1.553429341309e-01
    10   -1.600039310585e-01
    11   -1.677025401744e-02
    12   -5.611855586404e-01
    13   -5.440519070465e-01
    14   -5.852106012590e-02
    15    4.972476319805e-04
    16   -7.252091974292e-05
    17   -1.010601887217e-04
    18    1.339354238970e-04
    19   -3.907635627563e-04
    20   -2.734386083350e-02
    21   -1.145398777820e+00
    22   -2.259777583624e-03
    23   -1.330389620085e-02
    24   -8.901280490184e-04
    25   -6.613250743348e-04
    26    2.281949614395e-03
    27   -1.376847613520e-02
    28   -1.507877526064e-01
    29   -1.618741137222e-01
    30   -1.687192978118e-02
    31   -5.417645037076e-01
    32   -5.599824054511e-01
    33   -5.937616271382e-02
    34    4.001546650491e-04
    35   -5.623129470990e-05
    36   -2.610638340287e-05
    37   -4.410114005729e-04
    38   -9.696241889527e-05
    39    2.648477718501e-02
    40    1.188357212269e+00
    41   -2.446412591394e-03
    42   -1.414031431526e-02
    43   -9.631703790731e-04
    44   -2.711593461623e-02
    45   -1.192263118592e+00
    46   -1.346427794598e-02
    47   -3.651172967991e-03
    48   -8.605218292937e-04
Sym=X
Ene= 0.239220
Spin=Alpha
Occup=0
     1   -1.671673593558e-02
     2   -1.069467065664e+00
     3    1.676215868276e-02
     4    9.097851943109e-03
     5    1.358013843696e-03
     6   -8.587350199404e-02
     7    7.925722318067e-02
     8    1.571930032741e+00
     9    5.488178756220e-02
    10   -6.025988744430e-02
    11   -6.236615128041e-04
    12    2.244989993555e-01
    13   -2.321669595006e-01
    14   -1.712416300562e-03
    15   -2.227799532026e-02
    16    2.617479123271e-03
    17    2.886738298436e-03
    18   -8.012653502509e-05
    19    1.270059661159e-02
    20   -1.691006564047e-02
    21   -1.092484422215e+00
    22   -8.648402661243e-03
    23   -1.704708204519e-02
    24   -1.397536553939e-03
    25    8.671514972582e-02
    26   -7.997972968136e-02
    27   -1.597182802520e+00
    28    5.643521519484e-02
    29   -5.965686767219e-02
    30   -1.170459835295e-03
    31    2.240911432505e-01
    32   -2.416848618232e-01
    33   -5.036922695713e-03
    34    2.276269193536e-02
    35   -2.589219077556e-03
    36   -3.042660553784e-03
    37    5.908635338306e-04
    38   -1.285909234025e-02
    39    1.689538578288e-02
    40    1.122786712471e+00
    41   -8.543503594723e-03
    42   -1.785006966522e-02
    43   -1.487155929600e-03
    44    1.532177258851e-02
    45    1.070853450170e+00
    46    1.670440026165e-02
    47    9.316731925603e-03
    48    1.327757409432e-03
Sym=X
Ene= 0.303635
Spin=Alpha
Occup=0
     1   -2.217387653959e-02
     2    1.698047683279e+00
     3   -2.300704390068e-02
     4    2.638836210747e-04
     5   -1.081946983545e-03
     6   -3.470262452354e-04
     7    4.685471339359e-04
     8   -1.738513271671e-02
     9   -1.343307534418e-01
    10   -1.397114024347e-01
    11   -1.460667245593e-02
    12   -1.148923547291e+00
    13   -1.191059813478e+00
    14   -1.250304961223e-01
    15    1.401998139720e-04
    16   -1.728611719164e-03
    17    1.756929432881e-03
    18   -3.249151692874e-02
    19   -2.094845590182e-03
    20    1.810043896462e-02
    21   -1.671294058324e+00
    22    1.782149826741e-03
    23   -2.290847179123e-02
    24   -1.259882350042e-03
    25    2.227528666751e-04
    26    4.003597042040e-04
    27   -2.034518256718e-02
    28    1.349592511399e-01
    29    1.396407742699e-01
    30    1.475280598524e-02
    31    1.142649630638e+00
    32    1.206713649360e+00
    33    1.260695389374e-01
    34    1.656688239219e-04
    35   -1.644550784823e-03
    36    1.901889483418e-03
    37   -3.291818210137e-02
    38   -2.038770714894e-03
    39    2.026350738021e-02
    40   -1.690202768901e+00
    41   -1.851801858408e-03
    42    2.285681345688e-02
    43    1.294980554528e-03
    44   -2.188338035265e-02
    45    1.705350330725e+00
    46    2.322313051377e-02
    47   -3.057024124231e-04
    48    1.066558032578e-03
Sym=X
Ene= 0.463621
Spin=Alpha
Occup=0
     1   -1.068588769212e-01
     2   -7.424419435508e-01
     3   -1.574662418735e-02
     4   -1.081195186096e-02
     5   -1.371950730332e-03
     6    6.097259968575e-02
     7    1.771406533351e-02
     8   -3.689963947444e+00
     9    1.019913525030e-01
    10   -9.914285917269e-02
    11   -8.060436363181e-04
    12    2.470689820735e+00
    13   -2.309050110062e+00
    14   -2.022889554505e-02
    15    5.420137011589e-02
    16   -3.265623585758e-03
    17   -4.668430791995e-03
    18   -2.456648322339e-04
    19    1.959389535901e-02
    20   -1.244591345398e-01
    21   -6.812825217357e-01
    22    7.788455244619e-03
    23    1.696597377835e-02
    24    1.380580917823e-03
    25   -6.073260863676e-02
    26   -1.818822634782e-02
    27    3.680385261784e+00
    28    1.018090656768e-01
    29   -9.704923502082e-02
    30   -1.076177292878e-03
    31    2.466731967250e+00
    32   -2.320961886688e+00
    33   -2.287611801546e-02
    34   -5.422163170126e-02
    35    3.374812038687e-03
    36    4.702693179834e-03
    37    2.623720050592e-04
    38   -1.909589137181e-02
    39    1.223125713399e-01
    40    7.058380282513e-01
    41    8.097432134273e-03
    42    1.713701020941e-02
    43    1.404306275499e-03
    44    1.100897518557e-01
    45    7.253851354735e-01
    46   -1.577767631662e-02
    47   -1.052854652710e-02
    48   -1.385870212592e-03
Sym=X
Ene= 0.576579
Spin=Alpha
Occup=0
     1    2.364683980535e-01
     2    6.937850565148e-02
     3   -1.953059323792e-02
     4    2.554270721889e-02
     5    5.751074276548e-04
     6   -6.046453121132e-03
     7   -1.642517315862e-01
     8   -4.157586937051e-01
     9    2.970635271101e-01
    10   -2.892497558560e-01
    11   -3.257166235784e-03
    12   -7.526391316851e-01
    13    7.244169808270e-01
    14    7.286251644703e-03
    15   -5.174839625808e-03
    16    3.595011175858e-03
    17    3.702192250939e-03
    18   -6.641408420763e-03
    19    5.825545755272e-02
    20    2.516978458138e-01
    21    2.552592541550e-02
    22   -2.747430502988e-02
    23    1.768831519275e-02
    24   -2.649982743357e-04
    25   -5.486053216170e-03
    26   -1.634676773505e-01
    27   -4.439191931979e-01
    28   -2.988755860644e-01
    29    2.889233244963e-01
    30    3.098829014707e-03
    31    7.364745156040e-01
    32   -7.144371697059e-01
    33   -7.842142800689e-03
    34   -4.925871140131e-03
    35    3.589446713746e-03
    36    3.660005286687e-03
    37   -6.281434189951e-03
    38    5.820104473238e-02
    39    2.496224395056e-01
    40    3.389738232393e-02
    41    2.685975987297e-02
    42   -1.690375288973e-02
    43    2.497886007802e-04
    44    2.395316649748e-01
    45    5.544517836815e-02
    46    1.937038578749e-02
    47   -2.508931713465e-02
    48   -5.945462619128e-04
Sym=X
Ene= 0.614877
Spin=Alpha
Occup=0
     1    5.280953247368e-01
     2   -1.999242588642e-01
     3    6.214566549476e-02
     4   -3.655416267018e-02
     5    8.202270507728e-04
     6    1.192271133937e-03
     7    3.341831262174e-03
     8    3.972692654243e-02
     9    4.084742587066e-02
    10    3.346343379698e-02
    11    3.943516518175e-03
    12   -3.329442082808e-01
    13   -2.315329888863e-01
    14   -2.930041483535e-02
    15   -2.494046054666e-03
    16    7.717065262938e-03
    17   -8.266405840370e-03
    18    1.497616064030e-01
    19    4.709274318511e-03
    20   -5.100171428358e-01
    21    2.436940499783e-01
    22   -4.218728103434e-02
    23    5.860563285699e-02
    24    1.445640027901e-03
    25   -9.973413361564e-04
    26    1.569037136459e-03
    27   -6.705519926914e-02
    28    4.050380506443e-02
    29    3.758334770041e-02
    30    4.124997894586e-03
    31   -3.318357275779e-01
    32   -2.541004166045e-01
    33   -3.103558340527e-02
    34    3.991920012790e-03
    35   -7.587314489927e-03
    36    8.271539081212e-03
    37   -1.483633163685e-01
    38   -6.193662618799e-03
    39    5.044627423513e-01
    40   -2.154566679715e-01
    41   -4.166727247490e-02
    42    5.776584478257e-02
    43    1.507075696372e-03
    44   -5.283152205054e-01
    45    1.992718225053e-01
    46    6.238497534897e-02
    47   -3.683220333163e-02
    48    7.075178489683e-04
Sym=X
Ene= 0.687645
Spin=Alpha
Occup=0
     1    3.165866317094e-04
     2   -4.638906691826e-04
     3    1.171587501291e-03
     4    1.279731831563e-03
     5   -2.131818431645e-02
     6    2.497456957335e-05
     7    6.814738094812e-04
     8   -6.165507564628e-04
     9    3.139844918770e-02
    10    3.981644521712e-02
    11   -6.687152133715e-01
    12   -2.834911272942e-02
    13   -3.682320945436e-02
    14    6.129449614105e-01
    15   -1.446558233374e-03
    16    8.331565218814e-02
    17   -7.782551906286e-02
    18   -8.610895775836e-03
    19   -1.242172463536e-03
    20    3.691375081699e-04
    21   -6.867583966735e-04
    22    8.603227017541e-04
    23    9.491141584501e-04
    24   -1.902320273582e-02
    25    3.477587481909e-05
    26    5.659230040707e-04
    27   -1.455065141698e-04
    28    3.182350969078e-02
    29    3.978969227788e-02
    30   -6.683304367193e-01
    31   -2.884955424649e-02
    32   -3.693300760732e-02
    33    6.132695328221e-01
    34    1.062384287343e-03
    35   -8.331472220052e-02
    36    7.810183267931e-02
    37    8.547640240323e-03
    38    1.380938026030e-03
    39    5.594303976762e-04
    40   -2.649739034073e-04
    41    1.050045832127e-03
    42    1.394525563243e-03
    43   -2.078291679387e-02
    44    5.144766299881e-04
    45   -6.128697525207e-05
    46    8.501545487484e-04
    47    1.199024204027e-03
    48   -2.079393034932e-02
Sym=X
Ene= 0.708311
Spin=Alpha
Occup=0
     1   -4.819097078860e-01
     2    1.472644310553e-01
     3   -8.136076259306e-02
     4   -4.369607071577e-02
     5   -6.448552611361e-03
     6   -4.780737924541e-02
     7   -3.146742056507e-01
     8    4.908141431161e-01
     9    1.955102968182e-01
    10   -1.903763023214e-01
    11   -2.832087271649e-03
    12   -6.980504509136e-02
    13    6.873303931340e-02
    14    1.942173929796e-03
    15    1.951771369115e-01
    16   -2.054432601195e-02
    17   -2.404238253681e-02
    18    2.643855347542e-03
    19   -7.746268383121e-02
    20   -4.889086739054e-01
    21    1.654588649980e-01
    22    4.176418733657e-02
    23    8.098595613098e-02
    24    6.769192912224e-03
    25   -4.632289257392e-02
    26   -3.212906243976e-01
    27    4.911164617703e-01
    28   -2.027579179188e-01
    29    1.853915271639e-01
    30    7.371958130051e-04
    31    7.689975160399e-02
    32   -4.377706262432e-02
    33    1.630722984035e-03
    34    1.912561311744e-01
    35   -2.026774665580e-02
    36   -2.373446553659e-02
    37    2.576404009613e-03
    38   -7.726127810160e-02
    39   -4.763797762698e-01
    40    1.278510245258e-01
    41   -4.051025481128e-02
    42   -7.916221525843e-02
    43   -6.687876222082e-03
    44   -4.695031030265e-01
    45    1.496375128992e-01
    46    7.939052014583e-02
    47    4.450187055961e-02
    48    6.372974445842e-03
Sym=X
Ene= 0.785983
Spin=Alpha
Occup=0
     1    5.170166806830e-01
     2   -4.520852827860e-01
     3    1.071683892921e-01
     4    2.618029100245e-02
     5    6.633018931118e-03
     6    9.032830243984e-02
     7   -2.240282302161e-01
     8   -6.689728491072e-01
     9    1.153748919352e-01
    10   -8.815583426193e-02
    11    1.496754309918e-03
    12    3.227614579304e-01
    13   -3.420032591449e-01
    14   -7.764951964786e-03
    15   -2.039028910378e-01
    16    1.729907903569e-02
    17    2.166445218802e-02
    18   -5.309720295739e-03
    19    1.040905581945e-02
    20    5.464094408393e-01
    21   -5.148943719816e-01
    22   -2.140876227014e-02
    23   -1.152135930391e-01
    24   -7.806025040071e-03
    25   -9.173674851334e-02
    26    2.069257006774e-01
    27    6.972418835420e-01
    28    1.037899062115e-01
    29   -9.341617764669e-02
    30   -2.085362198984e-03
    31    3.455583523578e-01
    32   -3.165748913684e-01
    33    9.161911284334e-05
    34    2.093906894366e-01
    35   -1.763334457312e-02
    36   -2.285797643641e-02
    37    5.097813126606e-03
    38   -1.216746479706e-02
    39   -5.475434142396e-01
    40    4.840436147522e-01
    41   -2.163006849686e-02
    42   -1.161162214469e-01
    43   -8.007286717961e-03
    44   -5.315606502832e-01
    45    4.735509769447e-01
    46    1.104149579099e-01
    47    2.760955810168e-02
    48    6.848984004173e-03
Sym=X
Ene= 0.808684
Spin=Alpha
Occup=0
     1   -8.488696446215e-04
     2    1.315170688250e-03
     3   -1.940494287040e-03
     4   -1.986407996356e-03
     5    3.372079259670e-02
     6   -1.587595635793e-04
     7    2.607923051241e-04
     8    4.824315725789e-04
     9   -3.638599331749e-02
    10   -4.484366025590e-02
    11    7.633518903758e-01
    12    5.275278369444e-02
    13    6.742166410436e-02
    14   -1.130248477585e+00
    15   -5.377728379707e-04
    16    6.744510784727e-02
    17   -6.332974468393e-02
    18   -7.025076612690e-03
    19   -9.537113532703e-04
    20   -8.934867115406e-04
    21    8.862520884160e-04
    22   -1.642848483647e-03
    23   -1.668784573526e-03
    24    3.320857495836e-02
    25    1.704635789176e-04
    26   -4.403444613108e-04
    27   -4.211565977918e-04
    28    3.574075688859e-02
    29    4.613033805992e-02
    30   -7.631917274004e-01
    31   -5.405307963001e-02
    32   -6.740714772279e-02
    33    1.130609287581e+00
    34   -1.506798372582e-03
    35    6.755690459751e-02
    36   -6.319683975664e-02
    37   -6.887833506336e-03
    38   -1.134852450816e-03
    39    8.985907899716e-04
    40   -7.547560845753e-04
    41    1.588996816377e-03
    42    2.332579612214e-03
    43   -3.483785711046e-02
    44    8.709098789861e-04
    45   -1.311260765184e-03
    46    1.282947295032e-03
    47    2.003840067106e-03
    48   -3.359315054676e-02
Sym=X
Ene= 0.860740
Spin=Alpha
Occup=0
     1    1.996739302977e-02
     2   -1.097875173185e+00
     3    1.506960300859e-01
     4    5.431631605774e-02
     5    1.041154707493e-02
     6    2.504329354543e-03
     7    5.989334117879e-03
     8    2.105847268887e-05
     9   -4.037391630488e-01
    10   -4.416727116069e-01
    11   -4.506419882493e-02
    12    9.463278419791e-01
    13    1.016377898677e+00
    14    1.045259283497e-01
    15   -7.925343084058e-03
    16    1.218875886814e-02
    17   -1.282127443903e-02
    18    2.349124763248e-01
    19    6.598617086346e-03
    20   -5.508139111941e-03
    21    1.106393963781e+00
    22    5.005773244168e-02
    23    1.505239454498e-01
    24    1.122625741019e-02
    25   -1.527820200556e-03
    26    1.382125453633e-02
    27   -1.488648438724e-02
    28   -3.949065775631e-01
    29   -4.307514957965e-01
    30   -4.462738816690e-02
    31    9.279808687531e-01
    32    1.001652373369e+00
    33    1.042240990030e-01
    34    3.363594380923e-03
    35   -1.175371030760e-02
    36    1.321203533721e-02
    37   -2.335658756598e-01
    38   -7.557319343269e-03
    39    2.338815695731e-03
    40   -1.092719696052e+00
    41    4.937906190218e-02
    42    1.478425288702e-01
    43    1.118521548118e-02
    44   -1.214230976378e-02
    45    1.086937669530e+00
    46    1.476289421226e-01
    47    5.563462312505e-02
    48    1.028911516446e-02
Sym=X
Ene= 0.936055
Spin=Alpha
Occup=0
     1   -1.158035466917e-01
     2    1.229271101606e+00
     3   -1.757123062376e-01
     4    1.127871184638e-02
     5   -7.662960705692e-03
     6   -2.279942884542e-03
     7   -3.212685227772e-02
     8    1.750879029610e-02
     9    4.511667920291e-01
    10    5.145319517954e-01
    11    5.185417561932e-02
    12   -1.406486319258e+00
    13   -1.565169524805e+00
    14   -1.593573023990e-01
    15    4.684734215561e-03
    16   -5.397667607470e-03
    17    6.735213816571e-03
    18   -1.166581374289e-01
    19    1.006067277339e-02
    20    1.180493580889e-01
    21   -1.295711743322e+00
    22    8.527286010389e-03
    23   -1.845311520160e-01
    24   -1.047422932207e-02
    25    1.364282227196e-03
    26   -1.950027804883e-02
    27    5.037712667303e-02
    28   -4.883204245735e-01
    29   -4.921764964791e-01
    30   -5.248584462801e-02
    31    1.505831054926e+00
    32    1.512086862399e+00
    33    1.614859190091e-01
    34   -4.361167397017e-03
    35   -5.865997205488e-03
    36    7.591656897282e-03
    37   -1.229877174198e-01
    38   -9.385773446038e-03
    39    1.228546928469e-01
    40   -1.281806571449e+00
    41   -1.437219952615e-02
    42    1.854788246290e-01
    43    1.050706750973e-02
    44   -1.137558586258e-01
    45    1.300256348083e+00
    46    1.819943503687e-01
    47   -4.392678340295e-03
    48    8.264883905945e-03
Sym=X
Ene= 0.976041
Spin=Alpha
Occup=0
     1   -5.793091839246e-02
     2    9.857155441988e-01
     3   -9.877186909600e-02
     4   -9.831826188172e-02
     5   -1.064923142089e-02
     6    2.772362791477e-02
     7    2.680333092333e-01
     8    4.649222725659e-01
     9    4.994644739097e-01
    10   -4.370796500722e-01
    11   -1.945104652365e-03
    12   -1.548831269379e+00
    13    1.322686591268e+00
    14    4.269052237875e-03
    15   -5.779585285474e-02
    16   -1.299405653297e-02
    17   -8.619803231833e-03
    18    6.633034904381e-03
    19   -3.003365745376e-01
    20   -5.219319433941e-02
    21    8.437650793662e-01
    22    9.593831311233e-02
    23    8.450628125937e-02
    24    9.427663342033e-03
    25   -2.742546868900e-02
    26   -2.459826299155e-01
    27   -5.023471537562e-01
    28    4.667074600196e-01
    29   -4.637972097676e-01
    30   -6.012858589158e-03
    31   -1.421031142607e+00
    32    1.437629949601e+00
    33    1.977175584556e-02
    34    5.669173240434e-02
    35    1.246138569797e-02
    36    9.251771930604e-03
    37   -1.604316242865e-02
    38    2.985007355052e-01
    39    4.870944168941e-02
    40   -9.306580330719e-01
    41    9.470286038940e-02
    42    9.488366452052e-02
    43    1.019812805466e-02
    44    5.916809101463e-02
    45   -8.722210315922e-01
    46   -8.392252078021e-02
    47   -9.782375888868e-02
    48   -9.735203552895e-03
[5D]

======= END OF MOLDEN-FORMATTED INPUT FILE =======


        *************************************************************
        *                                                           *
        *  Thank you very much for using Q-Chem.  Have a nice day.  *
        *                                                           *
        *************************************************************


