                  Welcome to Q-Chem
     A Quantum Leap Into The Future Of Chemistry


 Q-Chem 5.4 (devel), Q-Chem, Inc., Pleasanton, CA (2021)

 E. Epifanovsky,  A. T. B. Gilbert,  Xintian Feng,  Joonho Lee,  Yuezhi Mao,  
 N. Mardirossian,  P. Pokhilko,  A. White,  M. Wormit,  M. P. Coons,  
 A. L. Dempwolff,  Zhengting Gan,  D. Hait,  P. R. Horn,  L. D. Jacobson,  
 I. Kaliman,  J. Kussmann,  A. W. Lange,  Ka Un Lao,  D. S. Levine,  Jie Liu,  
 S. C. McKenzie,  A. F. Morrison,  K. Nanda,  F. Plasser,  D. R. Rehn,  
 M. L. Vidal,  Zhi-Qiang You,  Ying Zhu,  B. Alam,  B. Albrecht,  
 A. Aldossary,  E. Alguire,  J. H. Andersen,  D. Barton,  K. Begam,  A. Behn,  
 Y. A. Bernard,  E. J. Berquist,  H. Burton,  A. Carreras,  K. Carter-Fenk,  
 R. Chakraborty,  A. D. Chien,  K. D. Closser,  V. Cofer-Shabica,  
 S. Dasgupta,  Jia Deng,  M. de Wergifosse,  M. Diedenhofen,  Hainam Do,  
 S. Ehlert,  Po-Tung Fang,  S. Fatehi,  Qingguo Feng,  T. Friedhoff,  
 J. Gayvert,  Qinghui Ge,  G. Gidofalvi,  M. Goldey,  J. Gomes,  
 C. Gonzalez-Espinoza,  S. Gulania,  A. Gunina,  M. W. D. Hanson-Heine,  
 P. H. P. Harbach,  A. W. Hauser,  M. F. Herbst,  M. Hernandez Vera,  
 M. Hodecker,  Z. C. Holden,  S. Houck,  Xunkun Huang,  Kerwin Hui,  
 B. C. Huynh,  M. Ivanov,  Hyunjun Ji,  Hanjie Jiang,  B. Kaduk,  S. Kaehler,  
 K. Khistyaev,  Jaehoon Kim,  P. Klunzinger,  Z. Koczor-Benda,  
 Joong Hoon Koh,  D. Kosenkov,  L. Koulias,  T. Kowalczyk,  C. M. Krauter,  
 K. Kue,  A. Kunitsa,  T. Kus,  A. Landau,  K. V. Lawler,  D. Lefrancois,  
 S. Lehtola,  Rain Li,  Yi-Pei Li,  Jiashu Liang,  M. Liebenthal,  
 Hung-Hsuan Lin,  You-Sheng Lin,  Fenglai Liu,  Kuan-Yu Liu,  
 M. Loipersberger,  A. Luenser,  A. Manjanath,  P. Manohar,  E. Mansoor,  
 S. F. Manzer,  Shan-Ping Mao,  A. V. Marenich,  T. Markovich,  S. Mason,  
 S. A. Maurer,  P. F. McLaughlin,  M. F. S. J. Menger,  J.-M. Mewes,  
 S. A. Mewes,  P. Morgante,  J. W. Mullinax,  K. J. Oosterbaan,  G. Paran,  
 Alexander C. Paul,  Suranjan K. Paul,  F. Pavosevic,  Zheng Pei,  S. Prager,  
 E. I. Proynov,  E. Ramos,  B. Rana,  A. E. Rask,  A. Rettig,  R. M. Richard,  
 F. Rob,  E. Rossomme,  T. Scheele,  M. Scheurer,  M. Schneider,  
 N. Sergueev,  S. M. Sharada,  W. Skomorowski,  D. W. Small,  C. J. Stein,  
 Yu-Chuan Su,  E. J. Sundstrom,  Zhen Tao,  J. Thirman,  T. Tsuchimochi,  
 N. M. Tubman,  S. P. Veccham,  O. Vydrov,  J. Wenzel,  J. Witte,  A. Yamada,  
 Kun Yao,  S. Yeganeh,  S. R. Yost,  A. Zech,  Igor Ying Zhang,  Xing Zhang,  
 Yu Zhang,  D. Zuev,  A. Aspuru-Guzik,  A. T. Bell,  N. A. Besley,  
 K. B. Bravaya,  B. R. Brooks,  D. Casanova,  Jeng-Da Chai,  S. Coriani,  
 C. J. Cramer,  A. E. DePrince, III,  R. A. DiStasio Jr.,  A. Dreuw,  
 B. D. Dunietz,  T. R. Furlani,  W. A. Goddard III,  S. Grimme,  
 S. Hammes-Schiffer,  T. Head-Gordon,  W. J. Hehre,  Chao-Ping Hsu,  
 T.-C. Jagau,  Yousung Jung,  A. Klamt,  Jing Kong,  D. S. Lambrecht,  
 WanZhen Liang,  N. J. Mayhall,  C. W. McCurdy,  J. B. Neaton,  
 C. Ochsenfeld,  J. A. Parkhill,  R. Peverati,  V. A. Rassolov,  Yihan Shao,  
 L. V. Slipchenko,  T. Stauch,  R. P. Steele,  J. E. Subotnik,  
 A. J. W. Thom,  A. Tkatchenko,  D. G. Truhlar,  T. Van Voorhis,  
 T. A. Wesolowski,  K. B. Whaley,  H. L. Woodcock III,  P. M. Zimmerman,  
 S. Faraji,  P. M. W. Gill,  M. Head-Gordon,  J. M. Herbert,  A. I. Krylov

 Additional authors for Version 5.4.1: 
 S. Kotaru,  Shaozhi Li,  Xiangyuan Li,  F. Matz,  A. Molle,  Haisheng Ren,  
 Yingli Su,  Hung-Yi Tsai,  C. Utku,  Fang Wang

 Contributors to earlier versions of Q-Chem not listed above: 
 R. D. Adamson,  B. Austin,  R. Baer,  J. Baker,  G. J. O. Beran,  
 K. Brandhorst,  S. T. Brown,  E. F. C. Byrd,  A. K. Chakraborty,  
 G. K. L. Chan,  Chun-Min Chang,  Yunqing Chen,  C.-L. Cheng,  
 Siu Hung Chien,  D. M. Chipman,  D. L. Crittenden,  H. Dachsel,  
 R. J. Doerksen,  A. D. Dutoi,  R. G. Edgar,  J. Fosso-Tande,  
 L. Fusti-Molnar,  D. Ghosh,  A. Ghysels,  A. Golubeva-Zadorozhnaya,  
 J. Gonthier,  M. S. Gordon,  S. R. Gwaltney,  G. Hawkins,  J. E. Herr,  
 A. Heyden,  S. Hirata,  E. G. Hohenstein,  G. Kedziora,  F. J. Keil,  
 C. Kelley,  Jihan Kim,  R. A. King,  R. Z. Khaliullin,  P. P. Korambath,  
 W. Kurlancheek,  A. Laurent,  A. M. Lee,  M. S. Lee,  S. V. Levchenko,  
 Ching Yeh Lin,  D. Liotard,  E. Livshits,  R. C. Lochan,  I. Lotan,  
 L. A. Martinez-Martinez,  P. E. Maslen,  N. Nair,  D. P. O'Neill,  
 D. Neuhauser,  E. Neuscamman,  C. M. Oana,  R. Olivares-Amaya,  R. Olson,  
 T. M. Perrine,  B. Peters,  P. A. Pieniazek,  A. Prociuk,  Y. M. Rhee,  
 J. Ritchie,  M. A. Rohrdanz,  E. Rosta,  N. J. Russ,  H. F. Schaefer III,  
 M. W. Schmidt,  N. E. Schultz,  S. Sharma,  N. Shenvi,  C. D. Sherrill,  
 A. C. Simmonett,  A. Sodt,  T. Stein,  D. Stuck,  K. S. Thanthiriwatte,  
 V. Vanovschi,  L. Vogt,  Tao Wang,  A. Warshel,  M. A. Watson,  
 C. F. Williams,  Q. Wu,  X. Xu,  Jun Yang,  W. Zhang,  Yan Zhao

 Please cite Q-Chem as follows:
 Y. Shao et al., Mol. Phys. 113, 184-215 (2015)
 DOI: 10.1080/00268976.2014.952696

 Q-Chem 5.4.1 for Intel X86 EM64T Linux

 Parts of Q-Chem use Armadillo 9.800.1 (Horizon Scraper).
 http://arma.sourceforge.net/

 Q-Chem begins on Wed Mar 15 17:59:17 2023  

 Host: cpu121.yggdrasil
0

     Scratch files written to /srv/beegfs/scratch/users/f/fum/qchem95932//
 Processing $rem in /home/share/wesolowski/qc5.aug2021.FDE/config/preferences:
 Processing $rem in /home/fum/.qchemrc:

 Checking the input file for inconsistencies... 	...done.

--------------------------------------------------------------
User input:
--------------------------------------------------------------
$comment
generated from CCJob.Templates
$end

$rem
sym_ignore = true
method = adc(2)
ee_states = 10
basis = cc-pVDZ
mem_static = 1024
mem_total = 40000
adc_davidson_maxiter = 900
adc_davidson_conv = 6
adc_print = 3
adc_prop_es = true
adc_prop_es2es = true
adc_prop_tpa = true
molden_format = True
state_analysis = true
print_orbitals = 15
gen_scfman = false
fde_export_density = true
fde_details = 3
$end

$molecule
0 1
H -0.0348278765 -0.2442097827 0.0636489606
C -1.0765972949 -0.5242748755 -0.0023551776
H -1.313264467 -1.5767591607 -0.0757276926
C -2.043634118 0.3926884087 0.0061254933
H -1.7737616575 1.4459188338 0.0804456828
H -3.085977293 0.114931858 -0.0593381042                     
$end
--------------------------------------------------------------
 ----------------------------------------------------------------
             Standard Nuclear Orientation (Angstroms)
    I     Atom           X                Y                Z
 ----------------------------------------------------------------
    1      H      -0.0348278765    -0.2442097827     0.0636489606
    2      C      -1.0765972949    -0.5242748755    -0.0023551776
    3      H      -1.3132644670    -1.5767591607    -0.0757276926
    4      C      -2.0436341180     0.3926884087     0.0061254933
    5      H      -1.7737616575     1.4459188338     0.0804456828
    6      H      -3.0859772930     0.1149318580    -0.0593381042
 ----------------------------------------------------------------
 Nuclear Repulsion Energy =          33.40734632 hartrees
 There are        8 alpha and        8 beta electrons
 Requested basis set is cc-pVDZ
 There are 24 shells and 48 basis functions
 Total memory of 40000 MB is distributed as follows: 
   MEM_STATIC is set to 1024 MB
   QALLOC/CCMAN JOB total memory use is  38976 MB
 Warning: actual memory use might exceed 40000 MB

 Total QAlloc Memory Limit  40000 MB
 Mega-Array Size      1001 MB
 MEM_STATIC part      1024 MB

                       Distance Matrix (Angstroms)
             H (  1)   C (  2)   H (  3)   C (  4)   H (  5)
   C (  2)  1.080776
   H (  3)  1.851895  1.081258
   C (  4)  2.108139  1.332687  2.102109
   H (  5)  2.425017  2.091544  3.061540  1.089793
   H (  6)  3.074674  2.109370  2.450428  1.080700  1.874293

 A cutoff of  1.0D-11 yielded    300 shell pairs
 There are      1220 function pairs (      1329 Cartesian)
 Smallest overlap matrix eigenvalue = 4.80E-03

 Scale SEOQF with 1.000000e-01/1.000000e-01/1.000000e+00

 Standard Electronic Orientation quadrupole field applied
 Nucleus-field energy     =     0.0000000022 hartrees
 Guess from superposition of atomic densities
 Warning:  Energy on first SCF cycle will be non-variational
 SAD guess density has 16.000000 electrons
 A restricted Hartree-Fock SCF calculation will be
 performed using Pulay DIIS extrapolation
 SCF converges when DIIS error is below 1.0E-08
 using 10 threads for integral computing
 -------------------------------------------------------
 OpenMP Integral computing Module                
 Release: version 1.0, May 2013, Q-Chem Inc. Pittsburgh 
 -------------------------------------------------------
 ---------------------------------------
  Cycle       Energy         DIIS Error
 ---------------------------------------
    1     -78.4337399942      1.01E-01
    2     -78.0174334579      7.22E-03
    3     -78.0380598600      1.85E-03
    4     -78.0395440141      5.77E-04
    5     -78.0396669835      5.90E-05
    6     -78.0396688716      1.24E-05
    7     -78.0396689484      5.10E-06
    8     -78.0396689580      9.74E-07
    9     -78.0396689587      1.49E-07
   10     -78.0396689587      4.78E-08
   11     -78.0396689587      8.01E-09 Convergence criterion met
 ---------------------------------------
 SCF time:  CPU 2.08 s  wall 3.20 s
 SCF   energy in the final basis set = -78.03966896
 Total energy in the final basis set = -78.03966896
Exporting Density Matrix to file 'Densmat_SCF.txt'.
Export successful
================================================================================
|                                                                              |
|                                 A D C  M A N                                 |
|                                                                              |
 ------------------------------------------------------------------------------ 
|                                                                              |
| Components:                                                                  |
|                                                                              |
| - libvmm - 1.3-trunk                                                         |
|   Authors:                                                                   |
|   Evgeny Epifanovsky, Ilya Kaliman                                           |
|                                                                              |
| - libtensor - 2.5-trunk                                                      |
|   Authors:                                                                   |
|   Evgeny Epifanovsky, Michael Wormit, Dmitry Zuev, Sam Manzer,               |
|   Ilya Kaliman                                                               |
|                                                                              |
| - libwfa - 1.1-trunk                                                         |
|   Authors:                                                                   |
|   Felix Plasser, Stefanie Mewes (Baeppler), Benjamin Thomitzni,              |
|   Michael Wormit, Feng Chen, Anna I. Krylov, Pavel Pokhilko                  |
|                                                                              |
| - libadc - 1.1-trunk                                                         |
|   Authors:                                                                   |
|   Michael Wormit, Adrian L. Dempwolff, Philipp H. P. Harbach,                |
|   Caroline Krauter, Dirk Rehn, Matthias Schneider, Jan Wenzel                |
|                                                                              |
| - adcman - 2.6-trunk                                                         |
|   Authors:                                                                   |
|   Michael Wormit, Adrian L. Dempwolff, Philipp H. P. Harbach,                |
|   Caroline Krauter, Daniel Lefrancois, Jan-Michael Mewes, Dirk Rehn,         |
|   Matthias Schneider, Jan Wenzel, Andreas Dreuw                              |
|                                                                              |
| Authors of earlier versions of ADCMAN:                                       |
| Andreas Dreuw, Jan Hendrik Starcke, Dirk Rehn, Michael Wormit                |
|                                                                              |
================================================================================

 Created directory /srv/beegfs/scratch/users/f/fum/qchem95932/plots
  Import QC data ...  CPU 0.00 s  wall 0.01 s

 Alpha MOs, Restricted
 -- Occupied --                  
-11.235 -11.233  -1.032  -0.787  -0.642  -0.579  -0.505  -0.374
  1 A     2 A     3 A     4 A     5 A     6 A     7 A     8 A                  
 -- Virtual --                   
  0.169   0.203   0.232   0.240   0.303   0.460   0.576   0.619
  9 A    10 A    11 A    12 A    13 A    14 A    15 A    16 A                  
  0.689   0.706   0.784   0.808   0.862   0.935   0.971   1.008
 17 A    18 A    19 A    20 A    21 A    22 A    23 A    24 A                  
  1.128   1.235   1.265   1.268   1.292   1.600   1.707   1.743
 25 A    26 A    27 A    28 A    29 A    30 A    31 A    32 A                  
  1.820   1.864   1.868   1.929   1.971   1.981   2.213   2.257
 33 A    34 A    35 A    36 A    37 A    38 A    39 A    40 A                  
  2.379   2.454   2.491   2.617   2.722   2.813   3.146   3.386
 41 A    42 A    43 A    44 A    45 A    46 A    47 A    48 A                  

 Beta MOs, Restricted
 -- Occupied --                  
-11.235 -11.233  -1.032  -0.787  -0.642  -0.579  -0.505  -0.374
  1 A     2 A     3 A     4 A     5 A     6 A     7 A     8 A                  
 -- Virtual --                   
  0.169   0.203   0.232   0.240   0.303   0.460   0.576   0.619
  9 A    10 A    11 A    12 A    13 A    14 A    15 A    16 A                  
  0.689   0.706   0.784   0.808   0.862   0.935   0.971   1.008
 17 A    18 A    19 A    20 A    21 A    22 A    23 A    24 A                  
  1.128   1.235   1.265   1.268   1.292   1.600   1.707   1.743
 25 A    26 A    27 A    28 A    29 A    30 A    31 A    32 A                  
  1.820   1.864   1.868   1.929   1.971   1.981   2.213   2.257
 33 A    34 A    35 A    36 A    37 A    38 A    39 A    40 A                  
  2.379   2.454   2.491   2.617   2.722   2.813   3.146   3.386
 41 A    42 A    43 A    44 A    45 A    46 A    47 A    48 A                  
  Import AO data ...  CPU 0.00 s  wall 0.07 s
  Using point group: C1
  Irreducible representations in point group: A
  Molecular orbitals: 
  Occupied MOs:
  Block   0:   1 (  A) A   2 (  A) A   3 (  A) A   4 (  A) A   5 (  A) A
                  -11.24      -11.23      -1.032     -0.7875     -0.6424
               6 (  A) A   7 (  A) A   8 (  A) A
                 -0.5792     -0.5049      -0.374
  Block   1:   1 (  A) B   2 (  A) B   3 (  A) B   4 (  A) B   5 (  A) B
                  -11.24      -11.23      -1.032     -0.7875     -0.6424
               6 (  A) B   7 (  A) B   8 (  A) B
                 -0.5792     -0.5049      -0.374
  Virtual MOs:
  Block   0:   9 (  A) A  10 (  A) A  11 (  A) A  12 (  A) A  13 (  A) A
                  0.1686       0.203      0.2322        0.24       0.303
              14 (  A) A  15 (  A) A  16 (  A) A  17 (  A) A  18 (  A) A
                  0.4597      0.5755      0.6194      0.6892      0.7063
              19 (  A) A  20 (  A) A  21 (  A) A  22 (  A) A
                  0.7842       0.808      0.8621      0.9352
  Block   1:  23 (  A) A  24 (  A) A  25 (  A) A  26 (  A) A  27 (  A) A
                   0.971       1.008       1.128       1.235       1.265
              28 (  A) A  29 (  A) A  30 (  A) A  31 (  A) A  32 (  A) A
                   1.268       1.292         1.6       1.707       1.743
              33 (  A) A  34 (  A) A  35 (  A) A  36 (  A) A
                    1.82       1.864       1.868       1.929
  Block   2:  37 (  A) A  38 (  A) A  39 (  A) A  40 (  A) A  41 (  A) A
                   1.971       1.981       2.213       2.257       2.379
              42 (  A) A  43 (  A) A  44 (  A) A  45 (  A) A  46 (  A) A
                   2.454       2.491       2.617       2.722       2.813
              47 (  A) A  48 (  A) A
                   3.146       3.386
  Block   3:   9 (  A) B  10 (  A) B  11 (  A) B  12 (  A) B  13 (  A) B
                  0.1686       0.203      0.2322        0.24       0.303
              14 (  A) B  15 (  A) B  16 (  A) B  17 (  A) B  18 (  A) B
                  0.4597      0.5755      0.6194      0.6892      0.7063
              19 (  A) B  20 (  A) B  21 (  A) B  22 (  A) B
                  0.7842       0.808      0.8621      0.9352
  Block   4:  23 (  A) B  24 (  A) B  25 (  A) B  26 (  A) B  27 (  A) B
                   0.971       1.008       1.128       1.235       1.265
              28 (  A) B  29 (  A) B  30 (  A) B  31 (  A) B  32 (  A) B
                   1.268       1.292         1.6       1.707       1.743
              33 (  A) B  34 (  A) B  35 (  A) B  36 (  A) B
                    1.82       1.864       1.868       1.929
  Block   5:  37 (  A) B  38 (  A) B  39 (  A) B  40 (  A) B  41 (  A) B
                   1.971       1.981       2.213       2.257       2.379
              42 (  A) B  43 (  A) B  44 (  A) B  45 (  A) B  46 (  A) B
                   2.454       2.491       2.617       2.722       2.813
              47 (  A) B  48 (  A) B
                   3.146       3.386
  Import MO data ...  CPU 0.01 s  wall 0.01 s
  Import HF data ...  CPU 0.07 s  wall 0.03 s
  Import 2e integrals ...  CPU 0.91 s  wall 0.14 s

--------------------------------------------------------------------------------
                                   HF Summary                                   
--------------------------------------------------------------------------------
  Energy:                                                  -78.0396689587 a.u.
  Dip. moment [a.u.]:                  [   0.002236,   -0.003411,   -0.000158]
  Total dipole [Debye]:                                               0.010375
  <r^2> [a.u.]:                        [ 174.808393,   34.958264,   11.636089]
  Total <r^2> [a.u.]:                                               221.402747
--------------------------------------------------------------------------------
  HF properties ...  CPU 0.01 s  wall 0.00 s
  MP(1) calculation ...  CPU 0.01 s  wall 0.00 s
  N^6 prerequesite intermediates ...  CPU 0.45 s  wall 0.08 s
  Difference density matrix of state mp2_gs printed to ASCII file 'State_mp2_gs_Difference.txt'
Exporting MP density matrix to file 'Densmat_MP.txt'.
Export successful
  Total density matrix of state mp2_gs printed to ASCII file 'State_mp2_gs_Total.txt'
Exporting MP density matrix to file 'Densmat_MP.txt'.
Export successful

--------------------------------------------------------------------------------
                                 MP(2) Summary                                  
--------------------------------------------------------------------------------
  MP energy contribution:                                   -0.2798775108 a.u.
  Total energy:                                            -78.3195464695 a.u.
  Dip. moment [a.u.]:                  [   0.002446,   -0.002762,   -0.000109]
  Total dipole [Debye]:                                               0.009381
  <r^2> [a.u.]:                        [ 174.857978,   34.996585,   11.467174]
  Total <r^2> [a.u.]:                                               221.321737

  Density matrix analysis:
  ------------------------
  NOs
    Occupation of frontier NOs:
       0.0453   1.9382
    Number of electrons: 16.000000
    Number of unpaired electrons: n_u =  0.40406, n_u,nl =  0.04519
    NO participation ratio (PR_NO): 13.865843
  
  
  Mulliken Population Analysis
  Atom      Charge (e)              h+              e-           Del q
  --------------------------------------------------------------------
   1 H        0.050548        0.014058       -0.011201        0.002858
   2 C       -0.101563        0.092774       -0.098970       -0.006196
   3 H        0.049751        0.014134       -0.011190        0.002944
   4 C       -0.103165        0.094125       -0.098983       -0.004858
   5 H        0.052313        0.013905       -0.011233        0.002672
   6 H        0.052115        0.013842       -0.011262        0.002580
  --------------------------------------------------------------------
  Sum:       -0.000000        0.242840       -0.242840        0.000000
  
  Multipole moment analysis of the density matrix
    Molecular charge:                      -0.000000
    Number of electrons:                   16.000000
      Center of electronic charge [Ang]: [ -1.558157,  -0.065511,   0.001982]
    Total nuclear charge:                  16.000000
      Center of nuclear charge [Ang]:    [ -1.558076,  -0.065602,   0.001978]
    Dipole moment [D]:                     0.009381
      Cartesian components [D]:          [  0.006218,  -0.007019,  -0.000278]
    RMS size of the density [Ang]:         1.200573
      Cartesian components [Ang]:        [  0.795281,   0.779879,   0.447987]
  
  Exciton analysis of the difference density matrix
    <r_h> [Ang]:                  [ -1.558719,  -0.063429,   0.002088]
    <r_e> [Ang]:                  [ -1.559177,  -0.064845,   0.001981]
    |<r_e - r_h>| [Ang]:            0.001492
    Hole size [Ang]:                1.393892
      Cartesian components [Ang]: [  0.845137,   0.835797,   0.728094]
    Electron size [Ang]:            1.359378
      Cartesian components [Ang]: [  0.877501,   0.861722,   0.579084]
--------------------------------------------------------------------------------
  MP(2) calculation ...  CPU 0.11 s  wall 0.23 s
  Start ADC(2)-s ...  CPU 0.01 s  wall 0.00 s
  ADC(2) intermediates ...  CPU 0.02 s  wall 0.01 s
  Starting Davidson for singlet states of irrep A ... 
--------------------------------------------------------------------------------
   It NVec Conv  Avg. Norm  Max. Norm  Conv. states           Remark
--------------------------------------------------------------------------------
        10    0  1.330e-01  4.673e-01  0.4107 n n n n n n n n Guess.
    1   20    0  2.381e-02  1.154e-01  0.3264 n n n n n n n n 
    2   30    0  6.378e-03  3.600e-02  0.3216 n n n n n n n n 
    3   40    0  2.274e-03  1.738e-02  0.3212 n n n n n n n n 
    4   50    0  7.050e-04  5.713e-03  0.3212 n n n n n n n n 
    5   20    0  3.807e-04  3.319e-03  0.3212 n n n n n n n n Subspace collapsed.
    6   30    0  4.725e-04  4.655e-03  0.3212 n n n n n n n n 
    7   40    0  3.994e-04  3.922e-03  0.3212 n n n n n n n n 
    8   50    0  3.854e-04  3.841e-03  0.3212 n n n n n n n n 
    9   20    2  3.130e-04  3.125e-03  0.3212 n y n y n n n n Subspace collapsed.
   10   30    5  2.086e-04  2.080e-03  0.3212 n y y y y y n n 
   11   40    5  1.859e-04  1.857e-03  0.3212 n y y y y y n n 
   12   50    5  2.643e-04  2.642e-03  0.3212 n y y y y y n n 
   13   20    6  1.171e-04  1.171e-03  0.3212 y y y y y y n n Subspace collapsed.
   14   30    6  1.125e-04  1.125e-03  0.3212 y y y y y y n n 
   15   40    6  1.002e-04  1.002e-03  0.3212 y y y y y y n n 
   16   50    7  1.332e-04  1.332e-03  0.3212 y y y y y y n y 
   17   20    7  5.775e-05  5.775e-04  0.3212 y y y y y y n y Subspace collapsed.
   18   30    7  6.397e-05  6.397e-04  0.3212 y y y y y y n y 
   19   40    9  4.421e-05  4.421e-04  0.3212 y y y y y y y y 
   20   50    9  5.352e-05  5.352e-04  0.3212 y y y y y y y y 
   21   20    9  3.141e-05  3.141e-04  0.3212 y y y y y y y y Subspace collapsed.
   22   30    9  3.494e-05  3.494e-04  0.3212 y y y y y y y y 
   23   31    9  3.491e-05  3.491e-04  0.3212 y y y y y y y y 
   24   38    9  3.164e-05  3.164e-04  0.3212 y y y y y y y y 
   25   45    9  3.676e-05  3.676e-04  0.3212 y y y y y y y y 
   26   50    9  2.878e-05  2.878e-04  0.3212 y y y y y y y y 
   27   17    9  1.484e-05  1.484e-04  0.3212 y y y y y y y y Subspace collapsed.
   28   21    9  9.814e-06  9.814e-05  0.3212 y y y y y y y y 
   29   25    9  6.360e-06  6.360e-05  0.3212 y y y y y y y y 
   30   29    9  6.106e-06  6.106e-05  0.3212 y y y y y y y y 
   31   33    9  4.754e-06  4.754e-05  0.3212 y y y y y y y y 
   32   37    9  5.179e-06  5.179e-05  0.3212 y y y y y y y y 
   33   41    9  4.098e-06  4.098e-05  0.3212 y y y y y y y y 
   34   45    9  2.000e-06  2.000e-05  0.3212 y y y y y y y y 
   35   49    9  1.466e-06  1.466e-05  0.3212 y y y y y y y y 
   36   50    9  1.234e-06  1.234e-05  0.3212 y y y y y y y y 
   37   14    9  6.023e-07  6.023e-06  0.3212 y y y y y y y y Subspace collapsed.
   38   18    9  4.498e-07  4.498e-06  0.3212 y y y y y y y y 
   39   22    9  2.262e-07  2.262e-06  0.3212 y y y y y y y y 
   40   26    9  1.339e-07  1.339e-06  0.3212 y y y y y y y y 
   41   30   10  8.046e-08  8.046e-07  0.3212 y y y y y y y y Converged.
--------------------------------------------------------------------------------
  Davidson Summary: 
 ------------------------------------------------------------
  State  0: excitation energy =   0.3212 a.u.   (converged)
  State  1: excitation energy =   0.3333 a.u.   (converged)
  State  2: excitation energy =   0.3357 a.u.   (converged)
  State  3: excitation energy =   0.3609 a.u.   (converged)
  State  4: excitation energy =   0.3743 a.u.   (converged)
  State  5: excitation energy =   0.3864 a.u.   (converged)
  State  6: excitation energy =   0.4239 a.u.   (converged)
  State  7: excitation energy =   0.4477 a.u.   (converged)
  State  8: excitation energy =   0.4570 a.u.   (converged)
  State  9: excitation energy =   0.4644 a.u.   (converged)
 ------------------------------------------------------------

  Singlet states of irrep A ...  CPU 117.41 s  wall 29.55 s
  TDMs ...  CPU 0.59 s  wall 0.23 s
  SDMs ...  CPU 1.38 s  wall 0.45 s
  Starting TPA DIIS iterations ... 
------------------------------------ 
   It     Res. Norm  Remark
------------------------------------
                       Guess.
    1     4.405e+00  
    2     5.832e+00  
    3     1.071e+00  
    4     2.553e-01  
    5     6.590e-02  
    6     2.648e-02  
    7     8.167e-03  
    8     1.428e-03  
    9     5.329e-04  
   10     8.909e-05  
   11     2.795e-05  
   12     4.322e-06  
   13     1.401e-06  
   14     4.455e-07  Converged.
   ... Converged in 14 steps (norm: 4.45542e-07)
------------------------------------
  Starting TPA DIIS iterations ... 
------------------------------------ 
   It     Res. Norm  Remark
------------------------------------
                       Guess.
    1     4.169e+00  
    2     5.523e+00  
    3     1.034e+00  
    4     2.584e-01  
    5     6.553e-02  
    6     2.685e-02  
    7     8.120e-03  
    8     1.475e-03  
    9     5.417e-04  
   10     9.085e-05  
   11     2.882e-05  
   12     4.359e-06  
   13     1.433e-06  
   14     4.295e-07  Converged.
   ... Converged in 14 steps (norm: 4.2954e-07)
------------------------------------
  Starting TPA DIIS iterations ... 
------------------------------------ 
   It     Res. Norm  Remark
------------------------------------
                       Guess.
    1     6.931e-01  
    2     4.852e-01  
    3     1.701e-01  
    4     6.159e-02  
    5     1.859e-02  
    6     6.723e-03  
    7     1.079e-03  
    8     4.551e-04  
    9     1.332e-04  
   10     2.373e-05  
   11     9.680e-06  
   12     3.261e-06  
   13     2.123e-06  
   14     8.600e-07  Converged.
   ... Converged in 14 steps (norm: 8.6e-07)
------------------------------------
  Starting TPA DIIS iterations ... 
------------------------------------ 
   It     Res. Norm  Remark
------------------------------------
                       Guess.
    1     4.702e+00  
    2     6.366e+00  
    3     1.155e+00  
    4     2.847e-01  
    5     7.454e-02  
    6     3.021e-02  
    7     9.302e-03  
    8     1.624e-03  
    9     6.109e-04  
   10     1.027e-04  
   11     3.254e-05  
   12     5.081e-06  
   13     1.662e-06  
   14     5.324e-07  Converged.
   ... Converged in 14 steps (norm: 5.32357e-07)
------------------------------------
  Starting TPA DIIS iterations ... 
------------------------------------ 
   It     Res. Norm  Remark
------------------------------------
                       Guess.
    1     4.450e+00  
    2     6.028e+00  
    3     1.114e+00  
    4     2.880e-01  
    5     7.414e-02  
    6     3.068e-02  
    7     9.254e-03  
    8     1.679e-03  
    9     6.209e-04  
   10     1.047e-04  
   11     3.354e-05  
   12     5.117e-06  
   13     1.694e-06  
   14     5.104e-07  Converged.
   ... Converged in 14 steps (norm: 5.10416e-07)
------------------------------------
  Starting TPA DIIS iterations ... 
------------------------------------ 
   It     Res. Norm  Remark
------------------------------------
                       Guess.
    1     7.057e-01  
    2     5.032e-01  
    3     1.803e-01  
    4     7.003e-02  
    5     2.007e-02  
    6     7.377e-03  
    7     1.223e-03  
    8     5.365e-04  
    9     1.592e-04  
   10     2.644e-05  
   11     1.136e-05  
   12     3.867e-06  
   13     2.667e-06  
   14     1.091e-06  
   15     3.999e-07  Converged.
   ... Converged in 15 steps (norm: 3.99915e-07)
------------------------------------
  Starting TPA DIIS iterations ... 
------------------------------------ 
   It     Res. Norm  Remark
------------------------------------
                       Guess.
    1     4.766e+00  
    2     6.482e+00  
    3     1.173e+00  
    4     2.912e-01  
    5     7.645e-02  
    6     3.104e-02  
    7     9.553e-03  
    8     1.667e-03  
    9     6.282e-04  
   10     1.057e-04  
   11     3.358e-05  
   12     5.252e-06  
   13     1.721e-06  
   14     5.522e-07  Converged.
   ... Converged in 14 steps (norm: 5.5216e-07)
------------------------------------
  Starting TPA DIIS iterations ... 
------------------------------------ 
   It     Res. Norm  Remark
------------------------------------
                       Guess.
    1     4.510e+00  
    2     6.138e+00  
    3     1.131e+00  
    4     2.945e-01  
    5     7.604e-02  
    6     3.153e-02  
    7     9.506e-03  
    8     1.724e-03  
    9     6.385e-04  
   10     1.078e-04  
   11     3.460e-05  
   12     5.287e-06  
   13     1.753e-06  
   14     5.288e-07  Converged.
   ... Converged in 14 steps (norm: 5.28795e-07)
------------------------------------
  Starting TPA DIIS iterations ... 
------------------------------------ 
   It     Res. Norm  Remark
------------------------------------
                       Guess.
    1     7.083e-01  
    2     5.070e-01  
    3     1.825e-01  
    4     7.192e-02  
    5     2.038e-02  
    6     7.521e-03  
    7     1.255e-03  
    8     5.550e-04  
    9     1.651e-04  
   10     2.696e-05  
   11     1.174e-05  
   12     4.006e-06  
   13     2.794e-06  
   14     1.146e-06  
   15     4.202e-07  Converged.
   ... Converged in 15 steps (norm: 4.20187e-07)
------------------------------------
  Starting TPA DIIS iterations ... 
------------------------------------ 
   It     Res. Norm  Remark
------------------------------------
                       Guess.
    1     5.524e+00  
    2     7.891e+00  
    3     1.384e+00  
    4     3.724e-01  
    5     1.003e-01  
    6     4.149e-02  
    7     1.269e-02  
    8     2.207e-03  
    9     8.470e-04  
   10     1.438e-04  
   11     4.684e-05  
   12     7.459e-06  
   13     2.503e-06  
   14     8.179e-07  Converged.
   ... Converged in 14 steps (norm: 8.17909e-07)
------------------------------------
  Starting TPA DIIS iterations ... 
------------------------------------ 
   It     Res. Norm  Remark
------------------------------------
                       Guess.
    1     5.225e+00  
    2     7.471e+00  
    3     1.334e+00  
    4     3.761e-01  
    5     9.984e-02  
    6     4.226e-02  
    7     1.265e-02  
    8     2.288e-03  
    9     8.602e-04  
   10     1.468e-04  
   11     4.816e-05  
   12     7.484e-06  
   13     2.529e-06  
   14     7.736e-07  Converged.
   ... Converged in 14 steps (norm: 7.73627e-07)
------------------------------------
  Starting TPA DIIS iterations ... 
------------------------------------ 
   It     Res. Norm  Remark
------------------------------------
                       Guess.
    1     7.364e-01  
    2     5.498e-01  
    3     2.076e-01  
    4     9.628e-02  
    5     2.407e-02  
    6     9.334e-03  
    7     1.673e-03  
    8     7.917e-04  
    9     2.402e-04  
   10     3.200e-05  
   11     1.675e-05  
   12     5.891e-06  
   13     4.599e-06  
   14     1.962e-06  
   15     6.783e-07  Converged.
   ... Converged in 15 steps (norm: 6.78263e-07)
------------------------------------
  Starting TPA DIIS iterations ... 
------------------------------------ 
   It     Res. Norm  Remark
------------------------------------
                       Guess.
    1     6.010e+00  
    2     8.827e+00  
    3     1.519e+00  
    4     4.285e-01  
    5     1.168e-01  
    6     4.879e-02  
    7     1.486e-02  
    8     2.579e-03  
    9     9.998e-04  
   10     1.704e-04  
   11     5.631e-05  
   12     9.042e-06  
   13     3.081e-06  
   14     1.021e-06  
   15     3.693e-07  Converged.
   ... Converged in 15 steps (norm: 3.69299e-07)
------------------------------------
  Starting TPA DIIS iterations ... 
------------------------------------ 
   It     Res. Norm  Remark
------------------------------------
                       Guess.
    1     5.684e+00  
    2     8.357e+00  
    3     1.464e+00  
    4     4.324e-01  
    5     1.163e-01  
    6     4.977e-02  
    7     1.482e-02  
    8     2.675e-03  
    9     1.015e-03  
   10     1.740e-04  
   11     5.780e-05  
   12     9.054e-06  
   13     3.095e-06  
   14     9.596e-07  Converged.
   ... Converged in 14 steps (norm: 9.59566e-07)
------------------------------------
  Starting TPA DIIS iterations ... 
------------------------------------ 
   It     Res. Norm  Remark
------------------------------------
                       Guess.
    1     7.523e-01  
    2     5.753e-01  
    3     2.231e-01  
    4     1.137e-01  
    5     2.648e-02  
    6     1.060e-02  
    7     1.978e-03  
    8     9.516e-04  
    9     2.910e-04  
   10     3.521e-05  
   11     2.051e-05  
   12     7.355e-06  
   13     6.048e-06  
   14     2.643e-06  
   15     8.621e-07  Converged.
   ... Converged in 15 steps (norm: 8.62139e-07)
------------------------------------
  Starting TPA DIIS iterations ... 
------------------------------------ 
   It     Res. Norm  Remark
------------------------------------
                       Guess.
    1     6.513e+00  
    2     9.820e+00  
    3     1.658e+00  
    4     4.893e-01  
    5     1.347e-01  
    6     5.678e-02  
    7     1.722e-02  
    8     2.982e-03  
    9     1.167e-03  
   10     1.996e-04  
   11     6.680e-05  
   12     1.080e-05  
   13     3.736e-06  
   14     1.261e-06  
   15     4.647e-07  Converged.
   ... Converged in 15 steps (norm: 4.64705e-07)
------------------------------------
  Starting TPA DIIS iterations ... 
------------------------------------ 
   It     Res. Norm  Remark
------------------------------------
                       Guess.
    1     6.159e+00  
    2     9.297e+00  
    3     1.597e+00  
    4     4.935e-01  
    5     1.341e-01  
    6     5.801e-02  
    7     1.719e-02  
    8     3.096e-03  
    9     1.184e-03  
   10     2.038e-04  
   11     6.842e-05  
   12     1.079e-05  
   13     3.728e-06  
   14     1.178e-06  
   15     3.650e-07  Converged.
   ... Converged in 15 steps (norm: 3.64967e-07)
------------------------------------
  Starting TPA DIIS iterations ... 
------------------------------------ 
   It     Res. Norm  Remark
------------------------------------
                       Guess.
    1     7.672e-01  
    2     6.005e-01  
    3     2.388e-01  
    4     1.329e-01  
    5     2.903e-02  
    6     1.198e-02  
    7     2.321e-03  
    8     1.113e-03  
    9     3.437e-04  
   10     3.959e-05  
   11     2.485e-05  
   12     9.092e-06  
   13     7.784e-06  
   14     3.477e-06  
   15     1.080e-06  
   16     5.386e-07  Converged.
   ... Converged in 16 steps (norm: 5.38626e-07)
------------------------------------
  Starting TPA DIIS iterations ... 
------------------------------------ 
   It     Res. Norm  Remark
------------------------------------
                       Guess.
    1     8.585e+00  
    2     1.414e+01  
    3     2.220e+00  
    4     7.668e-01  
    5     2.163e-01  
    6     9.401e-02  
    7     2.798e-02  
    8     4.814e-03  
    9     1.946e-03  
   10     3.346e-04  
   11     1.155e-04  
   12     1.912e-05  
   13     6.915e-06  
   14     2.618e-06  
   15     9.879e-07  Converged.
   ... Converged in 15 steps (norm: 9.8789e-07)
------------------------------------
  Starting TPA DIIS iterations ... 
------------------------------------ 
   It     Res. Norm  Remark
------------------------------------
                       Guess.
    1     8.117e+00  
    2     1.339e+01  
    3     2.136e+00  
    4     7.716e-01  
    5     2.157e-01  
    6     9.647e-02  
    7     2.799e-02  
    8     5.005e-03  
    9     1.968e-03  
   10     3.415e-04  
   11     1.172e-04  
   12     1.902e-05  
   13     6.675e-06  
   14     2.412e-06  
   15     7.202e-07  Converged.
   ... Converged in 15 steps (norm: 7.20177e-07)
------------------------------------
  Starting TPA DIIS iterations ... 
------------------------------------ 
   It     Res. Norm  Remark
------------------------------------
                       Guess.
    1     8.176e-01  
    2     6.938e-01  
    3     2.997e-01  
    4     2.216e-01  
    5     4.039e-02  
    6     1.827e-02  
    7     4.004e-03  
    8     1.633e-03  
    9     5.516e-04  
   10     7.156e-05  
   11     4.763e-05  
   12     1.884e-05  
   13     1.710e-05  
   14     8.228e-06  
   15     2.654e-06  
   16     1.448e-06  
   17     3.351e-07  Converged.
   ... Converged in 17 steps (norm: 3.35121e-07)
------------------------------------
  Starting TPA DIIS iterations ... 
------------------------------------ 
   It     Res. Norm  Remark
------------------------------------
                       Guess.
    1     1.051e+01  
    2     1.847e+01  
    3     2.730e+00  
    4     1.054e+00  
    5     3.017e-01  
    6     1.339e-01  
    7     3.925e-02  
    8     6.724e-03  
    9     2.779e-03  
   10     4.773e-04  
   11     1.656e-04  
   12     2.820e-05  
   13     1.036e-05  
   14     4.482e-06  
   15     1.686e-06  
   16     1.010e-06  
   17     2.414e-07  Converged.
   ... Converged in 17 steps (norm: 2.41416e-07)
------------------------------------
  Starting TPA DIIS iterations ... 
------------------------------------ 
   It     Res. Norm  Remark
------------------------------------
                       Guess.
    1     9.938e+00  
    2     1.748e+01  
    3     2.624e+00  
    4     1.059e+00  
    5     3.012e-01  
    6     1.378e-01  
    7     3.930e-02  
    8     6.992e-03  
    9     2.804e-03  
   10     4.869e-04  
   11     1.665e-04  
   12     2.809e-05  
   13     9.701e-06  
   14     4.102e-06  
   15     1.236e-06  
   16     9.216e-07  Converged.
   ... Converged in 16 steps (norm: 9.21557e-07)
------------------------------------
  Starting TPA DIIS iterations ... 
------------------------------------ 
   It     Res. Norm  Remark
------------------------------------
                       Guess.
    1     8.537e-01  
    2     7.697e-01  
    3     3.520e-01  
    4     3.085e-01  
    5     5.195e-02  
    6     2.452e-02  
    7     5.843e-03  
    8     1.880e-03  
    9     7.314e-04  
   10     1.118e-04  
   11     7.547e-05  
   12     3.189e-05  
   13     2.735e-05  
   14     1.428e-05  
   15     5.449e-06  
   16     2.815e-06  
   17     7.307e-07  Converged.
   ... Converged in 17 steps (norm: 7.30706e-07)
------------------------------------
  Starting TPA DIIS iterations ... 
------------------------------------ 
   It     Res. Norm  Remark
------------------------------------
                       Guess.
    1     1.146e+01  
    2     2.069e+01  
    3     2.975e+00  
    4     1.204e+00  
    5     3.466e-01  
    6     1.551e-01  
    7     4.516e-02  
    8     7.723e-03  
    9     3.222e-03  
   10     5.524e-04  
   11     1.911e-04  
   12     3.313e-05  
   13     1.224e-05  
   14     5.624e-06  
   15     2.130e-06  
   16     1.339e-06  
   17     2.961e-07  Converged.
   ... Converged in 17 steps (norm: 2.96112e-07)
------------------------------------
  Starting TPA DIIS iterations ... 
------------------------------------ 
   It     Res. Norm  Remark
------------------------------------
                       Guess.
    1     1.083e+01  
    2     1.959e+01  
    3     2.860e+00  
    4     1.208e+00  
    5     3.460e-01  
    6     1.598e-01  
    7     4.524e-02  
    8     8.031e-03  
    9     3.247e-03  
   10     5.633e-04  
   11     1.916e-04  
   12     3.309e-05  
   13     1.132e-05  
   14     5.129e-06  
   15     1.606e-06  
   16     1.250e-06  
   17     5.284e-07  Converged.
   ... Converged in 17 steps (norm: 5.28407e-07)
------------------------------------
  Starting TPA DIIS iterations ... 
------------------------------------ 
   It     Res. Norm  Remark
------------------------------------
                       Guess.
    1     8.689e-01  
    2     8.043e-01  
    3     3.765e-01  
    4     3.496e-01  
    5     5.788e-02  
    6     2.757e-02  
    7     6.806e-03  
    8     1.951e-03  
    9     8.167e-04  
   10     1.329e-04  
   11     9.132e-05  
   12     3.985e-05  
   13     3.239e-05  
   14     1.768e-05  
   15     7.305e-06  
   16     3.713e-06  
   17     1.086e-06  
   18     5.357e-07  Converged.
   ... Converged in 18 steps (norm: 5.35677e-07)
------------------------------------
  Starting TPA DIIS iterations ... 
------------------------------------ 
   It     Res. Norm  Remark
------------------------------------
                       Guess.
    1     1.232e+01  
    2     2.275e+01  
    3     3.196e+00  
    4     1.343e+00  
    5     3.887e-01  
    6     1.752e-01  
    7     5.071e-02  
    8     8.661e-03  
    9     3.640e-03  
   10     6.230e-04  
   11     2.147e-04  
   12     3.789e-05  
   13     1.408e-05  
   14     6.792e-06  
   15     2.606e-06  
   16     1.690e-06  
   17     3.684e-07  Converged.
   ... Converged in 17 steps (norm: 3.68361e-07)
------------------------------------
  Starting TPA DIIS iterations ... 
------------------------------------ 
   It     Res. Norm  Remark
------------------------------------
                       Guess.
    1     1.165e+01  
    2     2.154e+01  
    3     3.071e+00  
    4     1.347e+00  
    5     3.882e-01  
    6     1.807e-01  
    7     5.082e-02  
    8     9.006e-03  
    9     3.665e-03  
   10     6.351e-04  
   11     2.147e-04  
   12     3.797e-05  
   13     1.290e-05  
   14     6.173e-06  
   15     2.026e-06  
   16     1.608e-06  
   17     6.746e-07  Converged.
   ... Converged in 17 steps (norm: 6.74602e-07)
------------------------------------
  Starting TPA DIIS iterations ... 
------------------------------------ 
   It     Res. Norm  Remark
------------------------------------
                       Guess.
    1     8.816e-01  
    2     8.345e-01  
    3     3.981e-01  
    4     3.852e-01  
    5     6.337e-02  
    6     3.026e-02  
    7     7.701e-03  
    8     2.002e-03  
    9     8.931e-04  
   10     1.524e-04  
   11     1.069e-04  
   12     4.800e-05  
   13     3.692e-05  
   14     2.087e-05  
   15     9.275e-06  
   16     4.683e-06  
   17     1.529e-06  
   18     6.721e-07  Converged.
   ... Converged in 18 steps (norm: 6.72148e-07)
------------------------------------
  Two-photon absorbption ...  CPU 103.77 s  wall 19.47 s
  Transition density matrix of state singlet_A_1 printed to ASCII file 'State_singlet_A_1_Transition.txt'
  Transition density matrix of state singlet_A_2 printed to ASCII file 'State_singlet_A_2_Transition.txt'
  Transition density matrix of state singlet_A_3 printed to ASCII file 'State_singlet_A_3_Transition.txt'
  Transition density matrix of state singlet_A_4 printed to ASCII file 'State_singlet_A_4_Transition.txt'
  Transition density matrix of state singlet_A_5 printed to ASCII file 'State_singlet_A_5_Transition.txt'
  Transition density matrix of state singlet_A_6 printed to ASCII file 'State_singlet_A_6_Transition.txt'
  Transition density matrix of state singlet_A_7 printed to ASCII file 'State_singlet_A_7_Transition.txt'
  Transition density matrix of state singlet_A_8 printed to ASCII file 'State_singlet_A_8_Transition.txt'
  Transition density matrix of state singlet_A_9 printed to ASCII file 'State_singlet_A_9_Transition.txt'
  Transition density matrix of state singlet_A_10 printed to ASCII file 'State_singlet_A_10_Transition.txt'
  Transition properties ...  CPU 0.14 s  wall 0.87 s
  Difference density matrix of state singlet_A_1 printed to ASCII file 'State_singlet_A_1_Difference.txt'
  Total density matrix of state singlet_A_1 printed to ASCII file 'State_singlet_A_1_Total.txt'
  Difference density matrix of state singlet_A_2 printed to ASCII file 'State_singlet_A_2_Difference.txt'
  Total density matrix of state singlet_A_2 printed to ASCII file 'State_singlet_A_2_Total.txt'
  Difference density matrix of state singlet_A_3 printed to ASCII file 'State_singlet_A_3_Difference.txt'
  Total density matrix of state singlet_A_3 printed to ASCII file 'State_singlet_A_3_Total.txt'
  Difference density matrix of state singlet_A_4 printed to ASCII file 'State_singlet_A_4_Difference.txt'
  Total density matrix of state singlet_A_4 printed to ASCII file 'State_singlet_A_4_Total.txt'
  Difference density matrix of state singlet_A_5 printed to ASCII file 'State_singlet_A_5_Difference.txt'
  Total density matrix of state singlet_A_5 printed to ASCII file 'State_singlet_A_5_Total.txt'
  Difference density matrix of state singlet_A_6 printed to ASCII file 'State_singlet_A_6_Difference.txt'
  Total density matrix of state singlet_A_6 printed to ASCII file 'State_singlet_A_6_Total.txt'
  Difference density matrix of state singlet_A_7 printed to ASCII file 'State_singlet_A_7_Difference.txt'
  Total density matrix of state singlet_A_7 printed to ASCII file 'State_singlet_A_7_Total.txt'
  Difference density matrix of state singlet_A_8 printed to ASCII file 'State_singlet_A_8_Difference.txt'
  Total density matrix of state singlet_A_8 printed to ASCII file 'State_singlet_A_8_Total.txt'
  Difference density matrix of state singlet_A_9 printed to ASCII file 'State_singlet_A_9_Difference.txt'
  Total density matrix of state singlet_A_9 printed to ASCII file 'State_singlet_A_9_Total.txt'
  Difference density matrix of state singlet_A_10 printed to ASCII file 'State_singlet_A_10_Difference.txt'
  Total density matrix of state singlet_A_10 printed to ASCII file 'State_singlet_A_10_Total.txt'
  Properties ...  CPU 0.26 s  wall 1.46 s
  ISR TDMS ...  CPU 7.78 s  wall 2.71 s
  ISR transition properties ...  CPU 0.15 s  wall 0.07 s
  Sum-over-states TPA ...  CPU 0.00 s  wall 0.00 s

--------------------------------------------------------------------------------
                   State-averaged natural transition orbitals
--------------------------------------------------------------------------------
--------------------------------------------------------------------------------
  SA-NTO decomposition ...  CPU 0.01 s  wall 0.07 s

--------------------------------------------------------------------------------
                             Excited State Summary
--------------------------------------------------------------------------------
--------------------------------------------------------------------------------

  Excited state 1 (singlet, A)                                     [converged]
  ----------------------------------------------------------------------------
  Term symbol:  2 (1) A                                     R^2 =  5.08287e-13

  Total energy:                                            -77.9983529226 a.u.
  Excitation energy:                                               8.740121 eV

  Osc. strength:                                                      0.446058
  Trans. dip. moment [a.u.]:           [  -1.041930,    0.998707,    0.009806]
  <i|r^2|0> [a.u.]:                    [  -6.135858,    0.235945,   -0.000217]
  Two-photon absorption cross-section (SoS) [a.u.]:                   0.008499
  Two-photon absorption matrix (SoS) [a.u.]:
                                       |    0.023851   -0.013640   -0.000722 |
                                       |   -0.013640   -0.013714   -0.002654 |
                                       |   -0.000722   -0.002654    0.021737 |
  Two-photon absorption cross-section [a.u.]:                         0.010072
  Two-photon absorption matrix [a.u.]:
                                       |    0.015944   -0.013955    0.000947 |
                                       |   -0.013955   -0.038846   -0.001631 |
                                       |    0.000947   -0.001631    0.018691 |

  Dip. moment [a.u.]:                  [   0.002354,   -0.001847,   -0.000070]
  Total dipole [Debye]:                                               0.007606
  <r^2> [a.u.]:                        [ 175.614427,   35.686158,   11.875730]
  Total <r^2> [a.u.]:                                               223.176315

  V1^2 = 0.9715, V2^2 = 0.0285

  Important amplitudes:
      occ i     occ j     vir a      vir b          v   
    -----------------------------------------------------
     8 (A) A              9 (A) A                 0.6810
     6 (A) A             14 (A) A                 0.0625
     4 (A) A             10 (A) A                -0.0614
     7 (A) A             16 (A) A                 0.0560
     5 (A) A             13 (A) A                 0.0512
     6 (A) A             23 (A) A                -0.0491
     8 (A) A             20 (A) A                 0.0352
     6 (A) A             19 (A) A                 0.0304
     3 (A) A             12 (A) A                 0.0280
     7 (A) A             11 (A) A                 0.0224
     5 (A) A             22 (A) A                 0.0214
     4 (A) A             24 (A) A                -0.0188
     3 (A) A             26 (A) A                -0.0184
     8 (A) A   8 (A) B   17 (A) A   20 (A) B     -0.0184
     8 (A) A   8 (A) B    9 (A) A   28 (A) B      0.0167
     6 (A) A             26 (A) A                 0.0160
     7 (A) A             21 (A) A                -0.0154
     3 (A) A             14 (A) A                -0.0138
     6 (A) A             12 (A) A                 0.0137
     3 (A) A   4 (A) B    9 (A) A    9 (A) B      0.0129
     3 (A) A             19 (A) A                -0.0118
     8 (A) A   8 (A) B   18 (A) A   19 (A) B      0.0112
     7 (A) A             32 (A) A                -0.0093
     7 (A) A             36 (A) A                 0.0084
     3 (A) A             23 (A) A                 0.0084
     8 (A) A   8 (A) B   25 (A) A   29 (A) B     -0.0076
     6 (A) A             40 (A) A                 0.0068
     3 (A) A   6 (A) B    9 (A) A   28 (A) B     -0.0065
     6 (A) A   8 (A) A   19 (A) A   28 (A) A     -0.0060
     5 (A) A   7 (A) B    9 (A) A    9 (A) B      0.0060
     5 (A) A   8 (A) B   11 (A) A   20 (A) B      0.0059
     7 (A) A   8 (A) B   13 (A) A   20 (A) B      0.0059
     5 (A) A   8 (A) B   16 (A) A    9 (A) B      0.0059
     3 (A) A   5 (A) B    9 (A) A   25 (A) B     -0.0058
     6 (A) A             34 (A) A                -0.0058
     5 (A) A   8 (A) B   11 (A) A    9 (A) B     -0.0057
     6 (A) A   8 (A) A    9 (A) A   18 (A) A      0.0057
     3 (A) A             40 (A) A                -0.0057
     7 (A) A   8 (A) B   22 (A) A   20 (A) B      0.0057
     8 (A) A   8 (A) B   19 (A) A   30 (A) B      0.0056
    -----------------------------------------------------

  Density matrix analysis:
  ------------------------
  NOs
    Occupation of frontier NOs:
       0.9492   1.0220
    Number of electrons: 16.000000
    Number of unpaired electrons: n_u =  2.31392, n_u,nl =  2.03280
    NO participation ratio (PR_NO):  2.866967
  
  
  Mulliken Population Analysis
  Atom      Charge (e)              h+              e-           Del q
  --------------------------------------------------------------------
   1 H        0.058335        0.020351       -0.012564        0.007787
   2 C       -0.117071        0.490512       -0.506021       -0.015508
   3 H        0.057136        0.020026       -0.012641        0.007385
   4 C       -0.117562        0.491144       -0.505542       -0.014397
   5 H        0.059447        0.019971       -0.012837        0.007134
   6 H        0.059714        0.020194       -0.012595        0.007599
  --------------------------------------------------------------------
  Sum:       -0.000000        1.062199       -1.062199        0.000000
  
  Multipole moment analysis of the density matrix
    Molecular charge:                      -0.000000
    Number of electrons:                   16.000000
      Center of electronic charge [Ang]: [ -1.558154,  -0.065541,   0.001980]
    Total nuclear charge:                  16.000000
      Center of nuclear charge [Ang]:    [ -1.558076,  -0.065602,   0.001978]
    Dipole moment [D]:                     0.007606
      Cartesian components [D]:          [  0.005982,  -0.004694,  -0.000178]
    RMS size of the density [Ang]:         1.214018
      Cartesian components [Ang]:        [  0.803568,   0.787576,   0.455897]
  
  Exciton analysis of the difference density matrix
    <r_h> [Ang]:                  [ -1.559524,  -0.065360,   0.001967]
    <r_e> [Ang]:                  [ -1.559478,  -0.065816,   0.001947]
    |<r_e - r_h>| [Ang]:            0.000458
    Hole size [Ang]:                1.285364
      Cartesian components [Ang]: [  0.727991,   0.712828,   0.783623]
    Electron size [Ang]:            1.463273
      Cartesian components [Ang]: [  0.854130,   0.830576,   0.849572]

  Transition density matrix analysis:
  -----------------------------------
  
  CT numbers (Mulliken)
    omega =     0.9534
    <Phe> =    -0.1602
  
  Exciton analysis of the transition density matrix
    Trans. dipole moment [D]:             1.834257
      Cartesian components [D]:         [ -1.324160,   1.269230,   0.012462]
    <r_h> [Ang]:                        [ -1.560015,  -0.065142,   0.001941]
    <r_e> [Ang]:                        [ -1.559389,  -0.065782,   0.001955]
    |<r_e - r_h>| [Ang]:                  0.000896
    Hole size [Ang]:                      1.214231
      Cartesian components [Ang]:       [  0.649445,   0.636711,   0.804473]
    Electron size [Ang]:                  1.485982
      Cartesian components [Ang]:       [  0.864412,   0.839487,   0.869596]
    RMS electron-hole separation [Ang]:   1.936037
      Cartesian components [Ang]:       [  1.106363,   1.074497,   1.170324]
    Covariance(r_h, r_e) [Ang^2]:        -0.032870
    Correlation coefficient:             -0.018217
    Center-of-mass size [Ang]:            0.950889
      Cartesian components [Ang]:       [  0.527716,   0.516172,   0.599393]

  Decomposition into state-averaged NTOs
    H- 0 -> L+ 0: -0.6698 ( 89.7%)
    H- 2 -> L+ 5:  0.0839 (  1.4%)
                   omega =  95.3%
  ----------------------------------------------------------------------------


  Excited state 2 (singlet, A)                                     [converged]
  ----------------------------------------------------------------------------
  Term symbol:  3 (1) A                                     R^2 =  6.26011e-13

  Total energy:                                            -77.9862896592 a.u.
  Excitation energy:                                               9.068379 eV

  Osc. strength:                                                      0.000457
  Trans. dip. moment [a.u.]:           [  -0.001940,    0.006607,   -0.044852]
  <i|r^2|0> [a.u.]:                    [  -0.071158,   -0.087883,    0.149564]
  Two-photon absorption cross-section (SoS) [a.u.]:                   5.364903
  Two-photon absorption matrix (SoS) [a.u.]:
                                       |   -0.054720   -0.061074    0.564926 |
                                       |   -0.061074   -0.067661    0.580058 |
                                       |    0.564926    0.580058    0.122381 |
  Two-photon absorption cross-section [a.u.]:                         0.084140
  Two-photon absorption matrix [a.u.]:
                                       |    0.001694    0.005496   -0.013033 |
                                       |    0.005496    0.011355   -0.100823 |
                                       |   -0.013033   -0.100823   -0.013136 |

  Dip. moment [a.u.]:                  [  -0.047765,   -0.084928,   -0.007406]
  Total dipole [Debye]:                                               0.248378
  <r^2> [a.u.]:                        [ 174.017514,   33.999939,   13.131003]
  Total <r^2> [a.u.]:                                               221.148456

  V1^2 = 0.9543, V2^2 = 0.0457

  Important amplitudes:
      occ i     occ j     vir a      vir b          v   
    -----------------------------------------------------
     7 (A) A              9 (A) A                -0.6617
     8 (A) A             11 (A) A                -0.1530
     8 (A) A             10 (A) A                 0.0921
     7 (A) A             20 (A) A                -0.0752
     5 (A) A   8 (A) B    9 (A) A    9 (A) B     -0.0311
     8 (A) A             16 (A) A                 0.0276
     8 (A) A             21 (A) A                 0.0183
     5 (A) A             28 (A) A                 0.0147
     4 (A) A   7 (A) B    9 (A) A   19 (A) B      0.0134
     5 (A) A   7 (A) B    9 (A) A   16 (A) B      0.0131
     6 (A) A              9 (A) A                -0.0114
     8 (A) A             12 (A) A                -0.0108
     7 (A) A   8 (A) B   20 (A) A   17 (A) B      0.0104
     7 (A) A   8 (A) A    9 (A) A   28 (A) A      0.0096
     5 (A) A   8 (A) B    9 (A) A   20 (A) B     -0.0094
     5 (A) A   6 (A) A    9 (A) A   23 (A) A     -0.0090
     4 (A) A   6 (A) B    9 (A) A   16 (A) B      0.0090
     5 (A) A   6 (A) A    9 (A) A   14 (A) A      0.0087
     5 (A) A   6 (A) B    9 (A) A   19 (A) B      0.0084
     4 (A) A   5 (A) A    9 (A) A   10 (A) A      0.0084
     8 (A) A   7 (A) B    9 (A) A   28 (A) B     -0.0084
     6 (A) A   7 (A) B    9 (A) A   18 (A) B     -0.0081
     5 (A) A   6 (A) B    9 (A) A   23 (A) B     -0.0080
     3 (A) A   7 (A) B    9 (A) A   18 (A) B     -0.0078
     5 (A) A   7 (A) A    9 (A) A   16 (A) A      0.0077
     4 (A) A   8 (A) B    9 (A) A   25 (A) B      0.0076
     7 (A) A   8 (A) B   17 (A) A   20 (A) B      0.0073
     4 (A) A   7 (A) B   19 (A) A    9 (A) B      0.0073
     7 (A) A   8 (A) B   19 (A) A   18 (A) B     -0.0071
     5 (A) A   5 (A) B    9 (A) A   13 (A) B      0.0071
     5 (A) A   8 (A) A    9 (A) A   20 (A) A     -0.0068
     4 (A) A   5 (A) B    9 (A) A   18 (A) B     -0.0066
     7 (A) A   7 (A) B   20 (A) A   22 (A) B     -0.0064
     7 (A) A   8 (A) B   17 (A) A    9 (A) B      0.0064
     8 (A) A             24 (A) A                 0.0063
     5 (A) A   6 (A) B    9 (A) A   14 (A) B      0.0061
     4 (A) A   7 (A) B    9 (A) A   14 (A) B     -0.0061
     4 (A) A   7 (A) A    9 (A) A   19 (A) A      0.0061
     4 (A) A   5 (A) B   10 (A) A    9 (A) B     -0.0061
     5 (A) A   7 (A) B   11 (A) A   20 (A) B     -0.0060
    -----------------------------------------------------

  Density matrix analysis:
  ------------------------
  NOs
    Occupation of frontier NOs:
       0.9372   1.0737
    Number of electrons: 16.000000
    Number of unpaired electrons: n_u =  2.35567, n_u,nl =  2.07774
    NO participation ratio (PR_NO):  3.148434
  
  
  Mulliken Population Analysis
  Atom      Charge (e)              h+              e-           Del q
  --------------------------------------------------------------------
   1 H        0.124948        0.118285       -0.043886        0.074400
   2 C       -0.289347        0.274188       -0.461973       -0.187784
   3 H        0.166478        0.129722       -0.012995        0.116727
   4 C       -0.289438        0.270255       -0.456529       -0.186274
   5 H        0.139139        0.134466       -0.047640        0.086825
   6 H        0.148221        0.108424       -0.012318        0.096106
  --------------------------------------------------------------------
  Sum:       -0.000000        1.035340       -1.035340        0.000000
  
  Multipole moment analysis of the density matrix
    Molecular charge:                      0.000000
    Number of electrons:                   16.000000
      Center of electronic charge [Ang]: [ -1.556496,  -0.062793,   0.002223]
    Total nuclear charge:                  16.000000
      Center of nuclear charge [Ang]:    [ -1.558076,  -0.065602,   0.001978]
    Dipole moment [D]:                     0.248378
      Cartesian components [D]:          [ -0.121407,  -0.215864,  -0.018825]
    RMS size of the density [Ang]:         1.201608
      Cartesian components [Ang]:        [  0.789263,   0.768841,   0.479386]
  
  Exciton analysis of the difference density matrix
    <r_h> [Ang]:                  [ -1.539807,  -0.060496,   0.003113]
    <r_e> [Ang]:                  [ -1.514143,  -0.018500,   0.006843]
    |<r_e - r_h>| [Ang]:            0.049358
    Hole size [Ang]:                1.484858
      Cartesian components [Ang]: [  0.972572,   1.020212,   0.466986]
    Electron size [Ang]:            1.496527
      Cartesian components [Ang]: [  0.892721,   0.880106,   0.817346]

  Transition density matrix analysis:
  -----------------------------------
  
  CT numbers (Mulliken)
    omega =     0.9218
    <Phe> =    -0.0120
  
  Exciton analysis of the transition density matrix
    Trans. dipole moment [D]:             0.057669
      Cartesian components [D]:         [ -0.002466,   0.008397,  -0.057001]
    <r_h> [Ang]:                        [ -1.539538,  -0.062697,   0.002997]
    <r_e> [Ang]:                        [ -1.512756,  -0.014287,   0.007169]
    |<r_e - r_h>| [Ang]:                  0.055482
    Hole size [Ang]:                      1.507297
      Cartesian components [Ang]:       [  0.988622,   1.042449,   0.455927]
    Electron size [Ang]:                  1.494869
      Cartesian components [Ang]:       [  0.886253,   0.871010,   0.830982]
    RMS electron-hole separation [Ang]:   2.104779
      Cartesian components [Ang]:       [  1.313388,   1.344679,   0.947072]
    Covariance(r_h, r_e) [Ang^2]:         0.039780
    Correlation coefficient:              0.017655
    Center-of-mass size [Ang]:            1.070763
      Cartesian components [Ang]:       [  0.671075,   0.686458,   0.474308]

  Decomposition into state-averaged NTOs
    H- 1 -> L+ 0: -0.6541 ( 85.6%)
    H- 0 -> L+ 2:  0.1502 (  4.5%)
    H- 0 -> L+ 1:  0.0958 (  1.8%)
                   omega =  92.2%
  ----------------------------------------------------------------------------


  Excited state 3 (singlet, A)                                     [converged]
  ----------------------------------------------------------------------------
  Term symbol:  4 (1) A                                     R^2 =  5.65189e-13

  Total energy:                                            -77.9838554821 a.u.
  Excitation energy:                                               9.134616 eV

  Osc. strength:                                                      0.023704
  Trans. dip. moment [a.u.]:           [  -0.016215,   -0.018236,    0.324533]
  <i|r^2|0> [a.u.]:                    [  -0.100865,   -0.018109,    0.016424]
  Two-photon absorption cross-section (SoS) [a.u.]:                   0.019326
  Two-photon absorption matrix (SoS) [a.u.]:
                                       |    0.018365    0.003935   -0.038313 |
                                       |    0.003935   -0.011902   -0.025965 |
                                       |   -0.038313   -0.025965   -0.006117 |
  Two-photon absorption cross-section [a.u.]:                         0.109157
  Two-photon absorption matrix [a.u.]:
                                       |    0.019640    0.009036   -0.090609 |
                                       |    0.009036   -0.002375   -0.070845 |
                                       |   -0.090609   -0.070845   -0.016628 |

  Dip. moment [a.u.]:                  [   0.001441,   -0.062227,   -0.003505]
  Total dipole [Debye]:                                               0.158457
  <r^2> [a.u.]:                        [ 180.162385,   40.451464,   11.061305]
  Total <r^2> [a.u.]:                                               231.675154

  V1^2 = 0.9587, V2^2 = 0.0413

  Important amplitudes:
      occ i     occ j     vir a      vir b          v   
    -----------------------------------------------------
     8 (A) A             10 (A) A                -0.6827
     7 (A) A              9 (A) A                -0.0923
     8 (A) A             24 (A) A                -0.0502
     8 (A) A             18 (A) A                 0.0313
     4 (A) A              9 (A) A                 0.0241
     8 (A) A   8 (A) B    9 (A) A   12 (A) B     -0.0217
     8 (A) A             15 (A) A                 0.0182
     8 (A) A   8 (A) B   10 (A) A   17 (A) B     -0.0170
     5 (A) A   8 (A) B   11 (A) A   10 (A) B      0.0163
     7 (A) A   8 (A) B   13 (A) A   10 (A) B      0.0139
     4 (A) A   8 (A) B   12 (A) A   10 (A) B      0.0110
     7 (A) A   8 (A) B   22 (A) A   10 (A) B      0.0107
     6 (A) A   8 (A) A   10 (A) A   15 (A) A      0.0107
     4 (A) A   8 (A) A   10 (A) A   12 (A) A     -0.0105
     6 (A) A   8 (A) B   15 (A) A   10 (A) B     -0.0105
     7 (A) A             20 (A) A                -0.0103
     7 (A) A   8 (A) A   10 (A) A   22 (A) A     -0.0097
     7 (A) A   8 (A) A   10 (A) A   13 (A) A     -0.0096
     5 (A) A   8 (A) B   21 (A) A   10 (A) B     -0.0093
     5 (A) A   8 (A) A   10 (A) A   11 (A) A     -0.0091
     6 (A) A   8 (A) A   10 (A) A   18 (A) A     -0.0089
     8 (A) A             11 (A) A                -0.0088
     6 (A) A   8 (A) B   10 (A) A   10 (A) B     -0.0086
     7 (A) A   8 (A) A   12 (A) A   16 (A) A     -0.0080
     3 (A) A   4 (A) B   10 (A) A    9 (A) B     -0.0079
     5 (A) A   8 (A) A   10 (A) A   21 (A) A      0.0078
     4 (A) A   8 (A) B   19 (A) A   10 (A) B     -0.0075
     8 (A) A   8 (A) B    9 (A) A   23 (A) B      0.0073
     8 (A) A   8 (A) B   10 (A) A   28 (A) B     -0.0072
     3 (A) A   8 (A) B   10 (A) A   10 (A) B     -0.0072
     5 (A) A   8 (A) B   10 (A) A   11 (A) B      0.0071
     3 (A) A   8 (A) A   10 (A) A   24 (A) A      0.0071
     7 (A) A   8 (A) B   16 (A) A   12 (A) B      0.0069
     8 (A) A   8 (A) B    9 (A) A   19 (A) B      0.0069
     6 (A) A   8 (A) B   18 (A) A   10 (A) B      0.0068
     3 (A) A   8 (A) B   10 (A) A   18 (A) B      0.0068
     3 (A) A   6 (A) B   10 (A) A   28 (A) B      0.0061
     7 (A) A   8 (A) B   12 (A) A   11 (A) B     -0.0057
     6 (A) A             28 (A) A                -0.0057
     5 (A) A   8 (A) A   10 (A) A   16 (A) A      0.0056
    -----------------------------------------------------

  Density matrix analysis:
  ------------------------
  NOs
    Occupation of frontier NOs:
       0.9673   0.9989
    Number of electrons: 16.000000
    Number of unpaired electrons: n_u =  2.32196, n_u,nl =  2.03346
    NO participation ratio (PR_NO):  2.775235
  
  
  Mulliken Population Analysis
  Atom      Charge (e)              h+              e-           Del q
  --------------------------------------------------------------------
   1 H       -0.151644        0.053913       -0.256105       -0.202192
   2 C        0.307531        0.518191       -0.109098        0.409094
   3 H       -0.147924        0.056737       -0.254413       -0.197675
   4 C        0.307669        0.524928       -0.114094        0.410834
   5 H       -0.162689        0.053693       -0.268696       -0.215003
   6 H       -0.152942        0.055926       -0.260983       -0.205057
  --------------------------------------------------------------------
  Sum:       -0.000000        1.263389       -1.263389       -0.000000
  
  Multipole moment analysis of the density matrix
    Molecular charge:                      -0.000000
    Number of electrons:                   16.000000
      Center of electronic charge [Ang]: [ -1.558124,  -0.063544,   0.002094]
    Total nuclear charge:                  16.000000
      Center of nuclear charge [Ang]:    [ -1.558076,  -0.065602,   0.001978]
    Dipole moment [D]:                     0.158457
      Cartesian components [D]:          [  0.003662,  -0.158164,  -0.008908]
    RMS size of the density [Ang]:         1.273945
      Cartesian components [Ang]:        [  0.851712,   0.839008,   0.439987]
  
  Exciton analysis of the difference density matrix
    <r_h> [Ang]:                  [ -1.562568,  -0.065521,   0.001790]
    <r_e> [Ang]:                  [ -1.562147,  -0.040614,   0.003212]
    |<r_e - r_h>| [Ang]:            0.024951
    Hole size [Ang]:                1.415548
      Cartesian components [Ang]: [  0.837803,   0.825459,   0.787706]
    Electron size [Ang]:            2.074259
      Cartesian components [Ang]: [  1.370746,   1.375897,   0.728363]

  Transition density matrix analysis:
  -----------------------------------
  
  CT numbers (Mulliken)
    omega =     0.9258
    <Phe> =    -0.0111
  
  Exciton analysis of the transition density matrix
    Trans. dipole moment [D]:             0.413605
      Cartesian components [D]:         [ -0.020607,  -0.023176,   0.412440]
    <r_h> [Ang]:                        [ -1.564182,  -0.070112,   0.001461]
    <r_e> [Ang]:                        [ -1.564173,  -0.033933,   0.003494]
    |<r_e - r_h>| [Ang]:                  0.036235
    Hole size [Ang]:                      1.219298
      Cartesian components [Ang]:       [  0.645591,   0.633634,   0.817562]
    Electron size [Ang]:                  2.274568
      Cartesian components [Ang]:       [  1.501216,   1.509629,   0.800645]
    RMS electron-hole separation [Ang]:   2.570886
      Cartesian components [Ang]:       [  1.626497,   1.630395,   1.142705]
    Covariance(r_h, r_e) [Ang^2]:         0.026104
    Correlation coefficient:              0.009412
    Center-of-mass size [Ang]:            1.295430
      Cartesian components [Ang]:       [  0.820881,   0.822202,   0.572955]

  Decomposition into state-averaged NTOs
    H- 0 -> L+ 1: -0.6729 ( 90.6%)
    H- 1 -> L+ 0: -0.0912 (  1.7%)
                   omega =  92.6%
  ----------------------------------------------------------------------------


  Excited state 4 (singlet, A)                                     [converged]
  ----------------------------------------------------------------------------
  Term symbol:  5 (1) A                                     R^2 =  2.67826e-13

  Total energy:                                            -77.9586348385 a.u.
  Excitation energy:                                               9.820905 eV

  Osc. strength:                                                      0.000054
  Trans. dip. moment [a.u.]:           [  -0.000951,    0.002464,   -0.014695]
  <i|r^2|0> [a.u.]:                    [   0.014355,    0.016267,   -0.035528]
  Two-photon absorption cross-section (SoS) [a.u.]:                 147.323682
  Two-photon absorption matrix (SoS) [a.u.]:
                                       |    0.287489    0.320604   -3.060595 |
                                       |    0.320604    0.351155   -2.939120 |
                                       |   -3.060595   -2.939120   -0.638788 |
  Two-photon absorption cross-section [a.u.]:                        91.440330
  Two-photon absorption matrix [a.u.]:
                                       |    0.221923    0.252151   -2.376480 |
                                       |    0.252151    0.281953   -2.351031 |
                                       |   -2.376480   -2.351031   -0.504147 |

  Dip. moment [a.u.]:                  [   0.125748,    0.092013,    0.011436]
  Total dipole [Debye]:                                               0.397113
  <r^2> [a.u.]:                        [ 181.608591,   40.470986,   10.791015]
  Total <r^2> [a.u.]:                                               232.870592

  V1^2 = 0.9634, V2^2 = 0.0366

  Important amplitudes:
      occ i     occ j     vir a      vir b          v   
    -----------------------------------------------------
     8 (A) A             11 (A) A                 0.6683
     7 (A) A              9 (A) A                -0.1545
     8 (A) A             21 (A) A                -0.0776
     8 (A) A             16 (A) A                -0.0637
     6 (A) A              9 (A) A                -0.0210
     8 (A) A   8 (A) B    9 (A) A   13 (A) B     -0.0166
     5 (A) A   8 (A) B   11 (A) A   11 (A) B     -0.0155
     8 (A) A             12 (A) A                 0.0144
     7 (A) A             20 (A) A                -0.0143
     8 (A) A   8 (A) B   11 (A) A   17 (A) B      0.0140
     7 (A) A   8 (A) B   13 (A) A   11 (A) B     -0.0127
     8 (A) A             10 (A) A                 0.0123
     4 (A) A   8 (A) B   12 (A) A   11 (A) B     -0.0110
     5 (A) A   8 (A) A   11 (A) A   21 (A) A     -0.0110
     8 (A) A   8 (A) B    9 (A) A   22 (A) B     -0.0107
     7 (A) A   8 (A) A   11 (A) A   22 (A) A      0.0096
     6 (A) A   8 (A) B   10 (A) A   11 (A) B      0.0090
     6 (A) A   8 (A) B   15 (A) A   11 (A) B      0.0089
     7 (A) A   8 (A) B   22 (A) A   11 (A) B     -0.0089
     3 (A) A   4 (A) B   11 (A) A    9 (A) B      0.0083
     3 (A) A   8 (A) B   11 (A) A   18 (A) B     -0.0081
     6 (A) A   8 (A) A   11 (A) A   15 (A) A     -0.0079
     7 (A) A   8 (A) A   13 (A) A   16 (A) A     -0.0078
     7 (A) A   8 (A) A   11 (A) A   13 (A) A      0.0077
     5 (A) A   8 (A) B   21 (A) A   11 (A) B      0.0071
     4 (A) A   8 (A) B   19 (A) A   11 (A) B      0.0070
     5 (A) A   8 (A) B    9 (A) A    9 (A) B     -0.0069
     6 (A) A   8 (A) A   11 (A) A   18 (A) A      0.0064
     4 (A) A   8 (A) A   11 (A) A   12 (A) A      0.0063
     6 (A) A   8 (A) B   18 (A) A   11 (A) B     -0.0062
     3 (A) A   6 (A) B   11 (A) A   28 (A) B     -0.0060
     5 (A) A   8 (A) B   10 (A) A   10 (A) B     -0.0057
     7 (A) A   8 (A) B   16 (A) A   13 (A) B      0.0057
     3 (A) A   8 (A) A   11 (A) A   18 (A) A     -0.0056
     3 (A) A   8 (A) B   11 (A) A   30 (A) B     -0.0055
     6 (A) A   8 (A) B   11 (A) A   10 (A) B      0.0054
     3 (A) A   5 (A) B   11 (A) A   25 (A) B     -0.0054
     7 (A) A   8 (A) B   12 (A) A   10 (A) B      0.0054
     8 (A) A   8 (A) B   20 (A) A   22 (A) B     -0.0053
     3 (A) A   8 (A) A   11 (A) A   24 (A) A     -0.0053
    -----------------------------------------------------

  Density matrix analysis:
  ------------------------
  NOs
    Occupation of frontier NOs:
       0.9372   1.0313
    Number of electrons: 16.000000
    Number of unpaired electrons: n_u =  2.32000, n_u,nl =  2.05169
    NO participation ratio (PR_NO):  2.935991
  
  
  Mulliken Population Analysis
  Atom      Charge (e)              h+              e-           Del q
  --------------------------------------------------------------------
   1 H       -0.125126        0.045191       -0.220865       -0.175674
   2 C        0.271377        0.494121       -0.121181        0.372940
   3 H       -0.142621        0.048993       -0.241365       -0.192372
   4 C        0.274498        0.496787       -0.119124        0.377663
   5 H       -0.107175        0.048436       -0.207924       -0.159488
   6 H       -0.170954        0.045272       -0.268340       -0.223069
  --------------------------------------------------------------------
  Sum:       -0.000000        1.178800       -1.178800       -0.000000
  
  Multipole moment analysis of the density matrix
    Molecular charge:                      -0.000000
    Number of electrons:                   16.000000
      Center of electronic charge [Ang]: [ -1.562235,  -0.068646,   0.001600]
    Total nuclear charge:                  16.000000
      Center of nuclear charge [Ang]:    [ -1.558076,  -0.065602,   0.001978]
    Dipole moment [D]:                     0.397113
      Cartesian components [D]:          [  0.319620,   0.233874,   0.029068]
    RMS size of the density [Ang]:         1.276854
      Cartesian components [Ang]:        [  0.859008,   0.838810,   0.434580]
  
  Exciton analysis of the difference density matrix
    <r_h> [Ang]:                  [ -1.562772,  -0.067842,   0.001645]
    <r_e> [Ang]:                  [ -1.618124,  -0.110388,  -0.003538]
    |<r_e - r_h>| [Ang]:            0.070006
    Hole size [Ang]:                1.396428
      Cartesian components [Ang]: [  0.816248,   0.812101,   0.790091]
    Electron size [Ang]:            2.123635
      Cartesian components [Ang]: [  1.447006,   1.397279,   0.680889]

  Transition density matrix analysis:
  -----------------------------------
  
  CT numbers (Mulliken)
    omega =     0.9297
    <Phe> =    -0.0134
  
  Exciton analysis of the transition density matrix
    Trans. dipole moment [D]:             0.018975
      Cartesian components [D]:         [ -0.001209,   0.003131,  -0.018676]
    <r_h> [Ang]:                        [ -1.559005,  -0.065375,   0.001979]
    <r_e> [Ang]:                        [ -1.629078,  -0.119151,  -0.004578]
    |<r_e - r_h>| [Ang]:                  0.088573
    Hole size [Ang]:                      1.228786
      Cartesian components [Ang]:       [  0.653938,   0.656990,   0.806625]
    Electron size [Ang]:                  2.260450
      Cartesian components [Ang]:       [  1.541097,   1.487170,   0.723173]
    RMS electron-hole separation [Ang]:   2.563744
      Cartesian components [Ang]:       [  1.667102,   1.618919,   1.082892]
    Covariance(r_h, r_e) [Ang^2]:         0.027307
    Correlation coefficient:              0.009831
    Center-of-mass size [Ang]:            1.291720
      Cartesian components [Ang]:       [  0.841266,   0.816795,   0.541903]

  Decomposition into state-averaged NTOs
    H- 0 -> L+ 2: -0.6635 ( 88.1%)
    H- 1 -> L+ 0: -0.1524 (  4.6%)
                   omega =  93.0%
  ----------------------------------------------------------------------------


  Excited state 5 (singlet, A)                                     [converged]
  ----------------------------------------------------------------------------
  Term symbol:  6 (1) A                                     R^2 =  3.85637e-13

  Total energy:                                            -77.9452312640 a.u.
  Excitation energy:                                              10.185635 eV

  Osc. strength:                                                      0.000000
  Trans. dip. moment [a.u.]:           [   0.000137,    0.000353,   -0.001100]
  <i|r^2|0> [a.u.]:                    [  -0.090068,    0.103186,   -0.012084]
  Two-photon absorption cross-section (SoS) [a.u.]:                 135.836739
  Two-photon absorption matrix (SoS) [a.u.]:
                                       |   -0.269478   -0.031049    2.870081 |
                                       |   -0.031049    0.348584   -2.939612 |
                                       |    2.870081   -2.939612   -0.075803 |
[...]
    16   -1.458727868088e-03
    17   -1.704266336780e-03
    18   -1.999551727574e-04
    19   -2.955845748706e-03
    20    8.925753973909e-03
    21    8.997932819899e-01
    22   -4.263599503838e-04
    23    1.342307610797e-02
    24    7.718110383583e-04
    25    7.123683869574e-02
    26   -5.380435996451e-02
    27   -1.402240257108e+00
    28    9.312632478213e-02
    29   -9.968151204728e-02
    30   -1.387575409594e-03
    31    3.573449563824e-01
    32   -3.680004682619e-01
    33   -4.474411003520e-03
    34    1.510259911203e-02
    35   -1.500020414719e-03
    36   -1.656213588833e-03
    37   -8.794931537783e-04
    38   -3.704123035731e-03
    39    1.483922994899e-02
    40    9.439829841797e-01
    41    1.859882986703e-04
    42   -1.386949848565e-02
    43   -7.990981103556e-04
    44    1.168580909318e-02
    45    9.170950325702e-01
    46    1.409319988292e-02
    47   -4.950893727383e-04
    48    6.363113026730e-04
Sym=X
Ene= 0.232182
Spin=Alpha
Occup=0
     1   -2.563098448168e-02
     2   -1.201339830725e+00
     3    1.392104034489e-02
     4    3.840215574601e-03
     5    8.930453498759e-04
     6   -2.540623583123e-03
     7    4.218915192107e-03
     8    1.451950103830e-02
     9    1.507118817634e-01
    10    1.597798910492e-01
    11    1.666923376654e-02
    12    5.423070192096e-01
    13    5.506901698124e-01
    14    5.862571861980e-02
    15   -1.487914034251e-04
    16    7.934484957384e-05
    17   -1.735766810296e-05
    18    7.838062193590e-04
    19    3.112524045347e-04
    20    2.430623751457e-02
    21    1.156073307698e+00
    22    2.387904350984e-03
    23    1.393188562810e-02
    24    9.400035632926e-04
    25    5.468996558946e-03
    26   -6.598186171983e-03
    27   -9.352832309102e-02
    28    1.583922111369e-01
    29    1.556244347800e-01
    30    1.650047932226e-02
    31    5.902150205593e-01
    32    5.443248898600e-01
    33    5.932961861287e-02
    34    7.504074334661e-04
    35   -1.160004745876e-04
    36   -9.359217774301e-05
    37   -4.120319278658e-04
    38   -5.855410031339e-04
    39   -2.461828833976e-02
    40   -1.129647860987e+00
    41    2.395201960631e-03
    42    1.318550239805e-02
    43    8.804882872894e-04
    44    2.499471197786e-02
    45    1.274688942804e+00
    46    1.476269170759e-02
    47    4.146621347110e-03
    48    9.342675455140e-04
Sym=X
Ene= 0.239994
Spin=Alpha
Occup=0
     1    1.519654906622e-02
     2    1.030233968937e+00
     3   -1.623752777555e-02
     4   -9.142205495708e-03
     5   -1.307850977062e-03
     6    8.694167438050e-02
     7   -7.904071878064e-02
     8   -1.620428612256e+00
     9   -5.165251074809e-02
    10    6.518701378178e-02
    11    1.402191114375e-03
    12   -1.884310616969e-01
    13    2.544023122136e-01
    14    6.122197168320e-03
    15    2.283244676218e-02
    16   -2.607524330641e-03
    17   -3.047436741103e-03
    18    1.164951269183e-03
    19   -1.321262908886e-02
    20    1.743520911101e-02
    21    1.163809249758e+00
    22    8.550472429657e-03
    23    1.852809796891e-02
    24    1.497277388058e-03
    25   -8.643640731788e-02
    26    7.986504699468e-02
    27    1.588615169932e+00
    28   -5.071188274950e-02
    29    6.234424662262e-02
    30    1.218221225693e-03
    31   -1.958208673282e-01
    32    2.204607641577e-01
    33    3.520471442600e-03
    34   -2.222978314089e-02
    35    2.637541087094e-03
    36    2.875056071533e-03
    37    5.228546998205e-04
    38    1.332928130449e-02
    39   -1.818765289326e-02
    40   -1.109855208415e+00
    41    8.397108237578e-03
    42    1.726939158622e-02
    43    1.406783561524e-03
    44   -1.756089951337e-02
    45   -1.045306133148e+00
    46   -1.674986881412e-02
    47   -8.361055697202e-03
    48   -1.284972049421e-03
Sym=X
Ene= 0.303031
Spin=Alpha
Occup=0
     1   -2.031216003428e-02
     2    1.722204586939e+00
     3   -2.317349432015e-02
     4   -4.739137176818e-05
     5   -1.100641134655e-03
     6    1.002738959366e-03
     7    7.716091193544e-04
     8   -5.505374136398e-02
     9   -1.371649236369e-01
    10   -1.394044824448e-01
    11   -1.477136735055e-02
    12   -1.138215086227e+00
    13   -1.207592099793e+00
    14   -1.251479191531e-01
    15    6.909520644694e-04
    16   -1.656003598224e-03
    17    1.690379352970e-03
    18   -3.137519413661e-02
    19   -1.948745784275e-03
    20    1.867715775039e-02
    21   -1.686093755381e+00
    22    1.556998591474e-03
    23   -2.222139712448e-02
    24   -1.243447424680e-03
    25   -1.240141224888e-03
    26    3.005996435019e-04
    27    2.034627308290e-02
    28    1.337608995183e-01
    29    1.372801512820e-01
    30    1.431708066743e-02
    31    1.167416373626e+00
    32    1.173526258433e+00
    33    1.239470643469e-01
    34   -5.562583090708e-04
    35   -1.519251601217e-03
    36    1.846010415513e-03
    37   -3.154196995389e-02
    38   -1.223215405660e-03
    39    1.829971150028e-02
    40   -1.676490462038e+00
    41   -6.731597477077e-04
    42    2.275986360697e-02
    43    1.302179813717e-03
    44   -2.269455833390e-02
    45    1.680266900832e+00
    46    2.226258152719e-02
    47    2.017475571119e-04
    48    1.057157554973e-03
Sym=X
Ene= 0.459709
Spin=Alpha
Occup=0
     1    1.063224739728e-01
     2    7.147188917569e-01
     3    1.524527524691e-02
     4    9.667113528232e-03
     5    1.298006942968e-03
     6   -5.993774286985e-02
     7   -1.710352055282e-02
     8    3.556021588972e+00
     9   -1.069903317441e-01
    10    1.022731574665e-01
    11    9.352876699869e-04
    12   -2.391012064887e+00
    13    2.266472032747e+00
    14    2.094258737999e-02
    15   -5.241240109198e-02
    16    3.166943387718e-03
    17    4.498405767894e-03
    18   -3.864480661916e-04
    19   -1.948805829168e-02
    20    1.163161122731e-01
    21    6.937829235348e-01
    22   -7.859128710495e-03
    23   -1.677221334847e-02
    24   -1.368315855869e-03
    25    5.967001772545e-02
    26    2.062868799214e-02
    27   -3.566192045105e+00
    28   -9.893314445774e-02
    29    9.925342349339e-02
    30    1.103803123073e-03
    31   -2.400516514123e+00
    32    2.279064837374e+00
    33    2.109152892265e-02
    34    5.570522394452e-02
    35   -3.618838408727e-03
    36   -4.886346159364e-03
    37   -5.190512364315e-04
    38    1.620255250797e-02
    39   -1.395764912835e-01
    40   -6.532876096790e-01
    41   -7.881293292477e-03
    42   -1.702845142462e-02
    43   -1.367305393744e-03
    44   -1.194146895090e-01
    45   -7.114351253141e-01
    46    1.613410274521e-02
    47    1.146113923893e-02
    48    1.425149555918e-03
Sym=X
Ene= 0.575546
Spin=Alpha
Occup=0
     1   -2.613427998414e-01
     2   -6.643096884876e-02
     3    1.610319899711e-02
     4   -2.528273557990e-02
     5   -7.294474734830e-04
     6    6.143139802185e-03
     7    1.509001976041e-01
     8    3.412936078025e-01
     9   -2.887330261379e-01
    10    2.806323579638e-01
    11    2.935960659210e-03
    12    7.967337600554e-01
    13   -7.736160283578e-01
    14   -7.911923971339e-03
    15    9.659017920499e-03
    16   -4.182990351961e-03
    17   -4.162168254365e-03
    18    4.626253953543e-03
    19   -6.090501884210e-02
    20   -2.565651339957e-01
    21   -5.402714629965e-02
    22    2.850655814006e-02
    23   -1.558209434490e-02
    24    4.315358499636e-04
    25    2.551330120205e-03
    26    1.489007168597e-01
    27    5.208154556871e-01
    28    2.907614492431e-01
    29   -2.915400499339e-01
    30   -3.470348758711e-03
    31   -6.518539544195e-01
    32    6.549547149534e-01
    33    7.707690725603e-03
    34    9.577769522664e-03
    35   -4.061168463512e-03
    36   -4.342167295895e-03
    37    7.530614020579e-03
    38   -6.140625065865e-02
    39   -2.790247872871e-01
    40    2.800883237774e-02
    41   -2.551418963487e-02
    42    1.367069983388e-02
    43   -4.015720191305e-04
    44   -2.453554842391e-01
    45   -2.606266719527e-02
    46   -1.717103541143e-02
    47    2.571294396394e-02
    48    6.979954772039e-04
Sym=X
Ene= 0.619364
Spin=Alpha
Occup=0
     1    5.246092209506e-01
     2   -1.973676587804e-01
     3    6.331372408140e-02
     4   -3.876191449316e-02
     5    6.971923513483e-04
     6    8.766688779148e-04
     7   -5.840757162013e-03
     8    7.967209989123e-02
     9    4.069157086438e-02
    10    3.705324408513e-02
    11    4.059716733792e-03
    12   -3.309609865115e-01
    13   -2.808695360644e-01
    14   -3.251131258403e-02
    15   -2.474648863529e-03
    16    7.606642766709e-03
    17   -8.590576228396e-03
    18    1.525912805019e-01
    19    3.311939347937e-03
    20   -5.195403697793e-01
    21    2.079293055357e-01
    22   -4.063229054543e-02
    23    5.939142319900e-02
    24    1.570085752420e-03
    25   -2.457074929949e-03
    26   -5.424547850604e-03
    27   -1.877582170699e-02
    28    4.068517664535e-02
    29    2.915915076976e-02
    30    3.675760431340e-03
    31   -3.408152728326e-01
    32   -2.183965236304e-01
    33   -2.859992936962e-02
    34    6.021355313818e-03
    35   -7.785546392640e-03
    36    7.986117252899e-03
    37   -1.494968833983e-01
    38   -3.777417820329e-03
    39    4.863682273568e-01
    40   -2.167751909416e-01
    41   -4.516292667070e-02
    42    5.890967675226e-02
    43    1.339014717705e-03
    44   -5.388210508983e-01
    45    1.890655765674e-01
    46    6.355220596752e-02
    47   -3.738443597578e-02
    48    8.151232423161e-04
Sym=X
Ene= 0.689160
Spin=Alpha
Occup=0
     1   -7.533765753985e-05
     2   -2.424362469073e-04
     3    1.004434112166e-03
     4    1.251316911307e-03
     5   -2.101557137126e-02
     6   -6.747146424369e-06
     7    1.036305471212e-06
     8   -9.232223380893e-05
     9    3.178191090894e-02
    10    3.960198761635e-02
    11   -6.699243398539e-01
    12   -2.889429383814e-02
    13   -3.651881577432e-02
    14    6.128224639426e-01
    15   -1.246135557651e-03
    16    8.284072166284e-02
    17   -7.851743300010e-02
    18   -8.483092193874e-03
    19   -1.198283369717e-03
    20   -1.318893730725e-04
    21    4.604235456690e-05
    22    1.025336099943e-03
    23    1.250536269336e-03
    24   -2.092583950796e-02
    25    3.857133966576e-06
    26   -8.670355946896e-05
    27    1.436903759179e-04
    28    3.152451091986e-02
    29    3.935963580385e-02
    30   -6.709605911991e-01
    31   -2.853176523400e-02
    32   -3.615362478348e-02
    33    6.136737606445e-01
    34    1.251614933826e-03
    35   -8.246588423362e-02
    36    7.802129189909e-02
    37    8.539748185417e-03
    38    1.193937903009e-03
    39    1.301007265800e-05
    40    2.873284838837e-04
    41    8.983333417442e-04
    42    1.109618037816e-03
    43   -1.939944245338e-02
    44    8.358352824424e-05
    45    9.585827530542e-06
    46    9.980418481886e-04
    47    1.206431563520e-03
    48   -2.103206445772e-02
Sym=X
Ene= 0.706287
Spin=Alpha
Occup=0
     1   -4.663437934954e-01
     2    1.446602243512e-01
     3   -8.165645767374e-02
     4   -4.198708888982e-02
     5   -6.337870179375e-03
     6   -4.492721643369e-02
     7   -3.232874023986e-01
     8    3.757269323375e-01
     9    2.148565017128e-01
    10   -1.975393369034e-01
    11   -1.458700870038e-03
    12   -5.415773865186e-02
    13    3.304551594709e-02
    14   -4.839913848056e-04
    15    1.910728847153e-01
    16   -2.016591344710e-02
    17   -2.302792775427e-02
    18   -1.865427475181e-03
    19   -7.299141848467e-02
    20   -4.516508656342e-01
    21    1.146252044971e-01
    22    3.999351047093e-02
    23    7.788800509711e-02
    24    6.507294031107e-03
    25   -4.933417826582e-02
    26   -3.153412353091e-01
    27    5.320926046260e-01
    28   -2.083334008779e-01
    29    2.033099032921e-01
    30    2.193537715788e-03
    31    1.697438789798e-01
    32   -1.420868654752e-01
    33   -6.076258525349e-04
    34    1.944902585457e-01
    35   -2.047033985121e-02
    36   -2.388927384078e-02
    37    3.572826265702e-03
    38   -7.958708117876e-02
    39   -4.904182852258e-01
    40    1.893909432587e-01
    41   -4.137874158348e-02
    42   -8.242028095469e-02
    43   -6.793987913843e-03
    44   -4.663617470531e-01
    45    1.843297316867e-01
    46    8.209808866316e-02
    47    4.274975366895e-02
    48    6.363533217695e-03
Sym=X
Ene= 0.784186
Spin=Alpha
Occup=0
     1   -5.302788002158e-01
     2    4.752136546536e-01
     3   -1.079153506653e-01
     4   -2.850746809469e-02
     5   -6.799661430783e-03
     6   -9.246567784224e-02
     7    2.050702325697e-01
     8    7.495933033925e-01
     9   -1.117144600266e-01
    10    9.609818901847e-02
    11    5.532982440455e-04
    12   -3.596928687466e-01
    13    3.424940661348e-01
    14    2.992756885530e-03
    15    2.091497676397e-01
    16   -1.779766323384e-02
    17   -2.275765466602e-02
    18    8.178500897742e-03
    19   -1.487681846746e-02
    20   -5.592389475085e-01
    21    5.013505803188e-01
    22    2.142876537784e-02
    23    1.172215266577e-01
    24    7.954765944407e-03
    25    9.014043794173e-02
    26   -2.268440148602e-01
    27   -6.821830258460e-01
    28   -1.113152335391e-01
    29    9.913480936732e-02
    30    5.265594861997e-04
    31   -3.795589293399e-01
    32    3.645063430639e-01
    33    3.778389374237e-03
    34   -2.011193625913e-01
    35    1.723965659269e-02
    36    2.139196391065e-02
    37   -2.840886347651e-03
    38    1.537149363560e-02
    39    5.370656477936e-01
    40   -5.153564840104e-01
    41    2.159955677188e-02
    42    1.129514285570e-01
    43    7.635165681110e-03
    44    5.079494941956e-01
    45   -4.877654718087e-01
    46   -1.085992089653e-01
    47   -2.425213747153e-02
    48   -6.523779206126e-03
Sym=X
Ene= 0.808030
Spin=Alpha
Occup=0
     1    7.355411325454e-05
     2   -4.495879477122e-04
     3   -1.553713833307e-03
     4   -1.963023051425e-03
     5    3.384133808260e-02
     6    1.706159956650e-05
     7   -1.064572473093e-04
     8    5.033115186348e-06
     9   -3.623927027777e-02
    10   -4.529818740119e-02
    11    7.635594421421e-01
    12    5.363395779075e-02
    13    6.687369218358e-02
    14   -1.127315389419e+00
    15   -1.041028809973e-03
    16    6.525476622189e-02
    17   -6.196812828145e-02
    18   -6.631128270770e-03
    19   -9.317314184754e-04
    20    7.411008032582e-05
    21    3.194136420045e-04
    22   -1.605665375262e-03
    23   -2.004604227578e-03
    24    3.452823375058e-02
    25   -1.109063459474e-05
    26   -3.797240074695e-05
    27    6.146839631319e-05
    28    3.578126760121e-02
    29    4.464742468614e-02
    30   -7.628496934618e-01
    31   -5.271044621499e-02
    32   -6.601042022220e-02
    33    1.126753717855e+00
    34   -9.462619876938e-04
    35    6.538103844274e-02
    36   -6.197829261357e-02
    37   -6.835393857858e-03
    38   -9.335219144982e-04
    39   -6.537940872109e-05
    40   -2.594880912564e-04
    41    1.673772782915e-03
    42    2.034411876218e-03
    43   -3.471171238535e-02
    44   -8.320847148180e-05
    45    4.801642008666e-04
    46    1.662101040697e-03
    47    1.997762308328e-03
    48   -3.354760800894e-02
Sym=X
Ene= 0.862067
Spin=Alpha
Occup=0
     1    6.591735353177e-03
     2   -1.081641056710e+00
     3    1.480152922856e-01
     4    5.692110198008e-02
     5    1.038741143911e-02
     6    1.089321567338e-03
     7   -1.339132184961e-02
     8    1.294374859123e-02
     9   -3.987472989305e-01
    10   -4.323011886859e-01
    11   -4.470632259365e-02
    12    9.354505556599e-01
    13    1.014493784278e+00
    14    1.048636049146e-01
    15   -2.305021121127e-03
    16    1.159862859523e-02
    17   -1.323204618741e-02
    18    2.337500528391e-01
    19    6.264468457033e-03
    20   -3.672031374824e-04
    21    1.095639087760e+00
    22    5.126946508079e-02
    23    1.486769294819e-01
    24    1.119376692030e-02
    25   -2.136671445330e-03
    26   -5.047484787432e-03
    27   -2.939870870530e-03
    28   -4.089530800070e-01
    29   -4.370768216614e-01
    30   -4.462098965980e-02
    31    9.615833221665e-01
    32    1.006221309644e+00
    33    1.036928054472e-01
    34    6.771644966772e-03
    35   -1.152498361104e-02
    36    1.285716330036e-02
    37   -2.310035385833e-01
    38   -1.030810186048e-03
    39    9.576780678167e-03
    40   -1.110142956919e+00
    41    5.726210095159e-02
    42    1.500907089654e-01
    43    1.148843293638e-02
    44   -2.009337215717e-02
    45    1.096504880001e+00
    46    1.493739577542e-01
    47    5.775645960968e-02
    48    1.043994872783e-02
Sym=X
Ene= 0.935181
Spin=Alpha
Occup=0
     1    1.160936349891e-01
     2   -1.322355352214e+00
     3    1.827842948128e-01
     4   -2.704894411545e-03
     5    8.489210765145e-03
     6   -7.230383424747e-04
     7    1.263008660285e-02
     8   -4.387410560675e-02
     9   -4.913058994926e-01
    10   -4.867923203117e-01
    11   -5.201624472849e-02
    12    1.532442946769e+00
    13    1.499631379103e+00
    14    1.610848783866e-01
    15    2.126527441234e-03
    16    6.160552971052e-03
    17   -6.793652094529e-03
    18    1.191793406936e-01
    19    1.147807420208e-02
    20   -1.158122424377e-01
    21    1.272537380904e+00
    22   -1.340315738520e-02
    23    1.816073445752e-01
    24    1.012883547286e-02
    25    1.399469917991e-03
    26    3.110983081589e-02
    27   -8.879969028650e-03
    28    4.545739092643e-01
    29    5.122723822312e-01
    30    5.149034859031e-02
    31   -1.429714965938e+00
    32   -1.579128381817e+00
    33   -1.600976150821e-01
    34   -6.837906656304e-04
    35    4.283281607999e-03
    36   -7.313397059326e-03
    37    1.124931433217e-01
    38   -1.716202332247e-02
    39   -1.194502625964e-01
    40    1.315432191575e+00
    41    8.004459613592e-04
    42   -1.860937114416e-01
    43   -1.088311459957e-02
    44    1.053116581508e-01
    45   -1.227089560139e+00
    46   -1.727452486266e-01
    47    9.710758302030e-03
    48   -7.532059844280e-03
Sym=X
Ene= 0.971038
Spin=Alpha
Occup=0
     1   -6.819465280944e-02
     2    8.411011718939e-01
     3   -7.869504971823e-02
     4   -9.575907913097e-02
     5   -9.379194635441e-03
     6    2.557543649743e-02
     7    1.995816140355e-01
     8    6.141215372539e-01
     9    4.601207135586e-01
    10   -4.686888065355e-01
    11   -5.914300469287e-03
    12   -1.403507347632e+00
    13    1.470602878066e+00
    14    2.048812508723e-02
    15   -5.588071595154e-02
    16   -1.244458228555e-02
    17   -9.204637151253e-03
    18    1.360465888059e-02
    19   -2.982263010337e-01
    20   -5.286591361386e-02
    21    9.223190300505e-01
    22    9.301906591241e-02
    23    9.126610883937e-02
    24    9.763745588097e-03
    25   -2.643518408767e-02
    26   -2.719650533647e-01
    27   -4.936216462505e-01
    28    5.029935259118e-01
    29   -4.397542549618e-01
    30   -2.119170859384e-03
    31   -1.568628418902e+00
    32    1.324424303492e+00
    33    3.890507960414e-03
    34    6.046458389283e-02
    35    1.320673732013e-02
    36    8.541325491070e-03
    37   -2.223234384762e-03
    38    3.082980648025e-01
    39    5.814791297108e-02
    40   -8.378227986357e-01
    41    9.822955887786e-02
    42    8.104768893368e-02
    43    9.367125004693e-03
    44    6.054636870778e-02
    45   -1.001942481484e+00
    46   -9.991224874197e-02
    47   -9.786274269392e-02
    48   -1.049664923329e-02
[5D]

======= END OF MOLDEN-FORMATTED INPUT FILE =======


        *************************************************************
        *                                                           *
        *  Thank you very much for using Q-Chem.  Have a nice day.  *
        *                                                           *
        *************************************************************


