                  Welcome to Q-Chem
     A Quantum Leap Into The Future Of Chemistry


 Q-Chem 5.4 (devel), Q-Chem, Inc., Pleasanton, CA (2021)

 E. Epifanovsky,  A. T. B. Gilbert,  Xintian Feng,  Joonho Lee,  Yuezhi Mao,  
 N. Mardirossian,  P. Pokhilko,  A. White,  M. Wormit,  M. P. Coons,  
 A. L. Dempwolff,  Zhengting Gan,  D. Hait,  P. R. Horn,  L. D. Jacobson,  
 I. Kaliman,  J. Kussmann,  A. W. Lange,  Ka Un Lao,  D. S. Levine,  Jie Liu,  
 S. C. McKenzie,  A. F. Morrison,  K. Nanda,  F. Plasser,  D. R. Rehn,  
 M. L. Vidal,  Zhi-Qiang You,  Ying Zhu,  B. Alam,  B. Albrecht,  
 A. Aldossary,  E. Alguire,  J. H. Andersen,  D. Barton,  K. Begam,  A. Behn,  
 Y. A. Bernard,  E. J. Berquist,  H. Burton,  A. Carreras,  K. Carter-Fenk,  
 R. Chakraborty,  A. D. Chien,  K. D. Closser,  V. Cofer-Shabica,  
 S. Dasgupta,  Jia Deng,  M. de Wergifosse,  M. Diedenhofen,  Hainam Do,  
 S. Ehlert,  Po-Tung Fang,  S. Fatehi,  Qingguo Feng,  T. Friedhoff,  
 J. Gayvert,  Qinghui Ge,  G. Gidofalvi,  M. Goldey,  J. Gomes,  
 C. Gonzalez-Espinoza,  S. Gulania,  A. Gunina,  M. W. D. Hanson-Heine,  
 P. H. P. Harbach,  A. W. Hauser,  M. F. Herbst,  M. Hernandez Vera,  
 M. Hodecker,  Z. C. Holden,  S. Houck,  Xunkun Huang,  Kerwin Hui,  
 B. C. Huynh,  M. Ivanov,  Hyunjun Ji,  Hanjie Jiang,  B. Kaduk,  S. Kaehler,  
 K. Khistyaev,  Jaehoon Kim,  P. Klunzinger,  Z. Koczor-Benda,  
 Joong Hoon Koh,  D. Kosenkov,  L. Koulias,  T. Kowalczyk,  C. M. Krauter,  
 K. Kue,  A. Kunitsa,  T. Kus,  A. Landau,  K. V. Lawler,  D. Lefrancois,  
 S. Lehtola,  Rain Li,  Yi-Pei Li,  Jiashu Liang,  M. Liebenthal,  
 Hung-Hsuan Lin,  You-Sheng Lin,  Fenglai Liu,  Kuan-Yu Liu,  
 M. Loipersberger,  A. Luenser,  A. Manjanath,  P. Manohar,  E. Mansoor,  
 S. F. Manzer,  Shan-Ping Mao,  A. V. Marenich,  T. Markovich,  S. Mason,  
 S. A. Maurer,  P. F. McLaughlin,  M. F. S. J. Menger,  J.-M. Mewes,  
 S. A. Mewes,  P. Morgante,  J. W. Mullinax,  K. J. Oosterbaan,  G. Paran,  
 Alexander C. Paul,  Suranjan K. Paul,  F. Pavosevic,  Zheng Pei,  S. Prager,  
 E. I. Proynov,  E. Ramos,  B. Rana,  A. E. Rask,  A. Rettig,  R. M. Richard,  
 F. Rob,  E. Rossomme,  T. Scheele,  M. Scheurer,  M. Schneider,  
 N. Sergueev,  S. M. Sharada,  W. Skomorowski,  D. W. Small,  C. J. Stein,  
 Yu-Chuan Su,  E. J. Sundstrom,  Zhen Tao,  J. Thirman,  T. Tsuchimochi,  
 N. M. Tubman,  S. P. Veccham,  O. Vydrov,  J. Wenzel,  J. Witte,  A. Yamada,  
 Kun Yao,  S. Yeganeh,  S. R. Yost,  A. Zech,  Igor Ying Zhang,  Xing Zhang,  
 Yu Zhang,  D. Zuev,  A. Aspuru-Guzik,  A. T. Bell,  N. A. Besley,  
 K. B. Bravaya,  B. R. Brooks,  D. Casanova,  Jeng-Da Chai,  S. Coriani,  
 C. J. Cramer,  A. E. DePrince, III,  R. A. DiStasio Jr.,  A. Dreuw,  
 B. D. Dunietz,  T. R. Furlani,  W. A. Goddard III,  S. Grimme,  
 S. Hammes-Schiffer,  T. Head-Gordon,  W. J. Hehre,  Chao-Ping Hsu,  
 T.-C. Jagau,  Yousung Jung,  A. Klamt,  Jing Kong,  D. S. Lambrecht,  
 WanZhen Liang,  N. J. Mayhall,  C. W. McCurdy,  J. B. Neaton,  
 C. Ochsenfeld,  J. A. Parkhill,  R. Peverati,  V. A. Rassolov,  Yihan Shao,  
 L. V. Slipchenko,  T. Stauch,  R. P. Steele,  J. E. Subotnik,  
 A. J. W. Thom,  A. Tkatchenko,  D. G. Truhlar,  T. Van Voorhis,  
 T. A. Wesolowski,  K. B. Whaley,  H. L. Woodcock III,  P. M. Zimmerman,  
 S. Faraji,  P. M. W. Gill,  M. Head-Gordon,  J. M. Herbert,  A. I. Krylov

 Additional authors for Version 5.4.1: 
 S. Kotaru,  Shaozhi Li,  Xiangyuan Li,  F. Matz,  A. Molle,  Haisheng Ren,  
 Yingli Su,  Hung-Yi Tsai,  C. Utku,  Fang Wang

 Contributors to earlier versions of Q-Chem not listed above: 
 R. D. Adamson,  B. Austin,  R. Baer,  J. Baker,  G. J. O. Beran,  
 K. Brandhorst,  S. T. Brown,  E. F. C. Byrd,  A. K. Chakraborty,  
 G. K. L. Chan,  Chun-Min Chang,  Yunqing Chen,  C.-L. Cheng,  
 Siu Hung Chien,  D. M. Chipman,  D. L. Crittenden,  H. Dachsel,  
 R. J. Doerksen,  A. D. Dutoi,  R. G. Edgar,  J. Fosso-Tande,  
 L. Fusti-Molnar,  D. Ghosh,  A. Ghysels,  A. Golubeva-Zadorozhnaya,  
 J. Gonthier,  M. S. Gordon,  S. R. Gwaltney,  G. Hawkins,  J. E. Herr,  
 A. Heyden,  S. Hirata,  E. G. Hohenstein,  G. Kedziora,  F. J. Keil,  
 C. Kelley,  Jihan Kim,  R. A. King,  R. Z. Khaliullin,  P. P. Korambath,  
 W. Kurlancheek,  A. Laurent,  A. M. Lee,  M. S. Lee,  S. V. Levchenko,  
 Ching Yeh Lin,  D. Liotard,  E. Livshits,  R. C. Lochan,  I. Lotan,  
 L. A. Martinez-Martinez,  P. E. Maslen,  N. Nair,  D. P. O'Neill,  
 D. Neuhauser,  E. Neuscamman,  C. M. Oana,  R. Olivares-Amaya,  R. Olson,  
 T. M. Perrine,  B. Peters,  P. A. Pieniazek,  A. Prociuk,  Y. M. Rhee,  
 J. Ritchie,  M. A. Rohrdanz,  E. Rosta,  N. J. Russ,  H. F. Schaefer III,  
 M. W. Schmidt,  N. E. Schultz,  S. Sharma,  N. Shenvi,  C. D. Sherrill,  
 A. C. Simmonett,  A. Sodt,  T. Stein,  D. Stuck,  K. S. Thanthiriwatte,  
 V. Vanovschi,  L. Vogt,  Tao Wang,  A. Warshel,  M. A. Watson,  
 C. F. Williams,  Q. Wu,  X. Xu,  Jun Yang,  W. Zhang,  Yan Zhao

 Please cite Q-Chem as follows:
 Y. Shao et al., Mol. Phys. 113, 184-215 (2015)
 DOI: 10.1080/00268976.2014.952696

 Q-Chem 5.4.1 for Intel X86 EM64T Linux

 Parts of Q-Chem use Armadillo 9.800.1 (Horizon Scraper).
 http://arma.sourceforge.net/

 Q-Chem begins on Thu Nov 17 00:22:07 2022  

 Host: cpu316.baobab
0

     Scratch files written to /scratch/fum/qchem15133//
 Processing $rem in /home/share/wesolowski/qc5.aug2021.FDE/config/preferences:
 Processing $rem in /home/fum/.qchemrc:

 Checking the input file for inconsistencies... 	...done.

--------------------------------------------------------------
User input:
--------------------------------------------------------------
$comment
generated from CCJob.Templates
$end

$rem
sym_ignore = true
method = adc(2)
ee_states = 10
basis = cc-pVDZ
mem_static = 1024
mem_total = 30000
adc_davidson_maxiter = 900
adc_davidson_conv = 6
adc_print = 3
adc_prop_es = true
adc_prop_es2es = true
adc_prop_tpa = true
molden_format = True
state_analysis = true
print_orbitals = 15
gen_scfman = false
fde_export_density = true
fde_details = 3
$end

$molecule
0 1
H -0.0348278765 -0.2442097827 0.0636489606
C -1.0765972949 -0.5242748755 -0.0023551776
H -1.313264467 -1.5767591607 -0.0757276926
C -2.043634118 0.3976884087 0.0061254933
H -1.8137616575 1.4459188338 0.0804456828
H -3.085977293 0.114931858 -0.0593381042                     
$end
--------------------------------------------------------------
 ----------------------------------------------------------------
             Standard Nuclear Orientation (Angstroms)
    I     Atom           X                Y                Z
 ----------------------------------------------------------------
    1      H      -0.0348278765    -0.2442097827     0.0636489606
    2      C      -1.0765972949    -0.5242748755    -0.0023551776
    3      H      -1.3132644670    -1.5767591607    -0.0757276926
    4      C      -2.0436341180     0.3976884087     0.0061254933
    5      H      -1.8137616575     1.4459188338     0.0804456828
    6      H      -3.0859772930     0.1149318580    -0.0593381042
 ----------------------------------------------------------------
 Nuclear Repulsion Energy =          33.39214255 hartrees
 There are        8 alpha and        8 beta electrons
 Requested basis set is cc-pVDZ
 There are 24 shells and 48 basis functions
 Total memory of 30000 MB is distributed as follows: 
   MEM_STATIC is set to 1024 MB
   QALLOC/CCMAN JOB total memory use is  28976 MB
 Warning: actual memory use might exceed 30000 MB

 Total QAlloc Memory Limit  30000 MB
 Mega-Array Size      1001 MB
 MEM_STATIC part      1024 MB

                       Distance Matrix (Angstroms)
             H (  1)   C (  2)   H (  3)   C (  4)   H (  5)
   C (  2)  1.080776
   H (  3)  1.851895  1.081258
   C (  4)  2.109655  1.336132  2.106794
   H (  5)  2.453859  2.105215  3.067812  1.075710
   H (  6)  3.074674  2.109370  2.450428  1.081996  1.846510

 A cutoff of  1.0D-11 yielded    300 shell pairs
 There are      1220 function pairs (      1329 Cartesian)
 Smallest overlap matrix eigenvalue = 4.86E-03

 Scale SEOQF with 1.000000e-01/1.000000e-01/1.000000e+00

 Standard Electronic Orientation quadrupole field applied
 Nucleus-field energy     =     0.0000000022 hartrees
 Guess from superposition of atomic densities
 Warning:  Energy on first SCF cycle will be non-variational
 SAD guess density has 16.000000 electrons
 A restricted Hartree-Fock SCF calculation will be
 performed using Pulay DIIS extrapolation
 SCF converges when DIIS error is below 1.0E-08
 using 8 threads for integral computing
 -------------------------------------------------------
 OpenMP Integral computing Module                
 Release: version 1.0, May 2013, Q-Chem Inc. Pittsburgh 
 -------------------------------------------------------
 ---------------------------------------
  Cycle       Energy         DIIS Error
 ---------------------------------------
    1     -78.4344565747      1.01E-01
    2     -78.0175689211      7.20E-03
    3     -78.0381780486      1.84E-03
    4     -78.0396573085      5.68E-04
    5     -78.0397767513      5.81E-05
    6     -78.0397786300      9.71E-06
    7     -78.0397786922      2.99E-06
    8     -78.0397786961      1.12E-06
    9     -78.0397786966      1.09E-07
   10     -78.0397786966      2.64E-08
   11     -78.0397786966      7.29E-09 Convergence criterion met
 ---------------------------------------
 SCF time:  CPU 1.52 s  wall 2.12 s
 SCF   energy in the final basis set = -78.03977870
 Total energy in the final basis set = -78.03977870
Exporting Density Matrix to file 'Densmat_SCF.txt'.
Export successful
================================================================================
|                                                                              |
|                                 A D C  M A N                                 |
|                                                                              |
 ------------------------------------------------------------------------------ 
|                                                                              |
| Components:                                                                  |
|                                                                              |
| - libvmm - 1.3-trunk                                                         |
|   Authors:                                                                   |
|   Evgeny Epifanovsky, Ilya Kaliman                                           |
|                                                                              |
| - libtensor - 2.5-trunk                                                      |
|   Authors:                                                                   |
|   Evgeny Epifanovsky, Michael Wormit, Dmitry Zuev, Sam Manzer,               |
|   Ilya Kaliman                                                               |
|                                                                              |
| - libwfa - 1.1-trunk                                                         |
|   Authors:                                                                   |
|   Felix Plasser, Stefanie Mewes (Baeppler), Benjamin Thomitzni,              |
|   Michael Wormit, Feng Chen, Anna I. Krylov, Pavel Pokhilko                  |
|                                                                              |
| - libadc - 1.1-trunk                                                         |
|   Authors:                                                                   |
|   Michael Wormit, Adrian L. Dempwolff, Philipp H. P. Harbach,                |
|   Caroline Krauter, Dirk Rehn, Matthias Schneider, Jan Wenzel                |
|                                                                              |
| - adcman - 2.6-trunk                                                         |
|   Authors:                                                                   |
|   Michael Wormit, Adrian L. Dempwolff, Philipp H. P. Harbach,                |
|   Caroline Krauter, Daniel Lefrancois, Jan-Michael Mewes, Dirk Rehn,         |
|   Matthias Schneider, Jan Wenzel, Andreas Dreuw                              |
|                                                                              |
| Authors of earlier versions of ADCMAN:                                       |
| Andreas Dreuw, Jan Hendrik Starcke, Dirk Rehn, Michael Wormit                |
|                                                                              |
================================================================================

 Created directory /scratch/fum/qchem15133/plots
  Import QC data ...  CPU 0.00 s  wall 0.00 s

 Alpha MOs, Restricted
 -- Occupied --                  
-11.235 -11.234  -1.031  -0.790  -0.641  -0.581  -0.506  -0.373
  1 A     2 A     3 A     4 A     5 A     6 A     7 A     8 A                  
 -- Virtual --                   
  0.168   0.204   0.233   0.240   0.303   0.461   0.578   0.615
  9 A    10 A    11 A    12 A    13 A    14 A    15 A    16 A                  
  0.690   0.709   0.784   0.808   0.863   0.936   0.971   1.010
 17 A    18 A    19 A    20 A    21 A    22 A    23 A    24 A                  
  1.131   1.234   1.254   1.265   1.293   1.603   1.726   1.750
 25 A    26 A    27 A    28 A    29 A    30 A    31 A    32 A                  
  1.819   1.858   1.866   1.922   1.977   1.979   2.219   2.256
 33 A    34 A    35 A    36 A    37 A    38 A    39 A    40 A                  
  2.376   2.455   2.505   2.631   2.724   2.822   3.142   3.396
 41 A    42 A    43 A    44 A    45 A    46 A    47 A    48 A                  

 Beta MOs, Restricted
 -- Occupied --                  
-11.235 -11.234  -1.031  -0.790  -0.641  -0.581  -0.506  -0.373
  1 A     2 A     3 A     4 A     5 A     6 A     7 A     8 A                  
 -- Virtual --                   
  0.168   0.204   0.233   0.240   0.303   0.461   0.578   0.615
  9 A    10 A    11 A    12 A    13 A    14 A    15 A    16 A                  
  0.690   0.709   0.784   0.808   0.863   0.936   0.971   1.010
 17 A    18 A    19 A    20 A    21 A    22 A    23 A    24 A                  
  1.131   1.234   1.254   1.265   1.293   1.603   1.726   1.750
 25 A    26 A    27 A    28 A    29 A    30 A    31 A    32 A                  
  1.819   1.858   1.866   1.922   1.977   1.979   2.219   2.256
 33 A    34 A    35 A    36 A    37 A    38 A    39 A    40 A                  
  2.376   2.455   2.505   2.631   2.724   2.822   3.142   3.396
 41 A    42 A    43 A    44 A    45 A    46 A    47 A    48 A                  
  Import AO data ...  CPU 0.00 s  wall 0.00 s
  Using point group: C1
  Irreducible representations in point group: A
  Molecular orbitals: 
  Occupied MOs:
  Block   0:   1 (  A) A   2 (  A) A   3 (  A) A   4 (  A) A   5 (  A) A
                  -11.24      -11.23      -1.031     -0.7904     -0.6413
               6 (  A) A   7 (  A) A   8 (  A) A
                 -0.5811     -0.5056     -0.3731
  Block   1:   1 (  A) B   2 (  A) B   3 (  A) B   4 (  A) B   5 (  A) B
                  -11.24      -11.23      -1.031     -0.7904     -0.6413
               6 (  A) B   7 (  A) B   8 (  A) B
                 -0.5811     -0.5056     -0.3731
  Virtual MOs:
  Block   0:   9 (  A) A  10 (  A) A  11 (  A) A  12 (  A) A  13 (  A) A
                  0.1676      0.2036      0.2332      0.2395      0.3031
              14 (  A) A  15 (  A) A  16 (  A) A  17 (  A) A  18 (  A) A
                  0.4613      0.5779      0.6153      0.6899      0.7092
              19 (  A) A  20 (  A) A  21 (  A) A  22 (  A) A
                  0.7838      0.8076       0.863      0.9358
  Block   1:  23 (  A) A  24 (  A) A  25 (  A) A  26 (  A) A  27 (  A) A
                  0.9707        1.01       1.131       1.234       1.254
              28 (  A) A  29 (  A) A  30 (  A) A  31 (  A) A  32 (  A) A
                   1.265       1.293       1.603       1.726        1.75
              33 (  A) A  34 (  A) A  35 (  A) A  36 (  A) A
                   1.819       1.858       1.866       1.922
  Block   2:  37 (  A) A  38 (  A) A  39 (  A) A  40 (  A) A  41 (  A) A
                   1.977       1.979       2.219       2.256       2.376
              42 (  A) A  43 (  A) A  44 (  A) A  45 (  A) A  46 (  A) A
                   2.455       2.505       2.631       2.724       2.822
              47 (  A) A  48 (  A) A
                   3.142       3.396
  Block   3:   9 (  A) B  10 (  A) B  11 (  A) B  12 (  A) B  13 (  A) B
                  0.1676      0.2036      0.2332      0.2395      0.3031
              14 (  A) B  15 (  A) B  16 (  A) B  17 (  A) B  18 (  A) B
                  0.4613      0.5779      0.6153      0.6899      0.7092
              19 (  A) B  20 (  A) B  21 (  A) B  22 (  A) B
                  0.7838      0.8076       0.863      0.9358
  Block   4:  23 (  A) B  24 (  A) B  25 (  A) B  26 (  A) B  27 (  A) B
                  0.9707        1.01       1.131       1.234       1.254
              28 (  A) B  29 (  A) B  30 (  A) B  31 (  A) B  32 (  A) B
                   1.265       1.293       1.603       1.726        1.75
              33 (  A) B  34 (  A) B  35 (  A) B  36 (  A) B
                   1.819       1.858       1.866       1.922
  Block   5:  37 (  A) B  38 (  A) B  39 (  A) B  40 (  A) B  41 (  A) B
                   1.977       1.979       2.219       2.256       2.376
              42 (  A) B  43 (  A) B  44 (  A) B  45 (  A) B  46 (  A) B
                   2.455       2.505       2.631       2.724       2.822
              47 (  A) B  48 (  A) B
                   3.142       3.396
  Import MO data ...  CPU 0.01 s  wall 0.09 s
  Import HF data ...  CPU 0.65 s  wall 0.30 s
  Import 2e integrals ...  CPU 3.70 s  wall 0.56 s

--------------------------------------------------------------------------------
                                   HF Summary                                   
--------------------------------------------------------------------------------
  Energy:                                                  -78.0397786966 a.u.
  Dip. moment [a.u.]:                  [  -0.000063,    0.001169,    0.000687]
  Total dipole [Debye]:                                               0.003451
  <r^2> [a.u.]:                        [ 175.333671,   34.989439,   11.632804]
  Total <r^2> [a.u.]:                                               221.955914
--------------------------------------------------------------------------------
  HF properties ...  CPU 0.01 s  wall 0.00 s
  MP(1) calculation ...  CPU 0.01 s  wall 0.00 s
  N^6 prerequesite intermediates ...  CPU 0.44 s  wall 0.08 s
  Difference density matrix of state mp2_gs printed to ASCII file 'State_mp2_gs_Difference.txt'
Exporting MP density matrix to file 'Densmat_MP.txt'.
Export successful
  Total density matrix of state mp2_gs printed to ASCII file 'State_mp2_gs_Total.txt'
Exporting MP density matrix to file 'Densmat_MP.txt'.
Export successful

--------------------------------------------------------------------------------
                                 MP(2) Summary                                  
--------------------------------------------------------------------------------
  MP energy contribution:                                   -0.2798546515 a.u.
  Total energy:                                            -78.3196333482 a.u.
  Dip. moment [a.u.]:                  [  -0.000207,    0.000954,    0.000659]
  Total dipole [Debye]:                                               0.002994
  <r^2> [a.u.]:                        [ 175.377983,   35.030920,   11.462544]
  Total <r^2> [a.u.]:                                               221.871447

  Density matrix analysis:
  ------------------------
  NOs
    Occupation of frontier NOs:
       0.0456   1.9380
    Number of electrons: 16.000000
    Number of unpaired electrons: n_u =  0.40408, n_u,nl =  0.04532
    NO participation ratio (PR_NO): 13.825427
  
  
  Mulliken Population Analysis
  Atom      Charge (e)              h+              e-           Del q
  --------------------------------------------------------------------
   1 H        0.051010        0.014046       -0.011203        0.002844
   2 C       -0.102329        0.093564       -0.099193       -0.005630
   3 H        0.050904        0.014059       -0.011199        0.002860
   4 C       -0.100056        0.093161       -0.099087       -0.005926
   5 H        0.049517        0.014149       -0.011180        0.002969
   6 H        0.050955        0.014071       -0.011188        0.002884
  --------------------------------------------------------------------
  Sum:        0.000000        0.243050       -0.243050       -0.000000
  
  Multipole moment analysis of the density matrix
    Molecular charge:                      0.000000
    Number of electrons:                   16.000000
      Center of electronic charge [Ang]: [ -1.560569,  -0.063759,   0.001956]
    Total nuclear charge:                  16.000000
      Center of nuclear charge [Ang]:    [ -1.560576,  -0.063727,   0.001978]
    Dipole moment [D]:                     0.002994
      Cartesian components [D]:          [ -0.000527,   0.002425,   0.001676]
    RMS size of the density [Ang]:         1.201541
      Cartesian components [Ang]:        [  0.796273,   0.780409,   0.447896]
  
  Exciton analysis of the difference density matrix
    <r_h> [Ang]:                  [ -1.560503,  -0.064646,   0.001807]
    <r_e> [Ang]:                  [ -1.560188,  -0.064177,   0.001867]
    |<r_e - r_h>| [Ang]:            0.000568
    Hole size [Ang]:                1.394744
      Cartesian components [Ang]: [  0.847103,   0.834148,   0.729331]
    Electron size [Ang]:            1.359792
      Cartesian components [Ang]: [  0.877279,   0.862355,   0.579448]
--------------------------------------------------------------------------------
  MP(2) calculation ...  CPU 0.12 s  wall 0.12 s
  Start ADC(2)-s ...  CPU 0.01 s  wall 0.02 s
  ADC(2) intermediates ...  CPU 0.02 s  wall 0.01 s
  Starting Davidson for singlet states of irrep A ... 
--------------------------------------------------------------------------------
   It NVec Conv  Avg. Norm  Max. Norm  Conv. states           Remark
--------------------------------------------------------------------------------
        10    0  1.330e-01  4.682e-01  0.4112 n n n n n n n n Guess.
    1   20    0  2.303e-02  1.113e-01  0.3252 n n n n n n n n 
    2   30    0  5.820e-03  2.453e-02  0.3204 n n n n n n n n 
    3   40    0  1.764e-03  1.024e-02  0.3200 n n n n n n n n 
    4   50    0  5.496e-04  3.522e-03  0.3200 n n n n n n n n 
    5   20    0  2.591e-04  1.769e-03  0.3200 n n n n n n n n Subspace collapsed.
    6   30    0  1.228e-04  9.125e-04  0.3200 n n n n n n n n 
    7   40    0  7.890e-05  6.947e-04  0.3200 n n n n n n n n 
    8   50    0  4.580e-05  3.241e-04  0.3200 n n n n n n n n 
    9   20    2  3.760e-05  3.256e-04  0.3200 n y n y n n n n Subspace collapsed.
   10   30    4  2.390e-05  1.688e-04  0.3200 n y y y n y n n 
   11   40    5  1.205e-05  9.330e-05  0.3200 n y y y y y n n 
   12   50    5  6.176e-06  5.385e-05  0.3200 n y y y y y n n 
   13   20    6  3.086e-06  2.652e-05  0.3200 y y y y y y n n Subspace collapsed.
   14   30    6  2.381e-06  2.069e-05  0.3200 y y y y y y n n 
   15   40    6  1.415e-06  1.289e-05  0.3200 y y y y y y n n 
   16   50    7  9.620e-07  8.160e-06  0.3200 y y y y y y n y 
   17   20    8  6.351e-07  4.858e-06  0.3200 y y y y y y n y Subspace collapsed.
   18   30    8  3.449e-07  2.527e-06  0.3200 y y y y y y n y 
   19   40    8  2.694e-07  2.095e-06  0.3200 y y y y y y n y 
   20   50   10  1.284e-07  9.817e-07  0.3200 y y y y y y y y Converged.
--------------------------------------------------------------------------------
  Davidson Summary: 
 ------------------------------------------------------------
  State  0: excitation energy =   0.3200 a.u.   (converged)
  State  1: excitation energy =   0.3328 a.u.   (converged)
  State  2: excitation energy =   0.3365 a.u.   (converged)
  State  3: excitation energy =   0.3613 a.u.   (converged)
  State  4: excitation energy =   0.3744 a.u.   (converged)
  State  5: excitation energy =   0.3862 a.u.   (converged)
  State  6: excitation energy =   0.4255 a.u.   (converged)
  State  7: excitation energy =   0.4464 a.u.   (converged)
  State  8: excitation energy =   0.4557 a.u.   (converged)
  State  9: excitation energy =   0.4658 a.u.   (converged)
 ------------------------------------------------------------

  Singlet states of irrep A ...  CPU 57.01 s  wall 18.50 s
  TDMs ...  CPU 1.13 s  wall 0.35 s
  SDMs ...  CPU 2.40 s  wall 0.70 s
  Starting TPA DIIS iterations ... 
------------------------------------ 
   It     Res. Norm  Remark
------------------------------------
                       Guess.
    1     4.435e+00  
    2     5.896e+00  
    3     1.083e+00  
    4     2.600e-01  
    5     6.685e-02  
    6     2.712e-02  
    7     8.319e-03  
    8     1.446e-03  
    9     5.342e-04  
   10     9.031e-05  
   11     2.824e-05  
   12     4.393e-06  
   13     1.408e-06  
   14     4.340e-07  Converged.
   ... Converged in 14 steps (norm: 4.33963e-07)
------------------------------------
  Starting TPA DIIS iterations ... 
------------------------------------ 
   It     Res. Norm  Remark
------------------------------------
                       Guess.
    1     4.241e+00  
    2     5.627e+00  
    3     1.035e+00  
    4     2.567e-01  
    5     6.637e-02  
    6     2.682e-02  
    7     8.166e-03  
    8     1.435e-03  
    9     5.303e-04  
   10     8.910e-05  
   11     2.788e-05  
   12     4.304e-06  
   13     1.388e-06  
   14     4.232e-07  Converged.
   ... Converged in 14 steps (norm: 4.23209e-07)
------------------------------------
  Starting TPA DIIS iterations ... 
------------------------------------ 
   It     Res. Norm  Remark
------------------------------------
                       Guess.
    1     6.881e-01  
    2     4.834e-01  
    3     1.706e-01  
    4     5.958e-02  
    5     1.838e-02  
    6     6.651e-03  
    7     1.036e-03  
    8     4.436e-04  
    9     1.246e-04  
   10     2.778e-05  
   11     6.705e-06  
   12     1.954e-06  
   13     1.370e-06  
   14     5.606e-07  Converged.
   ... Converged in 14 steps (norm: 5.60568e-07)
------------------------------------
  Starting TPA DIIS iterations ... 
------------------------------------ 
   It     Res. Norm  Remark
------------------------------------
                       Guess.
    1     4.757e+00  
    2     6.476e+00  
    3     1.174e+00  
    4     2.922e-01  
    5     7.626e-02  
    6     3.122e-02  
    7     9.557e-03  
    8     1.658e-03  
    9     6.176e-04  
   10     1.050e-04  
   11     3.322e-05  
   12     5.213e-06  
   13     1.686e-06  
   14     5.201e-07  Converged.
   ... Converged in 14 steps (norm: 5.2008e-07)
------------------------------------
  Starting TPA DIIS iterations ... 
------------------------------------ 
   It     Res. Norm  Remark
------------------------------------
                       Guess.
    1     4.548e+00  
    2     6.180e+00  
    3     1.121e+00  
    4     2.882e-01  
    5     7.573e-02  
    6     3.089e-02  
    7     9.381e-03  
    8     1.646e-03  
    9     6.131e-04  
   10     1.036e-04  
   11     3.277e-05  
   12     5.107e-06  
   13     1.661e-06  
   14     5.075e-07  Converged.
   ... Converged in 14 steps (norm: 5.075e-07)
------------------------------------
  Starting TPA DIIS iterations ... 
------------------------------------ 
   It     Res. Norm  Remark
------------------------------------
                       Guess.
    1     7.014e-01  
    2     5.026e-01  
    3     1.816e-01  
    4     6.830e-02  
    5     1.995e-02  
    6     7.333e-03  
    7     1.185e-03  
    8     5.311e-04  
    9     1.531e-04  
   10     3.191e-05  
   11     7.827e-06  
   12     2.356e-06  
   13     1.763e-06  
   14     7.253e-07  Converged.
   ... Converged in 14 steps (norm: 7.25268e-07)
------------------------------------
  Starting TPA DIIS iterations ... 
------------------------------------ 
   It     Res. Norm  Remark
------------------------------------
                       Guess.
    1     4.856e+00  
    2     6.656e+00  
    3     1.201e+00  
    4     3.025e-01  
    5     7.924e-02  
    6     3.253e-02  
    7     9.949e-03  
    8     1.725e-03  
    9     6.442e-04  
   10     1.097e-04  
   11     3.482e-05  
   12     5.478e-06  
   13     1.777e-06  
   14     5.481e-07  Converged.
   ... Converged in 14 steps (norm: 5.48089e-07)
------------------------------------
  Starting TPA DIIS iterations ... 
------------------------------------ 
   It     Res. Norm  Remark
------------------------------------
                       Guess.
    1     4.642e+00  
    2     6.352e+00  
    3     1.148e+00  
    4     2.982e-01  
    5     7.870e-02  
    6     3.218e-02  
    7     9.766e-03  
    8     1.713e-03  
    9     6.395e-04  
   10     1.083e-04  
   11     3.435e-05  
   12     5.366e-06  
   13     1.749e-06  
   14     5.350e-07  Converged.
   ... Converged in 14 steps (norm: 5.34977e-07)
------------------------------------
  Starting TPA DIIS iterations ... 
------------------------------------ 
   It     Res. Norm  Remark
------------------------------------
                       Guess.
    1     7.053e-01  
    2     5.084e-01  
    3     1.849e-01  
    4     7.111e-02  
    5     2.043e-02  
    6     7.549e-03  
    7     1.233e-03  
    8     5.597e-04  
    9     1.625e-04  
   10     3.296e-05  
   11     8.186e-06  
   12     2.488e-06  
   13     1.897e-06  
   14     7.824e-07  Converged.
   ... Converged in 14 steps (norm: 7.82425e-07)
------------------------------------
  Starting TPA DIIS iterations ... 
------------------------------------ 
   It     Res. Norm  Remark
------------------------------------
                       Guess.
    1     5.627e+00  
    2     8.100e+00  
    3     1.417e+00  
    4     3.866e-01  
    5     1.038e-01  
    6     4.339e-02  
    7     1.318e-02  
    8     2.277e-03  
    9     8.648e-04  
   10     1.488e-04  
   11     4.842e-05  
   12     7.723e-06  
   13     2.567e-06  
   14     7.911e-07  Converged.
   ... Converged in 14 steps (norm: 7.91124e-07)
------------------------------------
  Starting TPA DIIS iterations ... 
------------------------------------ 
   It     Res. Norm  Remark
------------------------------------
                       Guess.
    1     5.377e+00  
    2     7.729e+00  
    3     1.353e+00  
    4     3.804e-01  
    5     1.031e-01  
    6     4.298e-02  
    7     1.294e-02  
    8     2.261e-03  
    9     8.585e-04  
   10     1.468e-04  
   11     4.770e-05  
   12     7.571e-06  
   13     2.517e-06  
   14     7.749e-07  Converged.
   ... Converged in 14 steps (norm: 7.74891e-07)
------------------------------------
  Starting TPA DIIS iterations ... 
------------------------------------ 
   It     Res. Norm  Remark
------------------------------------
                       Guess.
    1     7.328e-01  
    2     5.509e-01  
    3     2.100e-01  
    4     9.501e-02  
    5     2.408e-02  
    6     9.338e-03  
    7     1.644e-03  
    8     8.011e-04  
    9     2.400e-04  
   10     3.762e-05  
   11     1.125e-05  
   12     3.665e-06  
   13     3.165e-06  
   14     1.336e-06  
   15     5.173e-07  Converged.
   ... Converged in 15 steps (norm: 5.17282e-07)
------------------------------------
  Starting TPA DIIS iterations ... 
------------------------------------ 
   It     Res. Norm  Remark
------------------------------------
                       Guess.
    1     6.117e+00  
    2     9.049e+00  
    3     1.553e+00  
    4     4.439e-01  
    5     1.205e-01  
    6     5.090e-02  
    7     1.539e-02  
    8     2.651e-03  
    9     1.017e-03  
   10     1.757e-04  
   11     5.799e-05  
   12     9.303e-06  
   13     3.141e-06  
   14     9.696e-07  Converged.
   ... Converged in 14 steps (norm: 9.69577e-07)
------------------------------------
  Starting TPA DIIS iterations ... 
------------------------------------ 
   It     Res. Norm  Remark
------------------------------------
                       Guess.
    1     5.844e+00  
    2     8.635e+00  
    3     1.483e+00  
    4     4.364e-01  
    5     1.198e-01  
    6     5.043e-02  
    7     1.511e-02  
    8     2.634e-03  
    9     1.009e-03  
   10     1.734e-04  
   11     5.708e-05  
   12     9.126e-06  
   13     3.071e-06  
   14     9.529e-07  Converged.
   ... Converged in 14 steps (norm: 9.52938e-07)
------------------------------------
  Starting TPA DIIS iterations ... 
------------------------------------ 
   It     Res. Norm  Remark
------------------------------------
                       Guess.
    1     7.481e-01  
    2     5.761e-01  
    3     2.254e-01  
    4     1.119e-01  
    5     2.643e-02  
    6     1.057e-02  
    7     1.940e-03  
    8     9.610e-04  
    9     2.908e-04  
   10     3.862e-05  
   11     1.347e-05  
   12     4.552e-06  
   13     4.182e-06  
   14     1.791e-06  
   15     6.699e-07  Converged.
   ... Converged in 15 steps (norm: 6.69947e-07)
------------------------------------
  Starting TPA DIIS iterations ... 
------------------------------------ 
   It     Res. Norm  Remark
------------------------------------
                       Guess.
    1     6.621e+00  
    2     1.005e+01  
    3     1.692e+00  
    4     5.059e-01  
    5     1.386e-01  
    6     5.907e-02  
    7     1.777e-02  
    8     3.054e-03  
    9     1.182e-03  
   10     2.050e-04  
   11     6.851e-05  
   12     1.104e-05  
   13     3.784e-06  
   14     1.174e-06  
   15     4.604e-07  Converged.
   ... Converged in 15 steps (norm: 4.60372e-07)
------------------------------------
  Starting TPA DIIS iterations ... 
------------------------------------ 
   It     Res. Norm  Remark
------------------------------------
                       Guess.
    1     6.325e+00  
    2     9.590e+00  
    3     1.615e+00  
    4     4.967e-01  
    5     1.378e-01  
    6     5.856e-02  
    7     1.745e-02  
    8     3.035e-03  
    9     1.173e-03  
   10     2.024e-04  
   11     6.738e-05  
   12     1.084e-05  
   13     3.690e-06  
   14     1.159e-06  
   15     3.538e-07  Converged.
   ... Converged in 15 steps (norm: 3.53779e-07)
------------------------------------
  Starting TPA DIIS iterations ... 
------------------------------------ 
   It     Res. Norm  Remark
------------------------------------
                       Guess.
    1     7.626e-01  
    2     6.007e-01  
    3     2.409e-01  
    4     1.306e-01  
    5     2.891e-02  
    6     1.190e-02  
    7     2.272e-03  
    8     1.121e-03  
    9     3.422e-04  
   10     3.951e-05  
   11     1.600e-05  
   12     5.583e-06  
   13     5.406e-06  
   14     2.344e-06  
   15     8.646e-07  Converged.
   ... Converged in 15 steps (norm: 8.64595e-07)
------------------------------------
  Starting TPA DIIS iterations ... 
------------------------------------ 
   It     Res. Norm  Remark
------------------------------------
                       Guess.
    1     8.890e+00  
    2     1.483e+01  
    3     2.306e+00  
    4     8.150e-01  
    5     2.290e-01  
    6     1.008e-01  
    7     2.968e-02  
    8     5.056e-03  
    9     2.023e-03  
   10     3.533e-04  
   11     1.216e-04  
   12     1.988e-05  
   13     7.176e-06  
   14     2.395e-06  
   15     1.050e-06  
   16     3.870e-07  Converged.
   ... Converged in 16 steps (norm: 3.86964e-07)
------------------------------------
  Starting TPA DIIS iterations ... 
------------------------------------ 
   It     Res. Norm  Remark
------------------------------------
                       Guess.
    1     8.488e+00  
    2     1.415e+01  
    3     2.200e+00  
    4     7.968e-01  
    5     2.278e-01  
    6     1.000e-01  
    7     2.915e-02  
    8     5.027e-03  
    9     2.007e-03  
   10     3.487e-04  
   11     1.195e-04  
   12     1.971e-05  
   13     6.897e-06  
   14     2.428e-06  
   15     7.008e-07  Converged.
   ... Converged in 15 steps (norm: 7.00838e-07)
------------------------------------
  Starting TPA DIIS iterations ... 
------------------------------------ 
   It     Res. Norm  Remark
------------------------------------
                       Guess.
    1     8.152e-01  
    2     6.996e-01  
    3     3.062e-01  
    4     2.255e-01  
    5     4.097e-02  
    6     1.850e-02  
    7     4.051e-03  
    8     1.650e-03  
    9     5.543e-04  
   10     5.636e-05  
   11     3.051e-05  
   12     1.179e-05  
   13     1.311e-05  
   14     5.874e-06  
   15     2.470e-06  
   16     1.123e-06  
   17     2.679e-07  Converged.
   ... Converged in 17 steps (norm: 2.67913e-07)
------------------------------------
  Starting TPA DIIS iterations ... 
------------------------------------ 
   It     Res. Norm  Remark
------------------------------------
                       Guess.
    1     1.066e+01  
    2     1.883e+01  
    3     2.771e+00  
    4     1.082e+00  
    5     3.081e-01  
    6     1.380e-01  
    7     4.008e-02  
    8     6.792e-03  
    9     2.770e-03  
   10     4.839e-04  
   11     1.666e-04  
   12     2.774e-05  
   13     1.025e-05  
   14     3.729e-06  
   15     1.750e-06  
   16     6.809e-07  Converged.
   ... Converged in 16 steps (norm: 6.80897e-07)
------------------------------------
  Starting TPA DIIS iterations ... 
------------------------------------ 
   It     Res. Norm  Remark
------------------------------------
                       Guess.
    1     1.017e+01  
    2     1.796e+01  
    3     2.644e+00  
    4     1.055e+00  
    5     3.065e-01  
    6     1.372e-01  
    7     3.936e-02  
    8     6.755e-03  
    9     2.748e-03  
   10     4.777e-04  
   11     1.641e-04  
   12     2.781e-05  
   13     9.717e-06  
   14     3.855e-06  
   15     1.113e-06  
   16     7.712e-07  Converged.
   ... Converged in 16 steps (norm: 7.7121e-07)
------------------------------------
  Starting TPA DIIS iterations ... 
------------------------------------ 
   It     Res. Norm  Remark
------------------------------------
                       Guess.
    1     8.467e-01  
    2     7.669e-01  
    3     3.530e-01  
    4     3.043e-01  
    5     5.121e-02  
    6     2.390e-02  
    7     5.661e-03  
    8     1.842e-03  
    9     7.022e-04  
   10     8.060e-05  
   11     4.514e-05  
   12     1.860e-05  
   13     2.165e-05  
   14     9.741e-06  
   15     4.574e-06  
   16     1.950e-06  
   17     5.279e-07  Converged.
   ... Converged in 17 steps (norm: 5.27866e-07)
------------------------------------
  Starting TPA DIIS iterations ... 
------------------------------------ 
   It     Res. Norm  Remark
------------------------------------
                       Guess.
    1     1.162e+01  
    2     2.110e+01  
    3     3.020e+00  
    4     1.235e+00  
    5     3.537e-01  
    6     1.599e-01  
    7     4.609e-02  
    8     7.793e-03  
    9     3.207e-03  
   10     5.595e-04  
   11     1.919e-04  
   12     3.238e-05  
   13     1.212e-05  
   14     4.609e-06  
   15     2.252e-06  
   16     8.906e-07  Converged.
   ... Converged in 16 steps (norm: 8.9062e-07)
------------------------------------
  Starting TPA DIIS iterations ... 
------------------------------------ 
   It     Res. Norm  Remark
------------------------------------
                       Guess.
    1     1.109e+01  
    2     2.012e+01  
    3     2.881e+00  
    4     1.203e+00  
    5     3.520e-01  
    6     1.589e-01  
    7     4.526e-02  
    8     7.751e-03  
    9     3.181e-03  
   10     5.524e-04  
   11     1.892e-04  
   12     3.268e-05  
   13     1.138e-05  
   14     4.799e-06  
   15     1.438e-06  
   16     1.039e-06  
   17     5.950e-07  Converged.
   ... Converged in 17 steps (norm: 5.95048e-07)
------------------------------------
  Starting TPA DIIS iterations ... 
------------------------------------ 
   It     Res. Norm  Remark
------------------------------------
                       Guess.
    1     8.616e-01  
    2     8.010e-01  
    3     3.774e-01  
    4     3.461e-01  
    5     5.700e-02  
    6     2.679e-02  
    7     6.586e-03  
    8     1.899e-03  
    9     7.789e-04  
   10     9.522e-05  
   11     5.424e-05  
   12     2.315e-05  
   13     2.739e-05  
   14     1.224e-05  
   15     5.995e-06  
   16     2.483e-06  
   17     7.181e-07  Converged.
   ... Converged in 17 steps (norm: 7.18069e-07)
------------------------------------
  Starting TPA DIIS iterations ... 
------------------------------------ 
   It     Res. Norm  Remark
------------------------------------
                       Guess.
    1     1.285e+01  
    2     2.408e+01  
    3     3.334e+00  
    4     1.436e+00  
    5     4.144e-01  
    6     1.891e-01  
    7     5.406e-02  
    8     9.118e-03  
    9     3.790e-03  
   10     6.599e-04  
   11     2.249e-04  
   12     3.868e-05  
   13     1.477e-05  
   14     5.897e-06  
   15     3.040e-06  
   16     1.217e-06  
   17     8.323e-07  Converged.
   ... Converged in 17 steps (norm: 8.32254e-07)
------------------------------------
  Starting TPA DIIS iterations ... 
------------------------------------ 
   It     Res. Norm  Remark
------------------------------------
                       Guess.
    1     1.226e+01  
    2     2.297e+01  
    3     3.179e+00  
    4     1.396e+00  
    5     4.123e-01  
    6     1.881e-01  
    7     5.308e-02  
    8     9.069e-03  
    9     3.759e-03  
   10     6.515e-04  
   11     2.222e-04  
   12     3.940e-05  
   13     1.368e-05  
   14     6.175e-06  
   15     1.990e-06  
   16     1.461e-06  
   17     8.239e-07  Converged.
   ... Converged in 17 steps (norm: 8.23926e-07)
------------------------------------
  Starting TPA DIIS iterations ... 
------------------------------------ 
   It     Res. Norm  Remark
------------------------------------
                       Guess.
    1     8.788e-01  
    2     8.424e-01  
    3     4.073e-01  
    4     3.966e-01  
    5     6.454e-02  
    6     3.031e-02  
    7     7.793e-03  
    8     1.953e-03  
    9     8.741e-04  
   10     1.144e-04  
   11     6.694e-05  
   12     2.989e-05  
   13     3.612e-05  
   14     1.580e-05  
   15     8.075e-06  
   16     3.229e-06  
   17     1.003e-06  
   18     5.275e-07  Converged.
   ... Converged in 18 steps (norm: 5.27474e-07)
------------------------------------
  Two-photon absorbption ...  CPU 76.45 s  wall 19.60 s
  Transition density matrix of state singlet_A_1 printed to ASCII file 'State_singlet_A_1_Transition.txt'
  Transition density matrix of state singlet_A_2 printed to ASCII file 'State_singlet_A_2_Transition.txt'
  Transition density matrix of state singlet_A_3 printed to ASCII file 'State_singlet_A_3_Transition.txt'
  Transition density matrix of state singlet_A_4 printed to ASCII file 'State_singlet_A_4_Transition.txt'
  Transition density matrix of state singlet_A_5 printed to ASCII file 'State_singlet_A_5_Transition.txt'
  Transition density matrix of state singlet_A_6 printed to ASCII file 'State_singlet_A_6_Transition.txt'
  Transition density matrix of state singlet_A_7 printed to ASCII file 'State_singlet_A_7_Transition.txt'
  Transition density matrix of state singlet_A_8 printed to ASCII file 'State_singlet_A_8_Transition.txt'
  Transition density matrix of state singlet_A_9 printed to ASCII file 'State_singlet_A_9_Transition.txt'
  Transition density matrix of state singlet_A_10 printed to ASCII file 'State_singlet_A_10_Transition.txt'
  Transition properties ...  CPU 0.14 s  wall 0.43 s
  Difference density matrix of state singlet_A_1 printed to ASCII file 'State_singlet_A_1_Difference.txt'
  Total density matrix of state singlet_A_1 printed to ASCII file 'State_singlet_A_1_Total.txt'
  Difference density matrix of state singlet_A_2 printed to ASCII file 'State_singlet_A_2_Difference.txt'
  Total density matrix of state singlet_A_2 printed to ASCII file 'State_singlet_A_2_Total.txt'
  Difference density matrix of state singlet_A_3 printed to ASCII file 'State_singlet_A_3_Difference.txt'
  Total density matrix of state singlet_A_3 printed to ASCII file 'State_singlet_A_3_Total.txt'
  Difference density matrix of state singlet_A_4 printed to ASCII file 'State_singlet_A_4_Difference.txt'
  Total density matrix of state singlet_A_4 printed to ASCII file 'State_singlet_A_4_Total.txt'
  Difference density matrix of state singlet_A_5 printed to ASCII file 'State_singlet_A_5_Difference.txt'
  Total density matrix of state singlet_A_5 printed to ASCII file 'State_singlet_A_5_Total.txt'
  Difference density matrix of state singlet_A_6 printed to ASCII file 'State_singlet_A_6_Difference.txt'
  Total density matrix of state singlet_A_6 printed to ASCII file 'State_singlet_A_6_Total.txt'
  Difference density matrix of state singlet_A_7 printed to ASCII file 'State_singlet_A_7_Difference.txt'
  Total density matrix of state singlet_A_7 printed to ASCII file 'State_singlet_A_7_Total.txt'
  Difference density matrix of state singlet_A_8 printed to ASCII file 'State_singlet_A_8_Difference.txt'
  Total density matrix of state singlet_A_8 printed to ASCII file 'State_singlet_A_8_Total.txt'
  Difference density matrix of state singlet_A_9 printed to ASCII file 'State_singlet_A_9_Difference.txt'
  Total density matrix of state singlet_A_9 printed to ASCII file 'State_singlet_A_9_Total.txt'
  Difference density matrix of state singlet_A_10 printed to ASCII file 'State_singlet_A_10_Difference.txt'
  Total density matrix of state singlet_A_10 printed to ASCII file 'State_singlet_A_10_Total.txt'
  Properties ...  CPU 0.34 s  wall 0.62 s
  ISR TDMS ...  CPU 16.26 s  wall 4.41 s
  ISR transition properties ...  CPU 0.14 s  wall 0.07 s
  Sum-over-states TPA ...  CPU 0.00 s  wall 0.00 s

--------------------------------------------------------------------------------
                   State-averaged natural transition orbitals
--------------------------------------------------------------------------------
--------------------------------------------------------------------------------
  SA-NTO decomposition ...  CPU 0.01 s  wall 0.02 s

--------------------------------------------------------------------------------
                             Excited State Summary
--------------------------------------------------------------------------------
--------------------------------------------------------------------------------

  Excited state 1 (singlet, A)                                     [converged]
  ----------------------------------------------------------------------------
  Term symbol:  2 (1) A                                     R^2 =  3.49355e-10

  Total energy:                                            -77.9996494393 a.u.
  Excitation energy:                                               8.707205 eV

  Osc. strength:                                                      0.444104
  Trans. dip. moment [a.u.]:           [   1.044689,   -0.995181,   -0.008976]
  <i|r^2|0> [a.u.]:                    [   6.163472,   -0.244017,   -0.000413]
  Two-photon absorption cross-section (SoS) [a.u.]:                   0.000823
  Two-photon absorption matrix (SoS) [a.u.]:
                                       |    0.005919   -0.005597   -0.000734 |
                                       |   -0.005597   -0.007115   -0.000725 |
                                       |   -0.000734   -0.000725    0.006450 |
  Two-photon absorption cross-section [a.u.]:                         0.000913
  Two-photon absorption matrix [a.u.]:
                                       |    0.006877   -0.003995    0.000288 |
                                       |   -0.003995   -0.009557    0.001227 |
                                       |    0.000288    0.001227    0.006786 |

  Dip. moment [a.u.]:                  [  -0.000297,    0.000710,    0.000795]
  Total dipole [Debye]:                                               0.002812
  <r^2> [a.u.]:                        [ 176.125687,   35.723853,   11.867443]
  Total <r^2> [a.u.]:                                               223.716983

  V1^2 = 0.9715, V2^2 = 0.0285

  Important amplitudes:
      occ i     occ j     vir a      vir b          v   
    -----------------------------------------------------
     8 (A) A              9 (A) A                -0.6811
     6 (A) A             14 (A) A                -0.0630
     4 (A) A             10 (A) A                -0.0604
     7 (A) A             16 (A) A                -0.0567
     5 (A) A             13 (A) A                 0.0511
     6 (A) A             23 (A) A                -0.0487
     8 (A) A             20 (A) A                 0.0351
     6 (A) A             19 (A) A                -0.0315
     3 (A) A             12 (A) A                 0.0282
     5 (A) A             22 (A) A                 0.0214
     7 (A) A             11 (A) A                -0.0212
     4 (A) A             24 (A) A                -0.0187
     3 (A) A             26 (A) A                 0.0185
     8 (A) A   8 (A) B   17 (A) A   20 (A) B     -0.0184
     8 (A) A   8 (A) B    9 (A) A   28 (A) B      0.0169
     6 (A) A             26 (A) A                 0.0162
     7 (A) A             21 (A) A                -0.0148
     3 (A) A             14 (A) A                -0.0139
     3 (A) A   4 (A) B    9 (A) A    9 (A) B      0.0129
     6 (A) A             12 (A) A                -0.0125
     3 (A) A             19 (A) A                -0.0120
     8 (A) A   8 (A) B   18 (A) A   19 (A) B      0.0113
     7 (A) A             32 (A) A                -0.0096
     7 (A) A             36 (A) A                 0.0086
     3 (A) A             23 (A) A                -0.0080
     8 (A) A   8 (A) B   25 (A) A   29 (A) B      0.0076
     6 (A) A             35 (A) A                -0.0073
     6 (A) A             40 (A) A                 0.0068
     3 (A) A   6 (A) B    9 (A) A   28 (A) B      0.0065
     6 (A) A   8 (A) A   19 (A) A   28 (A) A     -0.0061
     5 (A) A   7 (A) B    9 (A) A    9 (A) B      0.0060
     5 (A) A   8 (A) B   11 (A) A   20 (A) B     -0.0059
     7 (A) A   8 (A) B   13 (A) A   20 (A) B      0.0059
     5 (A) A   8 (A) B   16 (A) A    9 (A) B      0.0059
     5 (A) A   8 (A) B   11 (A) A    9 (A) B     -0.0058
     3 (A) A   5 (A) B    9 (A) A   25 (A) B      0.0058
     6 (A) A   8 (A) A    9 (A) A   18 (A) A      0.0057
     7 (A) A   8 (A) B   22 (A) A   20 (A) B      0.0057
     3 (A) A             40 (A) A                 0.0057
     8 (A) A   8 (A) B   19 (A) A   30 (A) B      0.0056
    -----------------------------------------------------

  Density matrix analysis:
  ------------------------
  NOs
    Occupation of frontier NOs:
       0.9495   1.0217
    Number of electrons: 16.000000
    Number of unpaired electrons: n_u =  2.31351, n_u,nl =  2.03274
    NO participation ratio (PR_NO):  2.864333
  
  
  Mulliken Population Analysis
  Atom      Charge (e)              h+              e-           Del q
  --------------------------------------------------------------------
   1 H        0.058581        0.020115       -0.012544        0.007571
   2 C       -0.117409        0.490622       -0.505701       -0.015079
   3 H        0.058422        0.020075       -0.012557        0.007518
   4 C       -0.115190        0.490537       -0.505671       -0.015134
   5 H        0.057019        0.020055       -0.012552        0.007502
   6 H        0.058577        0.020164       -0.012541        0.007622
  --------------------------------------------------------------------
  Sum:        0.000000        1.061566       -1.061566       -0.000000
  
  Multipole moment analysis of the density matrix
    Molecular charge:                      0.000000
    Number of electrons:                   16.000000
      Center of electronic charge [Ang]: [ -1.560566,  -0.063751,   0.001952]
    Total nuclear charge:                  16.000000
      Center of nuclear charge [Ang]:    [ -1.560576,  -0.063727,   0.001978]
    Dipole moment [D]:                     0.002811
      Cartesian components [D]:          [ -0.000755,   0.001804,   0.002020]
    RMS size of the density [Ang]:         1.214912
      Cartesian components [Ang]:        [  0.804454,   0.788141,   0.455739]
  
  Exciton analysis of the difference density matrix
    <r_h> [Ang]:                  [ -1.560260,  -0.063496,   0.001680]
    <r_e> [Ang]:                  [ -1.560215,  -0.063374,   0.001612]
    |<r_e - r_h>| [Ang]:            0.000146
    Hole size [Ang]:                1.285876
      Cartesian components [Ang]: [  0.728092,   0.713446,   0.783806]
    Electron size [Ang]:            1.463032
      Cartesian components [Ang]: [  0.852932,   0.831750,   0.849211]

  Transition density matrix analysis:
  -----------------------------------
  
  CT numbers (Mulliken)
    omega =     0.9535
    <Phe> =    -0.1616
  
  Exciton analysis of the transition density matrix
    Trans. dipole moment [D]:             1.833691
      Cartesian components [D]:         [  1.327668,  -1.264749,  -0.011407]
    <r_h> [Ang]:                        [ -1.560189,  -0.063404,   0.001746]
    <r_e> [Ang]:                        [ -1.560235,  -0.063404,   0.001561]
    |<r_e - r_h>| [Ang]:                  0.000191
    Hole size [Ang]:                      1.215454
      Cartesian components [Ang]:       [  0.649979,   0.637956,   0.804903]
    Electron size [Ang]:                  1.485442
      Cartesian components [Ang]:       [  0.863110,   0.840488,   0.868999]
    RMS electron-hole separation [Ang]:   1.937665
      Cartesian components [Ang]:       [  1.106078,   1.077742,   1.170303]
    Covariance(r_h, r_e) [Ang^2]:        -0.035339
    Correlation coefficient:             -0.019573
    Center-of-mass size [Ang]:            0.950419
      Cartesian components [Ang]:       [  0.527128,   0.516064,   0.599259]

  Decomposition into state-averaged NTOs
    H- 0 -> L+ 0: -0.6699 ( 89.7%)
    H- 2 -> L+ 5:  0.0843 (  1.4%)
                   omega =  95.4%
  ----------------------------------------------------------------------------


  Excited state 2 (singlet, A)                                     [converged]
  ----------------------------------------------------------------------------
  Term symbol:  3 (1) A                                     R^2 =  1.67763e-11

  Total energy:                                            -77.9868163810 a.u.
  Excitation energy:                                               9.056410 eV

  Osc. strength:                                                      0.000049
  Trans. dip. moment [a.u.]:           [   0.002015,   -0.003986,    0.014147]
  <i|r^2|0> [a.u.]:                    [  -0.054615,   -0.084432,    0.149865]
  Two-photon absorption cross-section (SoS) [a.u.]:                   5.023005
  Two-photon absorption matrix (SoS) [a.u.]:
                                       |   -0.055767   -0.059643    0.556143 |
                                       |   -0.059643   -0.063739    0.551710 |
                                       |    0.556143    0.551710    0.118771 |
  Two-photon absorption cross-section [a.u.]:                         0.070671
  Two-photon absorption matrix [a.u.]:
                                       |    0.000769    0.006841   -0.071398 |
                                       |    0.006841    0.012808   -0.059239 |
                                       |   -0.071398   -0.059239   -0.013983 |

  Dip. moment [a.u.]:                  [   0.017540,    0.016008,    0.003173]
  Total dipole [Debye]:                                               0.060896
  <r^2> [a.u.]:                        [ 174.606670,   34.123196,   13.170900]
  Total <r^2> [a.u.]:                                               221.900766

  V1^2 = 0.9541, V2^2 = 0.0459

  Important amplitudes:
      occ i     occ j     vir a      vir b          v   
    -----------------------------------------------------
     7 (A) A              9 (A) A                 0.6686
     8 (A) A             11 (A) A                 0.1486
     7 (A) A             20 (A) A                -0.0757
     5 (A) A   8 (A) B    9 (A) A    9 (A) B     -0.0318
     8 (A) A             10 (A) A                -0.0276
     8 (A) A             16 (A) A                -0.0273
     8 (A) A             21 (A) A                 0.0177
     5 (A) A             28 (A) A                -0.0150
     4 (A) A   7 (A) B    9 (A) A   19 (A) B     -0.0135
     5 (A) A   7 (A) B    9 (A) A   16 (A) B      0.0134
     7 (A) A   8 (A) B   20 (A) A   17 (A) B      0.0105
     7 (A) A   8 (A) A    9 (A) A   28 (A) A      0.0098
     5 (A) A   8 (A) B    9 (A) A   20 (A) B      0.0096
     4 (A) A   6 (A) B    9 (A) A   16 (A) B     -0.0091
     5 (A) A   6 (A) A    9 (A) A   23 (A) A      0.0091
     5 (A) A   6 (A) A    9 (A) A   14 (A) A      0.0090
     5 (A) A   6 (A) B    9 (A) A   19 (A) B      0.0088
     8 (A) A   7 (A) B    9 (A) A   28 (A) B     -0.0085
     4 (A) A   5 (A) A    9 (A) A   10 (A) A     -0.0085
     6 (A) A   7 (A) B    9 (A) A   18 (A) B     -0.0083
     5 (A) A   6 (A) B    9 (A) A   23 (A) B      0.0080
     3 (A) A   7 (A) B    9 (A) A   18 (A) B      0.0080
     5 (A) A   7 (A) A    9 (A) A   16 (A) A      0.0079
     4 (A) A   8 (A) B    9 (A) A   25 (A) B     -0.0077
     7 (A) A   8 (A) B   17 (A) A   20 (A) B      0.0074
     4 (A) A   7 (A) B   19 (A) A    9 (A) B     -0.0074
     5 (A) A   5 (A) B    9 (A) A   13 (A) B     -0.0072
     7 (A) A   8 (A) B   19 (A) A   18 (A) B     -0.0072
     5 (A) A   8 (A) A    9 (A) A   20 (A) A      0.0069
     4 (A) A   5 (A) B    9 (A) A   18 (A) B      0.0067
     7 (A) A   8 (A) B   17 (A) A    9 (A) B     -0.0065
     7 (A) A   7 (A) B   20 (A) A   22 (A) B     -0.0065
     5 (A) A   6 (A) B    9 (A) A   14 (A) B      0.0064
     4 (A) A   5 (A) B   10 (A) A    9 (A) B      0.0061
     4 (A) A   7 (A) A    9 (A) A   19 (A) A     -0.0061
     5 (A) A   7 (A) B   11 (A) A   20 (A) B      0.0060
     4 (A) A   7 (A) B    9 (A) A   14 (A) B      0.0060
     6 (A) A   7 (A) A   19 (A) A   28 (A) A      0.0057
     4 (A) A   8 (A) A    9 (A) A   25 (A) A     -0.0057
     5 (A) A   7 (A) A   11 (A) A   20 (A) A      0.0052
    -----------------------------------------------------

  Density matrix analysis:
  ------------------------
  NOs
    Occupation of frontier NOs:
       0.9564   1.0555
    Number of electrons: 16.000000
    Number of unpaired electrons: n_u =  2.35573, n_u,nl =  2.06407
    NO participation ratio (PR_NO):  3.038237
  
  
  Mulliken Population Analysis
  Atom      Charge (e)              h+              e-           Del q
  --------------------------------------------------------------------
   1 H        0.154637        0.123933       -0.020306        0.103627
   2 C       -0.301869        0.272403       -0.471943       -0.199540
   3 H        0.147431        0.125919       -0.029392        0.096527
   4 C       -0.299912        0.271785       -0.471641       -0.199856
   5 H        0.152320        0.122638       -0.019835        0.102803
   6 H        0.147394        0.126342       -0.029903        0.096439
  --------------------------------------------------------------------
  Sum:        0.000000        1.043020       -1.043020       -0.000000
  
  Multipole moment analysis of the density matrix
    Molecular charge:                      0.000000
    Number of electrons:                   16.000000
      Center of electronic charge [Ang]: [ -1.561156,  -0.064257,   0.001873]
    Total nuclear charge:                  16.000000
      Center of nuclear charge [Ang]:    [ -1.560576,  -0.063727,   0.001978]
    Dipole moment [D]:                     0.060896
      Cartesian components [D]:          [  0.044582,   0.040689,   0.008066]
    RMS size of the density [Ang]:         1.200965
      Cartesian components [Ang]:        [  0.786587,   0.770122,   0.480115]
  
  Exciton analysis of the difference density matrix
    <r_h> [Ang]:                  [ -1.563863,  -0.069152,   0.001568]
    <r_e> [Ang]:                  [ -1.572867,  -0.076790,   0.000293]
    |<r_e - r_h>| [Ang]:            0.011876
    Hole size [Ang]:                1.486108
      Cartesian components [Ang]: [  1.007809,   0.992732,   0.455326]
    Electron size [Ang]:            1.478862
      Cartesian components [Ang]: [  0.883377,   0.860638,   0.816077]

  Transition density matrix analysis:
  -----------------------------------
  
  CT numbers (Mulliken)
    omega =     0.9215
    <Phe> =    -0.0122
  
  Exciton analysis of the transition density matrix
    Trans. dipole moment [D]:             0.018854
      Cartesian components [D]:         [  0.002561,  -0.005066,   0.017979]
    <r_h> [Ang]:                        [ -1.563688,  -0.069195,   0.001661]
    <r_e> [Ang]:                        [ -1.573711,  -0.077426,   0.000123]
    |<r_e - r_h>| [Ang]:                  0.013061
    Hole size [Ang]:                      1.514159
      Cartesian components [Ang]:       [  1.031067,   1.015742,   0.444800]
    Electron size [Ang]:                  1.476060
      Cartesian components [Ang]:       [  0.873948,   0.850477,   0.831658]
    RMS electron-hole separation [Ang]:   2.094889
      Cartesian components [Ang]:       [  1.335827,   1.309972,   0.942389]
    Covariance(r_h, r_e) [Ang^2]:         0.041520
    Correlation coefficient:              0.018577
    Center-of-mass size [Ang]:            1.067060
      Cartesian components [Ang]:       [  0.683636,   0.669725,   0.471940]

  Decomposition into state-averaged NTOs
    H- 1 -> L+ 0: -0.6609 ( 87.4%)
    H- 0 -> L+ 2: -0.1486 (  4.4%)
                   omega =  92.2%
  ----------------------------------------------------------------------------


  Excited state 3 (singlet, A)                                     [converged]
  ----------------------------------------------------------------------------
  Term symbol:  4 (1) A                                     R^2 =  7.48983e-12

  Total energy:                                            -77.9831524781 a.u.
  Excitation energy:                                               9.156110 eV

  Osc. strength:                                                      0.025230
  Trans. dip. moment [a.u.]:           [   0.015104,    0.020555,   -0.334398]
  <i|r^2|0> [a.u.]:                    [   0.087740,   -0.000093,    0.008212]
  Two-photon absorption cross-section (SoS) [a.u.]:                   0.006000
  Two-photon absorption matrix (SoS) [a.u.]:
                                       |    0.013149    0.002462   -0.014556 |
                                       |    0.002462   -0.008014   -0.019972 |
                                       |   -0.014556   -0.019972    0.001988 |
  Two-photon absorption cross-section [a.u.]:                         0.012603
  Two-photon absorption matrix [a.u.]:
                                       |    0.013259    0.002510   -0.027821 |
                                       |    0.002510   -0.002235   -0.026130 |
                                       |   -0.027821   -0.026130   -0.002200 |

  Dip. moment [a.u.]:                  [   0.012900,    0.040200,    0.002182]
  Total dipole [Debye]:                                               0.107453
  <r^2> [a.u.]:                        [ 180.949054,   40.659773,   11.034613]
  Total <r^2> [a.u.]:                                               232.643440

  V1^2 = 0.9588, V2^2 = 0.0412

  Important amplitudes:
      occ i     occ j     vir a      vir b          v   
    -----------------------------------------------------
     8 (A) A             10 (A) A                 0.6885
     8 (A) A             24 (A) A                 0.0506
     8 (A) A             18 (A) A                -0.0311
     7 (A) A              9 (A) A                 0.0281
     4 (A) A              9 (A) A                 0.0237
     8 (A) A   8 (A) B    9 (A) A   12 (A) B     -0.0220
     8 (A) A   8 (A) B   10 (A) A   17 (A) B      0.0172
     8 (A) A             15 (A) A                 0.0171
     5 (A) A   8 (A) B   11 (A) A   10 (A) B      0.0165
     7 (A) A   8 (A) B   13 (A) A   10 (A) B     -0.0141
     4 (A) A   8 (A) B   12 (A) A   10 (A) B     -0.0111
     6 (A) A   8 (A) A   10 (A) A   15 (A) A     -0.0109
     7 (A) A   8 (A) B   22 (A) A   10 (A) B     -0.0108
     6 (A) A   8 (A) B   15 (A) A   10 (A) B      0.0107
     4 (A) A   8 (A) A   10 (A) A   12 (A) A      0.0106
     7 (A) A   8 (A) A   10 (A) A   22 (A) A      0.0098
     7 (A) A   8 (A) A   10 (A) A   13 (A) A      0.0097
     5 (A) A   8 (A) B   21 (A) A   10 (A) B      0.0094
     5 (A) A   8 (A) A   10 (A) A   11 (A) A     -0.0093
     6 (A) A   8 (A) A   10 (A) A   18 (A) A     -0.0088
     6 (A) A   8 (A) B   10 (A) A   10 (A) B     -0.0086
     7 (A) A   8 (A) A   12 (A) A   16 (A) A     -0.0081
     5 (A) A   8 (A) A   10 (A) A   21 (A) A     -0.0079
     3 (A) A   4 (A) B   10 (A) A    9 (A) B     -0.0079
     8 (A) A   8 (A) B    9 (A) A   23 (A) B     -0.0075
     4 (A) A   8 (A) B   19 (A) A   10 (A) B      0.0075
     8 (A) A   8 (A) B   10 (A) A   28 (A) B     -0.0073
     3 (A) A   8 (A) B   10 (A) A   10 (A) B      0.0072
     5 (A) A   8 (A) B   10 (A) A   11 (A) B      0.0071
     3 (A) A   8 (A) A   10 (A) A   24 (A) A     -0.0071
     7 (A) A   8 (A) B   16 (A) A   12 (A) B      0.0070
     3 (A) A   8 (A) B   10 (A) A   18 (A) B     -0.0069
     8 (A) A   8 (A) B    9 (A) A   19 (A) B      0.0068
     6 (A) A   8 (A) B   18 (A) A   10 (A) B      0.0067
     3 (A) A   6 (A) B   10 (A) A   28 (A) B     -0.0062
     7 (A) A   8 (A) B   12 (A) A   11 (A) B     -0.0057
     6 (A) A             28 (A) A                 0.0057
     3 (A) A   5 (A) B   10 (A) A   25 (A) B     -0.0056
     3 (A) A   8 (A) A   10 (A) A   18 (A) A     -0.0056
     5 (A) A   8 (A) A   10 (A) A   16 (A) A      0.0056
    -----------------------------------------------------

  Density matrix analysis:
  ------------------------
  NOs
    Occupation of frontier NOs:
       0.9830   0.9834
    Number of electrons: 16.000000
    Number of unpaired electrons: n_u =  2.28857, n_u,nl =  2.02515
    NO participation ratio (PR_NO):  2.699733
  
  
  Mulliken Population Analysis
  Atom      Charge (e)              h+              e-           Del q
  --------------------------------------------------------------------
   1 H       -0.160825        0.054268       -0.266103       -0.211835
   2 C        0.326195        0.537665       -0.109141        0.428525
   3 H       -0.168958        0.053363       -0.273225       -0.219862
   4 C        0.326956        0.535284       -0.108273        0.427012
   5 H       -0.158519        0.054156       -0.262192       -0.208036
   6 H       -0.164849        0.053608       -0.269412       -0.215803
  --------------------------------------------------------------------
  Sum:        0.000000        1.288345       -1.288345       -0.000000
  
  Multipole moment analysis of the density matrix
    Molecular charge:                      0.000000
    Number of electrons:                   16.000000
      Center of electronic charge [Ang]: [ -1.561003,  -0.065057,   0.001906]
    Total nuclear charge:                  16.000000
      Center of nuclear charge [Ang]:    [ -1.560576,  -0.063727,   0.001978]
    Dipole moment [D]:                     0.107453
      Cartesian components [D]:          [  0.032788,   0.102179,   0.005547]
    RMS size of the density [Ang]:         1.276992
      Cartesian components [Ang]:        [  0.854518,   0.841062,   0.439456]
  
  Exciton analysis of the difference density matrix
    <r_h> [Ang]:                  [ -1.559401,  -0.064300,   0.001811]
    <r_e> [Ang]:                  [ -1.564785,  -0.080420,   0.001185]
    |<r_e - r_h>| [Ang]:            0.017007
    Hole size [Ang]:                1.411363
      Cartesian components [Ang]: [  0.834510,   0.820930,   0.788424]
    Electron size [Ang]:            2.077052
      Cartesian components [Ang]: [  1.374950,   1.376610,   0.727050]

  Transition density matrix analysis:
  -----------------------------------
  
  CT numbers (Mulliken)
    omega =     0.9259
    <Phe> =    -0.0109
  
  Exciton analysis of the transition density matrix
    Trans. dipole moment [D]:             0.426212
      Cartesian components [D]:         [  0.019196,   0.026123,  -0.424977]
    <r_h> [Ang]:                        [ -1.558650,  -0.062077,   0.001812]
    <r_e> [Ang]:                        [ -1.565970,  -0.085734,   0.000966]
    |<r_e - r_h>| [Ang]:                  0.024778
    Hole size [Ang]:                      1.214964
      Cartesian components [Ang]:       [  0.637782,   0.626093,   0.823029]
    Electron size [Ang]:                  2.295263
      Cartesian components [Ang]:       [  1.518421,   1.522158,   0.803531]
    RMS electron-hole separation [Ang]:   2.587114
      Cartesian components [Ang]:       [  1.639408,   1.638975,   1.148590]
    Covariance(r_h, r_e) [Ang^2]:         0.025911
    Correlation coefficient:              0.009292
    Center-of-mass size [Ang]:            1.303475
      Cartesian components [Ang]:       [  0.827214,   0.826474,   0.575938]

  Decomposition into state-averaged NTOs
    H- 0 -> L+ 1: -0.6792 ( 92.3%)
                   omega =  92.6%
  ----------------------------------------------------------------------------


  Excited state 4 (singlet, A)                                     [converged]
  ----------------------------------------------------------------------------
  Term symbol:  5 (1) A                                     R^2 =  2.96369e-11

  Total energy:                                            -77.9583077435 a.u.
  Excitation energy:                                               9.832170 eV

  Osc. strength:                                                      0.000016
  Trans. dip. moment [a.u.]:           [  -0.000757,    0.001635,   -0.008054]
  <i|r^2|0> [a.u.]:                    [  -0.021912,   -0.018810,    0.036693]
  Two-photon absorption cross-section (SoS) [a.u.]:                 151.678143
  Two-photon absorption matrix (SoS) [a.u.]:
                                       |   -0.297531   -0.327092    3.040683 |
                                       |   -0.327092   -0.357082    3.047124 |
                                       |    3.040683    3.047124    0.654285 |
  Two-photon absorption cross-section [a.u.]:                        93.920208
  Two-photon absorption matrix [a.u.]:
                                       |   -0.238972   -0.257798    2.400279 |
                                       |   -0.257798   -0.276010    2.390218 |
                                       |    2.400279    2.390218    0.514664 |

  Dip. moment [a.u.]:                  [  -0.056803,   -0.044716,   -0.006232]
  Total dipole [Debye]:                                               0.184428
  <r^2> [a.u.]:                        [ 181.076230,   40.515576,   10.771567]
  Total <r^2> [a.u.]:                                               232.363373

  V1^2 = 0.9635, V2^2 = 0.0365

  Important amplitudes:
      occ i     occ j     vir a      vir b          v   
    -----------------------------------------------------
     8 (A) A             11 (A) A                 0.6697
     7 (A) A              9 (A) A                -0.1505
     8 (A) A             21 (A) A                 0.0781
     8 (A) A             16 (A) A                -0.0641
     8 (A) A   8 (A) B    9 (A) A   13 (A) B     -0.0168
     5 (A) A   8 (A) B   11 (A) A   11 (A) B      0.0155
     8 (A) A   8 (A) B   11 (A) A   17 (A) B      0.0140
     7 (A) A             20 (A) A                 0.0137
     7 (A) A   8 (A) B   13 (A) A   11 (A) B     -0.0127
     8 (A) A             12 (A) A                 0.0120
     5 (A) A   8 (A) A   11 (A) A   21 (A) A     -0.0110
     4 (A) A   8 (A) B   12 (A) A   11 (A) B     -0.0110
     8 (A) A   8 (A) B    9 (A) A   22 (A) B     -0.0108
     7 (A) A   8 (A) A   11 (A) A   22 (A) A      0.0097
     6 (A) A   8 (A) B   15 (A) A   11 (A) B      0.0090
     6 (A) A   8 (A) B   10 (A) A   11 (A) B     -0.0089
     7 (A) A   8 (A) B   22 (A) A   11 (A) B     -0.0089
     3 (A) A   4 (A) B   11 (A) A    9 (A) B     -0.0083
     3 (A) A   8 (A) B   11 (A) A   18 (A) B     -0.0081
     6 (A) A   8 (A) A   11 (A) A   15 (A) A     -0.0080
     7 (A) A   8 (A) A   13 (A) A   16 (A) A     -0.0078
     7 (A) A   8 (A) A   11 (A) A   13 (A) A      0.0077
     5 (A) A   8 (A) B   21 (A) A   11 (A) B      0.0071
     4 (A) A   8 (A) B   19 (A) A   11 (A) B      0.0069
     5 (A) A   8 (A) B    9 (A) A    9 (A) B      0.0068
     6 (A) A   8 (A) A   11 (A) A   18 (A) A     -0.0063
     4 (A) A   8 (A) A   11 (A) A   12 (A) A      0.0062
     8 (A) A             10 (A) A                 0.0061
     3 (A) A   6 (A) B   11 (A) A   28 (A) B     -0.0061
     6 (A) A   8 (A) B   18 (A) A   11 (A) B      0.0060
     7 (A) A   8 (A) B   16 (A) A   13 (A) B      0.0057
     3 (A) A   8 (A) A   11 (A) A   18 (A) A     -0.0056
     5 (A) A   8 (A) B   10 (A) A   10 (A) B      0.0056
     6 (A) A              9 (A) A                -0.0055
     3 (A) A   8 (A) B   11 (A) A   30 (A) B     -0.0055
     3 (A) A   5 (A) B   11 (A) A   25 (A) B     -0.0054
     6 (A) A   8 (A) B   11 (A) A   10 (A) B     -0.0054
     7 (A) A   8 (A) B   12 (A) A   10 (A) B     -0.0054
     8 (A) A   8 (A) B   20 (A) A   22 (A) B      0.0053
     3 (A) A   8 (A) A   11 (A) A   24 (A) A     -0.0053
    -----------------------------------------------------

  Density matrix analysis:
  ------------------------
  NOs
    Occupation of frontier NOs:
       0.9406   1.0278
    Number of electrons: 16.000000
    Number of unpaired electrons: n_u =  2.31939, n_u,nl =  2.04923
    NO participation ratio (PR_NO):  2.915461
  
  
  Mulliken Population Analysis
  Atom      Charge (e)              h+              e-           Del q
  --------------------------------------------------------------------
   1 H       -0.158318        0.046141       -0.255470       -0.209328
   2 C        0.274259        0.497411       -0.120823        0.376589
   3 H       -0.117964        0.046723       -0.215590       -0.168868
   4 C        0.275630        0.496294       -0.120608        0.375686
   5 H       -0.136639        0.046886       -0.233041       -0.186156
   6 H       -0.136968        0.046031       -0.233954       -0.187923
  --------------------------------------------------------------------
  Sum:        0.000000        1.179486       -1.179486       -0.000000
  
  Multipole moment analysis of the density matrix
    Molecular charge:                      0.000000
    Number of electrons:                   16.000000
      Center of electronic charge [Ang]: [ -1.558698,  -0.062248,   0.002184]
    Total nuclear charge:                  16.000000
      Center of nuclear charge [Ang]:    [ -1.560576,  -0.063727,   0.001978]
    Dipole moment [D]:                     0.184428
      Cartesian components [D]:          [ -0.144378,  -0.113655,  -0.015841]
    RMS size of the density [Ang]:         1.278028
      Cartesian components [Ang]:        [  0.860011,   0.839774,   0.434185]
  
  Exciton analysis of the difference density matrix
    <r_h> [Ang]:                  [ -1.558542,  -0.062563,   0.001926]
    <r_e> [Ang]:                  [ -1.533150,  -0.042073,   0.005018]
    |<r_e - r_h>| [Ang]:            0.032774
    Hole size [Ang]:                1.396050
      Cartesian components [Ang]: [  0.819789,   0.807029,   0.790952]
    Electron size [Ang]:            2.126154
      Cartesian components [Ang]: [  1.450314,   1.398422,   0.679364]

  Transition density matrix analysis:
  -----------------------------------
  
  CT numbers (Mulliken)
    omega =     0.9297
    <Phe> =    -0.0134
  
  Exciton analysis of the transition density matrix
    Trans. dipole moment [D]:             0.010488
      Cartesian components [D]:         [ -0.000962,   0.002078,  -0.010235]
    <r_h> [Ang]:                        [ -1.560299,  -0.063594,   0.001667]
    <r_e> [Ang]:                        [ -1.527952,  -0.038043,   0.005597]
    |<r_e - r_h>| [Ang]:                  0.041408
    Hole size [Ang]:                      1.229369
      Cartesian components [Ang]:       [  0.659445,   0.650758,   0.808080]
    Electron size [Ang]:                  2.264262
      Cartesian components [Ang]:       [  1.545569,   1.489000,   0.721786]
    RMS electron-hole separation [Ang]:   2.566100
      Cartesian components [Ang]:       [  1.672064,   1.617437,   1.083037]
    Covariance(r_h, r_e) [Ang^2]:         0.027537
    Correlation coefficient:              0.009893
    Center-of-mass size [Ang]:            1.293571
      Cartesian components [Ang]:       [  0.844475,   0.816359,   0.541984]

  Decomposition into state-averaged NTOs
    H- 0 -> L+ 2: -0.6647 ( 88.4%)
    H- 1 -> L+ 0:  0.1484 (  4.4%)
                   omega =  93.0%
  ----------------------------------------------------------------------------


  Excited state 5 (singlet, A)                                     [converged]
  ----------------------------------------------------------------------------
  Term symbol:  6 (1) A                                     R^2 =  1.29633e-10

  Total energy:                                            -77.9452248338 a.u.
  Excitation energy:                                              10.188174 eV

  Osc. strength:                                                      0.000001
  Trans. dip. moment [a.u.]:           [  -0.000281,   -0.000177,    0.001399]
  <i|r^2|0> [a.u.]:                    [  -0.089559,    0.106096,   -0.018637]
  Two-photon absorption cross-section (SoS) [a.u.]:                 164.012033
  Two-photon absorption matrix (SoS) [a.u.]:
                                       |   -0.307784   -0.034371    3.184722 |
                                       |   -0.034371    0.374708   -3.199562 |
                                       |    3.184722   -3.199562   -0.078326 |
  Two-photon absorption cross-section [a.u.]:                        69.413367
  Two-photon absorption matrix [a.u.]:
                                       |   -0.202807   -0.023527    2.062080 |
                                       |   -0.023527    0.241009   -2.091155 |
                                       |    2.062080   -2.091155   -0.052135 |

  Dip. moment [a.u.]:                  [   0.011439,   -0.011190,    0.000252]
  Total dipole [Debye]:                                               0.040677
  <r^2> [a.u.]:                        [ 178.131626,   38.067228,   12.022823]
  Total <r^2> [a.u.]:                                               228.221677

  V1^2 = 0.9577, V2^2 = 0.0423

  Important amplitudes:
      occ i     occ j     vir a      vir b          v   
    -----------------------------------------------------
     6 (A) A              9 (A) A                -0.4966
     8 (A) A             12 (A) A                -0.4727
     6 (A) A             20 (A) A                 0.0677
     8 (A) A             19 (A) A                 0.0469
     3 (A) A              9 (A) A                -0.0281
     8 (A) A             23 (A) A                -0.0247
     4 (A) A   8 (A) B    9 (A) A    9 (A) B     -0.0184
     8 (A) A   8 (A) B    9 (A) A   10 (A) B      0.0169
     8 (A) A             26 (A) A                -0.0144
     5 (A) A   8 (A) B   11 (A) A   12 (A) B     -0.0120
     3 (A) A             20 (A) A                 0.0118
     8 (A) A   8 (A) B   12 (A) A   17 (A) B     -0.0111
     7 (A) A   8 (A) B   13 (A) A   12 (A) B      0.0106
[...]
    16   -1.481139584454e-03
    17   -1.774484590946e-03
    18   -9.502123748197e-05
    19   -3.353897420122e-03
    20    1.150628564696e-02
    21    9.463145925758e-01
    22   -2.249854397107e-04
    23    1.414079935112e-02
    24    8.296105942043e-04
    25    7.003219896210e-02
    26   -5.209021237874e-02
    27   -1.398258124580e+00
    28    9.915114994028e-02
    29   -9.054324345734e-02
    30   -9.813188907917e-04
    31    3.848940094057e-01
    32   -3.560268842539e-01
    33   -4.127767028934e-03
    34    1.566333533402e-02
    35   -1.444722166238e-03
    36   -1.826751750235e-03
    37    2.719480963431e-04
    38   -3.164946197338e-03
    39    9.475444284824e-03
    40    9.258637342471e-01
    41    3.742896214083e-04
    42   -1.399186031034e-02
    43   -8.339229572807e-04
    44    1.058546220294e-02
    45    9.411292724163e-01
    46    1.409514316424e-02
    47    4.270886167341e-04
    48    6.800995310753e-04
Sym=X
Ene= 0.233241
Spin=Alpha
Occup=0
     1    2.574551339146e-02
     2    1.249444222941e+00
     3   -1.471167609406e-02
     4   -3.885457583572e-03
     5   -9.191597179481e-04
     6    4.151909292512e-03
     7   -3.986516367836e-03
     8   -7.607978726844e-02
     9   -1.564007197241e-01
    10   -1.571228763796e-01
    11   -1.665267308009e-02
    12   -5.595635438583e-01
    13   -5.557715553206e-01
    14   -5.914178327043e-02
    15    9.826315630258e-04
    16   -1.288919020822e-04
    17   -8.340656738773e-05
    18   -6.212714649983e-04
    19   -5.749432824917e-04
    20   -2.431808578934e-02
    21   -1.144458916437e+00
    22   -2.493092189818e-03
    23   -1.329642657545e-02
    24   -9.064793288309e-04
    25   -2.910390819001e-03
    26    3.118292951985e-03
    27    4.026926910165e-02
    28   -1.537693136619e-01
    29   -1.582019057695e-01
    30   -1.677884252972e-02
    31   -5.460227321037e-01
    32   -5.620209411327e-01
    33   -5.966536062633e-02
    34   -5.281649332004e-04
    35    6.574057241364e-05
    36    3.485624773232e-06
    37    5.555855741800e-04
    38    3.356103461482e-04
    39    2.390067081252e-02
    40    1.164293687434e+00
    41   -2.567350134346e-03
    42   -1.372638487356e-02
    43   -9.483470954187e-04
    44   -2.635687382051e-02
    45   -1.224578537453e+00
    46   -1.429181130277e-02
    47   -3.754113056156e-03
    48   -8.993217762738e-04
Sym=X
Ene= 0.239504
Spin=Alpha
Occup=0
     1   -1.612444249159e-02
     2   -1.038761740842e+00
     3    1.636252676685e-02
     4    9.075946370251e-03
     5    1.321937602214e-03
     6   -8.634627135403e-02
     7    7.940190246402e-02
     8    1.591888674747e+00
     9    5.148147180316e-02
    10   -6.151840167056e-02
    11   -1.060888418192e-03
    12    2.041538811034e-01
    13   -2.359558648951e-01
    14   -3.594052652903e-03
    15   -2.246365595970e-02
    16    2.612241225661e-03
    17    2.946347804359e-03
    18   -5.894213300004e-04
    19    1.282676535275e-02
    20   -1.697124202698e-02
    21   -1.129684711302e+00
    22   -8.586711707926e-03
    23   -1.779907442715e-02
    24   -1.453874630252e-03
    25    8.674249933028e-02
    26   -7.955872495328e-02
    27   -1.606664553951e+00
    28    5.239887309525e-02
    29   -6.147821204522e-02
    30   -1.520882846010e-03
    31    2.041726833522e-01
    32   -2.433648986078e-01
    33   -6.168384506247e-03
    34    2.274446929827e-02
    35   -2.582777837585e-03
    36   -3.055021525889e-03
    37    9.443219477728e-04
    38   -1.287145742275e-02
    39    1.687009753704e-02
    40    1.148175996170e+00
    41   -8.572766100272e-03
    42   -1.826958190214e-02
    43   -1.519819184187e-03
    44    1.523764512190e-02
    45    1.038517509084e+00
    46    1.629753148701e-02
    47    9.270475605067e-03
    48    1.300727779821e-03
Sym=X
Ene= 0.303065
Spin=Alpha
Occup=0
     1    1.988363806885e-02
     2   -1.688033587892e+00
     3    2.282390688641e-02
     4   -3.032948557098e-04
     5    1.074840088496e-03
     6    2.782660156112e-04
     7   -1.168169507764e-04
     8   -7.876267760821e-03
     9    1.337791608854e-01
    10    1.398897642413e-01
    11    1.459056934601e-02
    12    1.142797852695e+00
    13    1.189193813123e+00
    14    1.246193051681e-01
    15    1.774452552125e-04
    16    1.630323744142e-03
    17   -1.849059663087e-03
    18    3.245044874309e-02
    19    1.410150652464e-03
    20   -1.962710545966e-02
    21    1.690912160202e+00
    22   -1.311911551670e-03
    23    2.289872998044e-02
    24    1.278141850972e-03
    25   -1.570048364957e-04
    26   -1.262572308721e-04
    27   -1.207856433729e-03
    28   -1.344797358716e-01
    29   -1.401829119926e-01
    30   -1.476341652457e-02
    31   -1.137442358410e+00
    32   -1.198930849549e+00
    33   -1.253588803307e-01
    34    6.144668598575e-05
    35    1.567645591563e-03
    36   -1.940553771256e-03
    37    3.257936079316e-02
    38    1.435443025769e-03
    39   -2.049678161872e-02
    40    1.701414114350e+00
    41    1.440349218721e-03
    42   -2.282591716496e-02
    43   -1.302096635587e-03
    44    1.939140731433e-02
    45   -1.695147923037e+00
    46   -2.299526929158e-02
    47    3.674119611092e-04
    48   -1.062539589128e-03
Sym=X
Ene= 0.461252
Spin=Alpha
Occup=0
     1   -1.158448621843e-01
     2   -7.109613486914e-01
     3   -1.550618074301e-02
     4   -1.003914883728e-02
     5   -1.322245024433e-03
     6    6.091505999443e-02
     7    1.639429514836e-02
     8   -3.548190879225e+00
     9    1.047006536002e-01
    10   -1.007187291881e-01
    11   -1.053213048450e-03
    12    2.404624057079e+00
    13   -2.291965966659e+00
    14   -2.056092678548e-02
    15    5.289061198178e-02
    16   -3.306407350298e-03
    17   -4.554829895995e-03
    18   -9.663680315877e-04
    19    1.796563112316e-02
    20   -1.176445731840e-01
    21   -7.040004831694e-01
    22    8.962354984409e-03
    23    1.593409133166e-02
    24    1.367014280112e-03
    25   -6.087272697729e-02
    26   -1.609196941912e-02
    27    3.543237054507e+00
    28    1.057176514432e-01
    29   -1.004146321980e-01
    30   -1.289096067184e-03
    31    2.400907583923e+00
    32   -2.295313028633e+00
    33   -2.231042118904e-02
    34   -5.242556670502e-02
    35    3.316155116500e-03
    36    4.507959163874e-03
    37    9.219232783265e-04
    38   -1.824064320704e-02
    39    1.135635186562e-01
    40    7.196490365486e-01
    41    9.046553596920e-03
    42    1.596449243819e-02
    43    1.374667319016e-03
    44    1.150119443631e-01
    45    7.043257307687e-01
    46   -1.542342790118e-02
    47   -9.702715006995e-03
    48   -1.323812527187e-03
Sym=X
Ene= 0.577950
Spin=Alpha
Occup=0
     1    2.517736242090e-01
     2    4.130306588775e-02
     3   -1.799739296541e-02
     4    2.609819882400e-02
     5    6.894253790635e-04
     6   -4.509800340514e-03
     7   -1.543654829661e-01
     8   -4.493360341070e-01
     9    2.980285531603e-01
    10   -2.860238973905e-01
    11   -2.769739497981e-03
    12   -7.326329628665e-01
    13    7.052694866964e-01
    14    7.208935710516e-03
    15   -6.379381811194e-03
    16    4.032849428177e-03
    17    3.763648180302e-03
    18   -3.133727418120e-03
    19    6.120167084826e-02
    20    2.559787872659e-01
    21    3.700135085840e-02
    22   -2.660645617792e-02
    23    1.648527017143e-02
    24   -2.875624441177e-04
    25   -4.843840845879e-03
    26   -1.543269141014e-01
    27   -4.345484825582e-01
    28   -2.981733420654e-01
    29    2.844886395387e-01
    30    2.629287990818e-03
    31    7.464009450652e-01
    32   -7.192041941082e-01
    33   -7.701174386266e-03
    34   -6.230878698688e-03
    35    4.040934481660e-03
    36    3.726016076526e-03
    37   -2.649783872820e-03
    38    6.118804980767e-02
    39    2.526101239539e-01
    40    5.192814628543e-02
    41    2.668026580955e-02
    42   -1.637958776066e-02
    43    2.711120016558e-04
    44    2.543405827295e-01
    45    4.198956379349e-02
    46    1.790182554655e-02
    47   -2.596799492684e-02
    48   -7.175394005474e-04
Sym=X
Ene= 0.615293
Spin=Alpha
Occup=0
     1   -5.189356633600e-01
     2    2.022635153154e-01
     3   -6.088822240406e-02
     4    3.799986599644e-02
     5   -6.620921879092e-04
     6   -2.838822521874e-04
     7   -1.877545225043e-04
     8    3.459808403813e-03
     9   -4.012074437693e-02
    10   -3.992192064610e-02
    11   -4.305238748900e-03
    12    2.915692923925e-01
    13    2.966041428350e-01
    14    3.118166949685e-02
    15    5.965321227866e-04
    16   -7.523382930011e-03
    17    8.380227991274e-03
    18   -1.483836220615e-01
    19   -6.488695080826e-03
    20    5.133947038780e-01
    21   -2.010522521464e-01
    22    4.140683204496e-02
    23   -5.887712220759e-02
    24   -1.515803586032e-03
    25    9.890659186943e-05
    26   -2.694344498358e-03
    27    1.458306359740e-02
    28   -3.972035252911e-02
    29   -4.289354403081e-02
    30   -4.404228975699e-03
    31    2.903887070755e-01
    32    3.133854952963e-01
    33    3.265892154504e-02
    34   -1.170666513984e-03
    35    7.385017702197e-03
    36   -8.530002318120e-03
    37    1.482314843313e-01
    38    7.174282054779e-03
    39   -5.139005047504e-01
    40    1.874688347289e-01
    41    4.071274633912e-02
    42   -5.851448334680e-02
    43   -1.590351849003e-03
    44    5.188606253106e-01
    45   -2.037838498701e-01
    46   -6.107992874937e-02
    47    3.812951104857e-02
    48   -5.717447710645e-04
Sym=X
Ene= 0.689892
Spin=Alpha
Occup=0
     1    5.776813354576e-04
     2    2.376880797158e-04
     3    1.086635587161e-03
     4    1.304007554148e-03
     5   -2.113536658450e-02
     6    4.012562279800e-05
     7    3.579598801087e-04
     8    9.889816545366e-05
     9    3.160003196080e-02
    10    3.987370803110e-02
    11   -6.712377847549e-01
    12   -2.965230355376e-02
    13   -3.561882956764e-02
    14    6.135604135780e-01
    15   -1.426230694645e-03
    16    8.238421407976e-02
    17   -7.849041675742e-02
    18   -8.614943192209e-03
    19   -1.011865352338e-03
    20    6.214068595547e-04
    21    3.101620816301e-05
    22    9.176789053280e-04
    23    1.142547368737e-03
    24   -2.107758691879e-02
    25    8.603150605638e-06
    26    6.498061932442e-04
    27   -7.002812133775e-04
    28    3.200453188468e-02
    29    3.989616083375e-02
    30   -6.709305129907e-01
    31   -3.013902431580e-02
    32   -3.575298436133e-02
    33    6.135862279136e-01
    34    1.110723306988e-03
    35   -8.242291091401e-02
    36    7.871397751608e-02
    37    8.547614859784e-03
    38    1.124601921936e-03
    39    1.175449499375e-04
    40   -8.249847834915e-04
    41    1.059338549214e-03
    42    1.483049280640e-03
    43   -2.204155167197e-02
    44    7.407940815932e-05
    45   -6.214486389056e-04
    46    8.408537983269e-04
    47    1.256261417623e-03
    48   -2.088945698486e-02
Sym=X
Ene= 0.709207
Spin=Alpha
Occup=0
     1   -4.780949119468e-01
     2    1.567067653982e-01
     3   -8.130784793439e-02
     4   -4.399579766431e-02
     5   -6.511729342629e-03
     6   -4.801582034732e-02
     7   -3.197124123623e-01
     8    4.950871308966e-01
     9    2.043694844957e-01
    10   -1.954604181807e-01
    11   -2.483787551596e-03
    12   -9.191586057369e-02
    13    8.499291632441e-02
    14    7.612880746818e-04
    15    1.952744790144e-01
    16   -2.054523837038e-02
    17   -2.397152601730e-02
    18    3.048620546018e-03
    19   -7.656322193626e-02
    20   -4.763573228673e-01
    21    1.538100068769e-01
    22    4.104598438252e-02
    23    8.262144177312e-02
    24    6.780438850555e-03
    25   -4.669433891685e-02
    26   -3.236835479178e-01
    27    4.723942413649e-01
    28   -2.084008455176e-01
    29    1.928776108616e-01
    30    9.616576765008e-04
    31    7.934779241805e-02
    32   -5.780286808097e-02
    33    1.654235921979e-03
    34    1.930023272542e-01
    35   -2.037388877680e-02
    36   -2.377236331287e-02
    37    2.704525594851e-03
    38   -7.553380849714e-02
    39   -4.670537151063e-01
    40    1.275967803358e-01
    41   -4.026938127007e-02
    42   -8.131574428342e-02
    43   -6.748845193203e-03
    44   -4.709795881074e-01
    45    1.517159090933e-01
    46    8.015338797746e-02
    47    4.428173631278e-02
    48    6.455128872973e-03
Sym=X
Ene= 0.783777
Spin=Alpha
Occup=0
     1    5.264891250379e-01
     2   -4.641203835550e-01
     3    1.099921525121e-01
     4    2.552828806582e-02
     5    6.738305139032e-03
     6    9.075240976981e-02
     7   -2.186749034732e-01
     8   -6.219376171930e-01
     9    1.146250991377e-01
    10   -1.120896027963e-01
    11   -7.802678426841e-05
    12    2.992105356438e-01
    13   -2.787616106008e-01
    14   -4.263522890853e-03
    15   -2.053587165978e-01
    16    1.744778683941e-02
    17    2.141904928903e-02
    18    4.599818070261e-04
    19    7.557524674989e-03
    20    5.328743311552e-01
    21   -4.597875310119e-01
    22   -1.973055003399e-02
    23   -1.106569042914e-01
    24   -7.452131428119e-03
    25   -9.167140066488e-02
    26    2.089465714289e-01
    27    6.430392484469e-01
    28    1.093932703996e-01
    29   -1.140944819419e-01
    30   -2.412335169031e-03
    31    3.066284412673e-01
    32   -2.641280624063e-01
    33    8.719086406560e-04
    34    2.087972068215e-01
    35   -1.763464231354e-02
    36   -2.225779226340e-02
    37   -2.251643463317e-04
    38   -8.288014102610e-03
    39   -5.364303264612e-01
    40    4.437115685590e-01
    41   -1.995430128336e-02
    42   -1.115049910370e-01
    43   -7.614792983157e-03
    44   -5.362590596681e-01
    45    4.728246737339e-01
    46    1.114818179664e-01
    47    2.667258996219e-02
    48    6.875731658807e-03
Sym=X
Ene= 0.807609
Spin=Alpha
Occup=0
     1    6.143983108261e-04
     2   -9.568794267623e-04
     3    1.798384406640e-03
     4    2.017091503505e-03
     5   -3.388287384173e-02
     6    1.279111152908e-04
     7   -4.949012874812e-04
     8   -9.599836544257e-06
     9    3.645490462211e-02
    10    4.468119326788e-02
    11   -7.630377275292e-01
    12   -5.305239598319e-02
    13   -6.648402454640e-02
    14    1.125208816091e+00
    15    6.467038378329e-04
    16   -6.407708358043e-02
    17    6.117097066735e-02
    18    6.754305342323e-03
    19    7.786448640956e-04
    20    6.133216146788e-04
    21   -3.784249884907e-04
    22    1.665201725009e-03
    23    1.896011485453e-03
    24   -3.419141270751e-02
    25   -1.065712579419e-04
    26   -5.277036371986e-06
    27    2.937240945204e-04
    28   -3.604241949365e-02
    29   -4.585013576547e-02
    30    7.630320325577e-01
    31    5.396117968919e-02
    32    6.694097223321e-02
    33   -1.125385610158e+00
    34    1.359168460184e-03
    35   -6.414320659702e-02
    36    6.108537700136e-02
    37    6.592734527139e-03
    38    9.381267809449e-04
    39   -6.074274056861e-04
    40    4.944917743966e-04
    41   -1.573569319501e-03
    42   -2.325896143373e-03
    43    3.489811481222e-02
    44   -6.196718156223e-04
    45    1.101721258056e-03
    46   -1.289962478068e-03
    47   -2.031981929167e-03
    48    3.378525765347e-02
Sym=X
Ene= 0.863020
Spin=Alpha
Occup=0
     1    1.359945955182e-02
     2   -1.100897594281e+00
     3    1.491075863510e-01
     4    5.652467269133e-02
     5    1.038649459773e-02
     6   -4.474111722013e-04
     7    5.672322071507e-03
     8   -6.230354004465e-03
     9   -4.130013538783e-01
    10   -4.281397689554e-01
    11   -4.469945835874e-02
    12    9.586896930616e-01
    13    9.980361867130e-01
    14    1.040412891779e-01
    15    6.164261872907e-04
    16    1.177748359918e-02
    17   -1.365753216393e-02
    18    2.367546642927e-01
    19    1.095563938792e-02
    20   -1.793471774765e-02
    21    1.107391042718e+00
    22    5.009402080067e-02
    23    1.531157019809e-01
    24    1.146545468894e-02
    25    1.008368449905e-03
    26    5.428933381892e-03
    27   -2.356734486269e-03
    28   -4.082095889911e-01
    29   -4.228338575299e-01
    30   -4.478670341043e-02
    31    9.483784433716e-01
    32    9.916906663561e-01
    33    1.045767944821e-01
    34   -3.124974154491e-03
    35   -1.156757962093e-02
    36    1.391176239191e-02
    37   -2.364781309304e-01
    38   -1.183678412846e-02
    39    1.537017156234e-02
    40   -1.098988066468e+00
    41    4.901850642991e-02
    42    1.517818482429e-01
    43    1.146629703988e-02
    44   -8.507289496283e-03
    45    1.094346476176e+00
    46    1.476438656568e-01
    47    5.677164941482e-02
    48    1.029239192550e-02
Sym=X
Ene= 0.935833
Spin=Alpha
Occup=0
     1   -1.137579989107e-01
     2    1.268267703012e+00
     3   -1.807315527535e-01
     4    6.287550137362e-03
     5   -8.278233671505e-03
     6   -6.798118507972e-04
     7    6.010505123618e-03
     8   -2.815824649939e-02
     9    4.640603030416e-01
    10    5.034397083213e-01
    11    5.179876631254e-02
    12   -1.440907442678e+00
    13   -1.554745192211e+00
    14   -1.603593809639e-01
    15    9.919940719527e-04
    16   -5.793749391510e-03
    17    6.806142590708e-03
    18   -1.191513045822e-01
    19    1.019353434917e-03
    20    1.148952639415e-01
    21   -1.289328745343e+00
    22    1.080270347729e-02
    23   -1.814904023924e-01
    24   -1.012290659487e-02
    25    1.214152410834e-03
    26    1.442861022267e-02
    27   -4.566838352205e-03
    28   -4.868185113369e-01
    29   -4.878091659631e-01
    30   -5.215443510579e-02
    31    1.503556300426e+00
    32    1.512339308975e+00
    33    1.614006954948e-01
    34   -3.479595198609e-03
    35   -6.163570976405e-03
    36    7.203339965272e-03
    37   -1.222331149330e-01
    38   -1.207541453530e-02
    39    1.158193408245e-01
    40   -1.271911400359e+00
    41   -1.525696881997e-02
    42    1.806184105896e-01
    43    1.005737565900e-02
    44   -1.145353182381e-01
    45    1.313200974996e+00
    46    1.848122550824e-01
    47   -2.156423585552e-03
    48    8.638123652551e-03
Sym=X
Ene= 0.970741
Spin=Alpha
Occup=0
     1   -6.832498366263e-02
     2    9.496924182759e-01
     3   -9.412597420358e-02
     4   -9.850384260506e-02
     5   -1.030689207731e-02
     6    2.416793598403e-02
     7    2.505197882670e-01
     8    5.355568968123e-01
     9    4.880142409131e-01
    10   -4.484884362037e-01
    11   -3.149764765122e-03
    12   -1.530516865463e+00
    13    1.391409193462e+00
    14    8.987899698018e-03
    15   -5.180124884370e-02
    16   -1.302842287314e-02
    17   -9.911096785661e-03
    18    1.228034720151e-02
    19   -3.018097882187e-01
    20   -6.908170139638e-02
    21    8.954377110161e-01
    22    9.515837792308e-02
    23    9.159880394202e-02
    24    9.950150490023e-03
    25   -2.387817470512e-02
    26   -2.289010045748e-01
    27   -5.713323218070e-01
    28    4.663939462588e-01
    29   -4.652836327406e-01
    30   -5.939050323723e-03
    31   -1.449823733685e+00
    32    1.463746350121e+00
    33    1.919970141752e-02
    34    5.060913690977e-02
    35    1.263494876631e-02
    36    1.029146285829e-02
    37   -1.814944673289e-02
    38    2.991760112919e-01
    39    6.766828203496e-02
    40   -9.467623562233e-01
    41    9.372627129456e-02
    42    9.771291296221e-02
    43    1.040369243072e-02
    44    6.891719646564e-02
    45   -8.743814772989e-01
    46   -8.411455995003e-02
    47   -9.779023283485e-02
    48   -9.654194272223e-03
[5D]

======= END OF MOLDEN-FORMATTED INPUT FILE =======


        *************************************************************
        *                                                           *
        *  Thank you very much for using Q-Chem.  Have a nice day.  *
        *                                                           *
        *************************************************************


