                  Welcome to Q-Chem
     A Quantum Leap Into The Future Of Chemistry


 Q-Chem 5.4 (devel), Q-Chem, Inc., Pleasanton, CA (2021)

 E. Epifanovsky,  A. T. B. Gilbert,  Xintian Feng,  Joonho Lee,  Yuezhi Mao,  
 N. Mardirossian,  P. Pokhilko,  A. White,  M. Wormit,  M. P. Coons,  
 A. L. Dempwolff,  Zhengting Gan,  D. Hait,  P. R. Horn,  L. D. Jacobson,  
 I. Kaliman,  J. Kussmann,  A. W. Lange,  Ka Un Lao,  D. S. Levine,  Jie Liu,  
 S. C. McKenzie,  A. F. Morrison,  K. Nanda,  F. Plasser,  D. R. Rehn,  
 M. L. Vidal,  Zhi-Qiang You,  Ying Zhu,  B. Alam,  B. Albrecht,  
 A. Aldossary,  E. Alguire,  J. H. Andersen,  D. Barton,  K. Begam,  A. Behn,  
 Y. A. Bernard,  E. J. Berquist,  H. Burton,  A. Carreras,  K. Carter-Fenk,  
 R. Chakraborty,  A. D. Chien,  K. D. Closser,  V. Cofer-Shabica,  
 S. Dasgupta,  Jia Deng,  M. de Wergifosse,  M. Diedenhofen,  Hainam Do,  
 S. Ehlert,  Po-Tung Fang,  S. Fatehi,  Qingguo Feng,  T. Friedhoff,  
 J. Gayvert,  Qinghui Ge,  G. Gidofalvi,  M. Goldey,  J. Gomes,  
 C. Gonzalez-Espinoza,  S. Gulania,  A. Gunina,  M. W. D. Hanson-Heine,  
 P. H. P. Harbach,  A. W. Hauser,  M. F. Herbst,  M. Hernandez Vera,  
 M. Hodecker,  Z. C. Holden,  S. Houck,  Xunkun Huang,  Kerwin Hui,  
 B. C. Huynh,  M. Ivanov,  Hyunjun Ji,  Hanjie Jiang,  B. Kaduk,  S. Kaehler,  
 K. Khistyaev,  Jaehoon Kim,  P. Klunzinger,  Z. Koczor-Benda,  
 Joong Hoon Koh,  D. Kosenkov,  L. Koulias,  T. Kowalczyk,  C. M. Krauter,  
 K. Kue,  A. Kunitsa,  T. Kus,  A. Landau,  K. V. Lawler,  D. Lefrancois,  
 S. Lehtola,  Rain Li,  Yi-Pei Li,  Jiashu Liang,  M. Liebenthal,  
 Hung-Hsuan Lin,  You-Sheng Lin,  Fenglai Liu,  Kuan-Yu Liu,  
 M. Loipersberger,  A. Luenser,  A. Manjanath,  P. Manohar,  E. Mansoor,  
 S. F. Manzer,  Shan-Ping Mao,  A. V. Marenich,  T. Markovich,  S. Mason,  
 S. A. Maurer,  P. F. McLaughlin,  M. F. S. J. Menger,  J.-M. Mewes,  
 S. A. Mewes,  P. Morgante,  J. W. Mullinax,  K. J. Oosterbaan,  G. Paran,  
 Alexander C. Paul,  Suranjan K. Paul,  F. Pavosevic,  Zheng Pei,  S. Prager,  
 E. I. Proynov,  E. Ramos,  B. Rana,  A. E. Rask,  A. Rettig,  R. M. Richard,  
 F. Rob,  E. Rossomme,  T. Scheele,  M. Scheurer,  M. Schneider,  
 N. Sergueev,  S. M. Sharada,  W. Skomorowski,  D. W. Small,  C. J. Stein,  
 Yu-Chuan Su,  E. J. Sundstrom,  Zhen Tao,  J. Thirman,  T. Tsuchimochi,  
 N. M. Tubman,  S. P. Veccham,  O. Vydrov,  J. Wenzel,  J. Witte,  A. Yamada,  
 Kun Yao,  S. Yeganeh,  S. R. Yost,  A. Zech,  Igor Ying Zhang,  Xing Zhang,  
 Yu Zhang,  D. Zuev,  A. Aspuru-Guzik,  A. T. Bell,  N. A. Besley,  
 K. B. Bravaya,  B. R. Brooks,  D. Casanova,  Jeng-Da Chai,  S. Coriani,  
 C. J. Cramer,  A. E. DePrince, III,  R. A. DiStasio Jr.,  A. Dreuw,  
 B. D. Dunietz,  T. R. Furlani,  W. A. Goddard III,  S. Grimme,  
 S. Hammes-Schiffer,  T. Head-Gordon,  W. J. Hehre,  Chao-Ping Hsu,  
 T.-C. Jagau,  Yousung Jung,  A. Klamt,  Jing Kong,  D. S. Lambrecht,  
 WanZhen Liang,  N. J. Mayhall,  C. W. McCurdy,  J. B. Neaton,  
 C. Ochsenfeld,  J. A. Parkhill,  R. Peverati,  V. A. Rassolov,  Yihan Shao,  
 L. V. Slipchenko,  T. Stauch,  R. P. Steele,  J. E. Subotnik,  
 A. J. W. Thom,  A. Tkatchenko,  D. G. Truhlar,  T. Van Voorhis,  
 T. A. Wesolowski,  K. B. Whaley,  H. L. Woodcock III,  P. M. Zimmerman,  
 S. Faraji,  P. M. W. Gill,  M. Head-Gordon,  J. M. Herbert,  A. I. Krylov

 Additional authors for Version 5.4.1: 
 S. Kotaru,  Shaozhi Li,  Xiangyuan Li,  F. Matz,  A. Molle,  Haisheng Ren,  
 Yingli Su,  Hung-Yi Tsai,  C. Utku,  Fang Wang

 Contributors to earlier versions of Q-Chem not listed above: 
 R. D. Adamson,  B. Austin,  R. Baer,  J. Baker,  G. J. O. Beran,  
 K. Brandhorst,  S. T. Brown,  E. F. C. Byrd,  A. K. Chakraborty,  
 G. K. L. Chan,  Chun-Min Chang,  Yunqing Chen,  C.-L. Cheng,  
 Siu Hung Chien,  D. M. Chipman,  D. L. Crittenden,  H. Dachsel,  
 R. J. Doerksen,  A. D. Dutoi,  R. G. Edgar,  J. Fosso-Tande,  
 L. Fusti-Molnar,  D. Ghosh,  A. Ghysels,  A. Golubeva-Zadorozhnaya,  
 J. Gonthier,  M. S. Gordon,  S. R. Gwaltney,  G. Hawkins,  J. E. Herr,  
 A. Heyden,  S. Hirata,  E. G. Hohenstein,  G. Kedziora,  F. J. Keil,  
 C. Kelley,  Jihan Kim,  R. A. King,  R. Z. Khaliullin,  P. P. Korambath,  
 W. Kurlancheek,  A. Laurent,  A. M. Lee,  M. S. Lee,  S. V. Levchenko,  
 Ching Yeh Lin,  D. Liotard,  E. Livshits,  R. C. Lochan,  I. Lotan,  
 L. A. Martinez-Martinez,  P. E. Maslen,  N. Nair,  D. P. O'Neill,  
 D. Neuhauser,  E. Neuscamman,  C. M. Oana,  R. Olivares-Amaya,  R. Olson,  
 T. M. Perrine,  B. Peters,  P. A. Pieniazek,  A. Prociuk,  Y. M. Rhee,  
 J. Ritchie,  M. A. Rohrdanz,  E. Rosta,  N. J. Russ,  H. F. Schaefer III,  
 M. W. Schmidt,  N. E. Schultz,  S. Sharma,  N. Shenvi,  C. D. Sherrill,  
 A. C. Simmonett,  A. Sodt,  T. Stein,  D. Stuck,  K. S. Thanthiriwatte,  
 V. Vanovschi,  L. Vogt,  Tao Wang,  A. Warshel,  M. A. Watson,  
 C. F. Williams,  Q. Wu,  X. Xu,  Jun Yang,  W. Zhang,  Yan Zhao

 Please cite Q-Chem as follows:
 Y. Shao et al., Mol. Phys. 113, 184-215 (2015)
 DOI: 10.1080/00268976.2014.952696

 Q-Chem 5.4.1 for Intel X86 EM64T Linux

 Parts of Q-Chem use Armadillo 9.800.1 (Horizon Scraper).
 http://arma.sourceforge.net/

 Q-Chem begins on Wed Mar 15 16:15:58 2023  

 Host: cpu121.yggdrasil
0

     Scratch files written to /srv/beegfs/scratch/users/f/fum/qchem66413//
 Processing $rem in /home/share/wesolowski/qc5.aug2021.FDE/config/preferences:
 Processing $rem in /home/fum/.qchemrc:

 Checking the input file for inconsistencies... 	...done.

--------------------------------------------------------------
User input:
--------------------------------------------------------------
$comment
generated from CCJob.Templates
$end

$rem
sym_ignore = true
method = adc(2)
ee_states = 10
basis = cc-pVDZ
mem_static = 1024
mem_total = 40000
adc_davidson_maxiter = 900
adc_davidson_conv = 6
adc_print = 3
adc_prop_es = true
adc_prop_es2es = true
adc_prop_tpa = true
molden_format = True
state_analysis = true
print_orbitals = 15
gen_scfman = false
fde_export_density = true
fde_details = 3
$end

$molecule
0 1
H -0.0348278765 -0.2442097827 0.0636489606
C -1.0765972949 -0.5242748755 -0.0423551776
H -1.313264467 -1.5767591607 -0.0757276926
C -2.043634118 0.3926884087 0.0061254933
H -1.8137616575 1.4459188338 0.0804456828
H -3.085977293 0.114931858 -0.0593381042                     
$end
--------------------------------------------------------------
 ----------------------------------------------------------------
             Standard Nuclear Orientation (Angstroms)
    I     Atom           X                Y                Z
 ----------------------------------------------------------------
    1      H      -0.0348278765    -0.2442097827     0.0636489606
    2      C      -1.0765972949    -0.5242748755    -0.0423551776
    3      H      -1.3132644670    -1.5767591607    -0.0757276926
    4      C      -2.0436341180     0.3926884087     0.0061254933
    5      H      -1.8137616575     1.4459188338     0.0804456828
    6      H      -3.0859772930     0.1149318580    -0.0593381042
 ----------------------------------------------------------------
 Nuclear Repulsion Energy =          33.41035687 hartrees
 There are        8 alpha and        8 beta electrons
 Requested basis set is cc-pVDZ
 There are 24 shells and 48 basis functions
 Total memory of 40000 MB is distributed as follows: 
   MEM_STATIC is set to 1024 MB
   QALLOC/CCMAN JOB total memory use is  38976 MB
 Warning: actual memory use might exceed 40000 MB

 Total QAlloc Memory Limit  40000 MB
 Mega-Array Size      1001 MB
 MEM_STATIC part      1024 MB

                       Distance Matrix (Angstroms)
             H (  1)   C (  2)   H (  3)   C (  4)   H (  5)
   C (  2)  1.083954
   H (  3)  1.851895  1.079281
   C (  4)  2.108139  1.333541  2.102109
   H (  5)  2.453859  2.107167  3.067812  1.080583
   H (  6)  3.074674  2.108668  2.450428  1.080700  1.846510

 A cutoff of  1.0D-11 yielded    300 shell pairs
 There are      1220 function pairs (      1329 Cartesian)
 Smallest overlap matrix eigenvalue = 4.82E-03

 Scale SEOQF with 1.000000e-01/1.000000e-01/1.000000e+00

 Standard Electronic Orientation quadrupole field applied
 Nucleus-field energy     =     0.0000000021 hartrees
 Guess from superposition of atomic densities
 Warning:  Energy on first SCF cycle will be non-variational
 SAD guess density has 16.000000 electrons
 A restricted Hartree-Fock SCF calculation will be
 performed using Pulay DIIS extrapolation
 SCF converges when DIIS error is below 1.0E-08
 using 10 threads for integral computing
 -------------------------------------------------------
 OpenMP Integral computing Module                
 Release: version 1.0, May 2013, Q-Chem Inc. Pittsburgh 
 -------------------------------------------------------
 ---------------------------------------
  Cycle       Energy         DIIS Error
 ---------------------------------------
    1     -78.4365430506      1.01E-01
    2     -78.0173204582      7.20E-03
    3     -78.0379230721      1.84E-03
    4     -78.0394038717      5.71E-04
    5     -78.0395247281      5.80E-05
    6     -78.0395266129      9.29E-06
    7     -78.0395266741      2.10E-06
    8     -78.0395266770      6.53E-07
    9     -78.0395266772      1.36E-07
   10     -78.0395266772      3.43E-08
   11     -78.0395266772      7.00E-09 Convergence criterion met
 ---------------------------------------
 SCF time:  CPU 2.15 s  wall 3.76 s
 SCF   energy in the final basis set = -78.03952668
 Total energy in the final basis set = -78.03952668
Exporting Density Matrix to file 'Densmat_SCF.txt'.
Export successful
================================================================================
|                                                                              |
|                                 A D C  M A N                                 |
|                                                                              |
 ------------------------------------------------------------------------------ 
|                                                                              |
| Components:                                                                  |
|                                                                              |
| - libvmm - 1.3-trunk                                                         |
|   Authors:                                                                   |
|   Evgeny Epifanovsky, Ilya Kaliman                                           |
|                                                                              |
| - libtensor - 2.5-trunk                                                      |
|   Authors:                                                                   |
|   Evgeny Epifanovsky, Michael Wormit, Dmitry Zuev, Sam Manzer,               |
|   Ilya Kaliman                                                               |
|                                                                              |
| - libwfa - 1.1-trunk                                                         |
|   Authors:                                                                   |
|   Felix Plasser, Stefanie Mewes (Baeppler), Benjamin Thomitzni,              |
|   Michael Wormit, Feng Chen, Anna I. Krylov, Pavel Pokhilko                  |
|                                                                              |
| - libadc - 1.1-trunk                                                         |
|   Authors:                                                                   |
|   Michael Wormit, Adrian L. Dempwolff, Philipp H. P. Harbach,                |
|   Caroline Krauter, Dirk Rehn, Matthias Schneider, Jan Wenzel                |
|                                                                              |
| - adcman - 2.6-trunk                                                         |
|   Authors:                                                                   |
|   Michael Wormit, Adrian L. Dempwolff, Philipp H. P. Harbach,                |
|   Caroline Krauter, Daniel Lefrancois, Jan-Michael Mewes, Dirk Rehn,         |
|   Matthias Schneider, Jan Wenzel, Andreas Dreuw                              |
|                                                                              |
| Authors of earlier versions of ADCMAN:                                       |
| Andreas Dreuw, Jan Hendrik Starcke, Dirk Rehn, Michael Wormit                |
|                                                                              |
================================================================================

 Created directory /srv/beegfs/scratch/users/f/fum/qchem66413/plots
  Import QC data ...  CPU 0.00 s  wall 0.02 s

 Alpha MOs, Restricted
 -- Occupied --                  
-11.235 -11.234  -1.032  -0.790  -0.641  -0.582  -0.505  -0.374
  1 A     2 A     3 A     4 A     5 A     6 A     7 A     8 A                  
 -- Virtual --                   
  0.168   0.204   0.233   0.239   0.303   0.462   0.578   0.615
  9 A    10 A    11 A    12 A    13 A    14 A    15 A    16 A                  
  0.689   0.710   0.785   0.808   0.862   0.935   0.972   1.010
 17 A    18 A    19 A    20 A    21 A    22 A    23 A    24 A                  
  1.119   1.235   1.254   1.265   1.301   1.600   1.726   1.750
 25 A    26 A    27 A    28 A    29 A    30 A    31 A    32 A                  
  1.819   1.859   1.868   1.920   1.977   1.978   2.218   2.259
 33 A    34 A    35 A    36 A    37 A    38 A    39 A    40 A                  
  2.373   2.455   2.507   2.632   2.720   2.823   3.135   3.392
 41 A    42 A    43 A    44 A    45 A    46 A    47 A    48 A                  

 Beta MOs, Restricted
 -- Occupied --                  
-11.235 -11.234  -1.032  -0.790  -0.641  -0.582  -0.505  -0.374
  1 A     2 A     3 A     4 A     5 A     6 A     7 A     8 A                  
 -- Virtual --                   
  0.168   0.204   0.233   0.239   0.303   0.462   0.578   0.615
  9 A    10 A    11 A    12 A    13 A    14 A    15 A    16 A                  
  0.689   0.710   0.785   0.808   0.862   0.935   0.972   1.010
 17 A    18 A    19 A    20 A    21 A    22 A    23 A    24 A                  
  1.119   1.235   1.254   1.265   1.301   1.600   1.726   1.750
 25 A    26 A    27 A    28 A    29 A    30 A    31 A    32 A                  
  1.819   1.859   1.868   1.920   1.977   1.978   2.218   2.259
 33 A    34 A    35 A    36 A    37 A    38 A    39 A    40 A                  
  2.373   2.455   2.507   2.632   2.720   2.823   3.135   3.392
 41 A    42 A    43 A    44 A    45 A    46 A    47 A    48 A                  
  Import AO data ...  CPU 0.01 s  wall 0.30 s
  Using point group: C1
  Irreducible representations in point group: A
  Molecular orbitals: 
  Occupied MOs:
  Block   0:   1 (  A) A   2 (  A) A   3 (  A) A   4 (  A) A   5 (  A) A
                  -11.24      -11.23      -1.032     -0.7898     -0.6409
               6 (  A) A   7 (  A) A   8 (  A) A
                 -0.5816     -0.5045     -0.3739
  Block   1:   1 (  A) B   2 (  A) B   3 (  A) B   4 (  A) B   5 (  A) B
                  -11.24      -11.23      -1.032     -0.7898     -0.6409
               6 (  A) B   7 (  A) B   8 (  A) B
                 -0.5816     -0.5045     -0.3739
  Virtual MOs:
  Block   0:   9 (  A) A  10 (  A) A  11 (  A) A  12 (  A) A  13 (  A) A
                  0.1677      0.2036       0.233      0.2394      0.3032
              14 (  A) A  15 (  A) A  16 (  A) A  17 (  A) A  18 (  A) A
                  0.4617      0.5776       0.615      0.6895      0.7097
              19 (  A) A  20 (  A) A  21 (  A) A  22 (  A) A
                  0.7847      0.8078      0.8622       0.935
  Block   1:  23 (  A) A  24 (  A) A  25 (  A) A  26 (  A) A  27 (  A) A
                  0.9718        1.01       1.119       1.235       1.254
              28 (  A) A  29 (  A) A  30 (  A) A  31 (  A) A  32 (  A) A
                   1.265       1.301         1.6       1.726        1.75
              33 (  A) A  34 (  A) A  35 (  A) A  36 (  A) A
                   1.819       1.859       1.868        1.92
  Block   2:  37 (  A) A  38 (  A) A  39 (  A) A  40 (  A) A  41 (  A) A
                   1.977       1.978       2.218       2.259       2.373
              42 (  A) A  43 (  A) A  44 (  A) A  45 (  A) A  46 (  A) A
                   2.455       2.507       2.632        2.72       2.823
              47 (  A) A  48 (  A) A
                   3.135       3.392
  Block   3:   9 (  A) B  10 (  A) B  11 (  A) B  12 (  A) B  13 (  A) B
                  0.1677      0.2036       0.233      0.2394      0.3032
              14 (  A) B  15 (  A) B  16 (  A) B  17 (  A) B  18 (  A) B
                  0.4617      0.5776       0.615      0.6895      0.7097
              19 (  A) B  20 (  A) B  21 (  A) B  22 (  A) B
                  0.7847      0.8078      0.8622       0.935
  Block   4:  23 (  A) B  24 (  A) B  25 (  A) B  26 (  A) B  27 (  A) B
                  0.9718        1.01       1.119       1.235       1.254
              28 (  A) B  29 (  A) B  30 (  A) B  31 (  A) B  32 (  A) B
                   1.265       1.301         1.6       1.726        1.75
              33 (  A) B  34 (  A) B  35 (  A) B  36 (  A) B
                   1.819       1.859       1.868        1.92
  Block   5:  37 (  A) B  38 (  A) B  39 (  A) B  40 (  A) B  41 (  A) B
                   1.977       1.978       2.218       2.259       2.373
              42 (  A) B  43 (  A) B  44 (  A) B  45 (  A) B  46 (  A) B
                   2.455       2.507       2.632        2.72       2.823
              47 (  A) B  48 (  A) B
                   3.135       3.392
  Import MO data ...  CPU 0.01 s  wall 0.01 s
  Import HF data ...  CPU 0.17 s  wall 0.06 s
  Import 2e integrals ...  CPU 1.25 s  wall 0.24 s

--------------------------------------------------------------------------------
                                   HF Summary                                   
--------------------------------------------------------------------------------
  Energy:                                                  -78.0395266772 a.u.
  Dip. moment [a.u.]:                  [  -0.003978,    0.000534,    0.022412]
  Total dipole [Debye]:                                               0.057872
  <r^2> [a.u.]:                        [ 175.316181,   34.910396,   11.666991]
  Total <r^2> [a.u.]:                                               221.893568
--------------------------------------------------------------------------------
  HF properties ...  CPU 0.01 s  wall 0.01 s
  MP(1) calculation ...  CPU 0.01 s  wall 0.00 s
  N^6 prerequesite intermediates ...  CPU 0.46 s  wall 0.07 s
  Difference density matrix of state mp2_gs printed to ASCII file 'State_mp2_gs_Difference.txt'
Exporting MP density matrix to file 'Densmat_MP.txt'.
Export successful
  Total density matrix of state mp2_gs printed to ASCII file 'State_mp2_gs_Total.txt'
Exporting MP density matrix to file 'Densmat_MP.txt'.
Export successful

--------------------------------------------------------------------------------
                                 MP(2) Summary                                  
--------------------------------------------------------------------------------
  MP energy contribution:                                   -0.2798347145 a.u.
  Total energy:                                            -78.3193613917 a.u.
  Dip. moment [a.u.]:                  [  -0.003498,    0.000242,    0.022089]
  Total dipole [Debye]:                                               0.056848
  <r^2> [a.u.]:                        [ 175.364750,   34.951243,   11.498534]
  Total <r^2> [a.u.]:                                               221.814527

  Density matrix analysis:
  ------------------------
  NOs
    Occupation of frontier NOs:
       0.0455   1.9381
    Number of electrons: 16.000000
    Number of unpaired electrons: n_u =  0.40398, n_u,nl =  0.04525
    NO participation ratio (PR_NO): 13.841417
  
  
  Mulliken Population Analysis
  Atom      Charge (e)              h+              e-           Del q
  --------------------------------------------------------------------
   1 H        0.051672        0.014020       -0.011230        0.002790
   2 C       -0.101903        0.093630       -0.098943       -0.005313
   3 H        0.050447        0.014093       -0.011218        0.002874
   4 C       -0.101272        0.092900       -0.099105       -0.006204
   5 H        0.050443        0.014126       -0.011193        0.002934
   6 H        0.050614        0.014113       -0.011194        0.002919
  --------------------------------------------------------------------
  Sum:        0.000000        0.242882       -0.242882       -0.000000
  
  Multipole moment analysis of the density matrix
    Molecular charge:                      0.000000
    Number of electrons:                   16.000000
      Center of electronic charge [Ang]: [ -1.560461,  -0.065610,  -0.013752]
    Total nuclear charge:                  16.000000
      Center of nuclear charge [Ang]:    [ -1.560576,  -0.065602,  -0.013022]
    Dipole moment [D]:                     0.056848
      Cartesian components [D]:          [ -0.008891,   0.000615,   0.056145]
    RMS size of the density [Ang]:         1.201091
      Cartesian components [Ang]:        [  0.796341,   0.779361,   0.448392]
  
  Exciton analysis of the difference density matrix
    <r_h> [Ang]:                  [ -1.559157,  -0.066020,  -0.017375]
    <r_e> [Ang]:                  [ -1.560203,  -0.065383,  -0.016671]
    |<r_e - r_h>| [Ang]:            0.001413
    Hole size [Ang]:                1.394041
      Cartesian components [Ang]: [  0.847192,   0.833646,   0.728457]
    Electron size [Ang]:            1.359803
      Cartesian components [Ang]: [  0.877762,   0.861478,   0.580046]
--------------------------------------------------------------------------------
  MP(2) calculation ...  CPU 0.23 s  wall 0.32 s
  Start ADC(2)-s ...  CPU 0.01 s  wall 0.01 s
  ADC(2) intermediates ...  CPU 0.02 s  wall 0.01 s
  Starting Davidson for singlet states of irrep A ... 
--------------------------------------------------------------------------------
   It NVec Conv  Avg. Norm  Max. Norm  Conv. states           Remark
--------------------------------------------------------------------------------
        10    0  1.330e-01  4.685e-01  0.4117 n n n n n n n n Guess.
    1   20    0  2.517e-02  1.108e-01  0.3257 n n n n n n n n 
    2   30    0  6.401e-03  2.662e-02  0.3209 n n n n n n n n 
    3   40    0  2.347e-03  1.167e-02  0.3205 n n n n n n n n 
    4   50    0  7.238e-04  4.152e-03  0.3205 n n n n n n n n 
    5   20    0  6.205e-04  4.553e-03  0.3205 n n n n n n n n Subspace collapsed.
    6   30    0  6.480e-04  4.560e-03  0.3205 n n n n n n n n 
    7   40    0  3.530e-04  2.620e-03  0.3205 n n n n n n n n 
    8   50    0  1.735e-04  1.212e-03  0.3205 n n n n n n n n 
    9   20    0  1.059e-04  7.395e-04  0.3205 n n n n n n n n Subspace collapsed.
   10   30    0  7.133e-05  5.008e-04  0.3205 n n n n n n n n 
   11   40    3  4.918e-05  3.469e-04  0.3205 y y n y n n n n 
   12   50    4  1.675e-05  1.166e-04  0.3205 y y y y n n n n 
   13   20    5  1.009e-05  7.283e-05  0.3205 y y y y y n n n Subspace collapsed.
   14   30    6  8.425e-06  6.164e-05  0.3205 y y y y y y n n 
   15   40    6  8.575e-06  6.358e-05  0.3205 y y y y y y n n 
   16   50    6  4.075e-06  3.108e-05  0.3205 y y y y y y n n 
   17   20    6  2.181e-06  1.757e-05  0.3205 y y y y y y n n Subspace collapsed.
   18   30    7  1.400e-06  1.110e-05  0.3205 y y y y y y y n 
   19   40    7  8.590e-07  6.324e-06  0.3205 y y y y y y y n 
   20   50    7  7.516e-07  5.982e-06  0.3205 y y y y y y y n 
   21   20    8  4.139e-07  3.455e-06  0.3205 y y y y y y y n Subspace collapsed.
   22   30    7  5.434e-07  4.587e-06  0.3205 y y y y y y y n 
   23   40    7  4.778e-07  4.175e-06  0.3205 y y y y y y y n 
   24   50    7  3.655e-07  3.243e-06  0.3205 y y y y y y y n 
   25   18    9  1.794e-07  1.583e-06  0.3205 y y y y y y y y Subspace collapsed.
   26   25    9  1.273e-07  1.134e-06  0.3205 y y y y y y y y 
   27   32   10  8.132e-08  7.139e-07  0.3205 y y y y y y y y Converged.
--------------------------------------------------------------------------------
  Davidson Summary: 
 ------------------------------------------------------------
  State  0: excitation energy =   0.3205 a.u.   (converged)
  State  1: excitation energy =   0.3322 a.u.   (converged)
  State  2: excitation energy =   0.3370 a.u.   (converged)
  State  3: excitation energy =   0.3613 a.u.   (converged)
  State  4: excitation energy =   0.3749 a.u.   (converged)
  State  5: excitation energy =   0.3867 a.u.   (converged)
  State  6: excitation energy =   0.4246 a.u.   (converged)
  State  7: excitation energy =   0.4466 a.u.   (converged)
  State  8: excitation energy =   0.4559 a.u.   (converged)
  State  9: excitation energy =   0.4646 a.u.   (converged)
 ------------------------------------------------------------

  Singlet states of irrep A ...  CPU 113.21 s  wall 30.23 s
  TDMs ...  CPU 1.09 s  wall 0.37 s
  SDMs ...  CPU 3.05 s  wall 0.76 s
  Starting TPA DIIS iterations ... 
------------------------------------ 
   It     Res. Norm  Remark
------------------------------------
                       Guess.
    1     4.418e+00  
    2     5.865e+00  
    3     1.082e+00  
    4     2.593e-01  
    5     6.625e-02  
    6     2.705e-02  
    7     8.269e-03  
    8     1.492e-03  
    9     5.562e-04  
   10     9.392e-05  
   11     3.393e-05  
   12     5.959e-06  
   13     2.954e-06  
   14     9.486e-07  Converged.
   ... Converged in 14 steps (norm: 9.48627e-07)
------------------------------------
  Starting TPA DIIS iterations ... 
------------------------------------ 
   It     Res. Norm  Remark
------------------------------------
                       Guess.
    1     4.181e+00  
    2     5.543e+00  
    3     1.028e+00  
    4     2.569e-01  
    5     6.582e-02  
    6     2.686e-02  
    7     8.131e-03  
    8     1.498e-03  
    9     5.577e-04  
   10     9.346e-05  
   11     3.336e-05  
   12     5.805e-06  
   13     2.575e-06  
   14     8.045e-07  Converged.
   ... Converged in 14 steps (norm: 8.04469e-07)
------------------------------------
  Starting TPA DIIS iterations ... 
------------------------------------ 
   It     Res. Norm  Remark
------------------------------------
                       Guess.
    1     8.008e-01  
    2     7.099e-01  
    3     2.109e-01  
    4     1.352e-01  
    5     1.687e-02  
    6     6.212e-03  
    7     1.049e-03  
    8     4.509e-04  
    9     1.282e-04  
   10     2.538e-05  
   11     6.680e-06  
   12     1.756e-06  
   13     1.312e-06  
   14     5.340e-07  Converged.
   ... Converged in 14 steps (norm: 5.33979e-07)
------------------------------------
  Starting TPA DIIS iterations ... 
------------------------------------ 
   It     Res. Norm  Remark
------------------------------------
                       Guess.
    1     4.706e+00  
    2     6.382e+00  
    3     1.163e+00  
    4     2.881e-01  
    5     7.461e-02  
    6     3.073e-02  
    7     9.376e-03  
    8     1.694e-03  
    9     6.375e-04  
   10     1.077e-04  
   11     3.987e-05  
   12     7.094e-06  
   13     3.645e-06  
   14     1.192e-06  
   15     5.516e-07  Converged.
   ... Converged in 15 steps (norm: 5.51645e-07)
------------------------------------
  Starting TPA DIIS iterations ... 
------------------------------------ 
   It     Res. Norm  Remark
------------------------------------
                       Guess.
    1     4.453e+00  
    2     6.031e+00  
    3     1.105e+00  
    4     2.852e-01  
    5     7.415e-02  
    6     3.054e-02  
    7     9.221e-03  
    8     1.703e-03  
    9     6.392e-04  
   10     1.072e-04  
   11     3.915e-05  
   12     6.884e-06  
   13     3.142e-06  
   14     9.867e-07  Converged.
   ... Converged in 14 steps (norm: 9.86678e-07)
------------------------------------
  Starting TPA DIIS iterations ... 
------------------------------------ 
   It     Res. Norm  Remark
------------------------------------
                       Guess.
    1     8.250e-01  
    2     7.552e-01  
    3     2.242e-01  
    4     1.441e-01  
    5     1.834e-02  
    6     6.877e-03  
    7     1.185e-03  
    8     5.298e-04  
    9     1.535e-04  
   10     2.816e-05  
   11     7.706e-06  
   12     2.045e-06  
   13     1.532e-06  
   14     6.561e-07  Converged.
   ... Converged in 14 steps (norm: 6.56131e-07)
------------------------------------
  Starting TPA DIIS iterations ... 
------------------------------------ 
   It     Res. Norm  Remark
------------------------------------
                       Guess.
    1     4.835e+00  
    2     6.617e+00  
    3     1.199e+00  
    4     3.015e-01  
    5     7.848e-02  
    6     3.245e-02  
    7     9.889e-03  
    8     1.788e-03  
    9     6.756e-04  
   10     1.141e-04  
   11     4.270e-05  
   12     7.639e-06  
   13     3.986e-06  
   14     1.315e-06  
   15     6.077e-07  Converged.
   ... Converged in 15 steps (norm: 6.07715e-07)
------------------------------------
  Starting TPA DIIS iterations ... 
------------------------------------ 
   It     Res. Norm  Remark
------------------------------------
                       Guess.
    1     4.575e+00  
    2     6.253e+00  
    3     1.140e+00  
    4     2.983e-01  
    5     7.801e-02  
    6     3.225e-02  
    7     9.726e-03  
    8     1.798e-03  
    9     6.773e-04  
   10     1.137e-04  
   11     4.191e-05  
   12     7.397e-06  
   13     3.419e-06  
   14     1.077e-06  
   15     4.743e-07  Converged.
   ... Converged in 15 steps (norm: 4.74259e-07)
------------------------------------
  Starting TPA DIIS iterations ... 
------------------------------------ 
   It     Res. Norm  Remark
------------------------------------
                       Guess.
    1     8.357e-01  
    2     7.757e-01  
    3     2.300e-01  
    4     1.480e-01  
    5     1.901e-02  
    6     7.184e-03  
    7     1.249e-03  
    8     5.672e-04  
    9     1.655e-04  
   10     2.918e-05  
   11     8.195e-06  
   12     2.184e-06  
   13     1.638e-06  
   14     7.149e-07  Converged.
   ... Converged in 14 steps (norm: 7.14864e-07)
------------------------------------
  Starting TPA DIIS iterations ... 
------------------------------------ 
   It     Res. Norm  Remark
------------------------------------
                       Guess.
    1     5.582e+00  
    2     8.013e+00  
    3     1.409e+00  
    4     3.832e-01  
    5     1.022e-01  
    6     4.305e-02  
    7     1.303e-02  
    8     2.370e-03  
    9     9.139e-04  
   10     1.535e-04  
   11     6.099e-05  
   12     1.120e-05  
   13     6.329e-06  
   14     2.196e-06  
   15     9.994e-07  Converged.
   ... Converged in 15 steps (norm: 9.99388e-07)
------------------------------------
  Starting TPA DIIS iterations ... 
------------------------------------ 
   It     Res. Norm  Remark
------------------------------------
                       Guess.
    1     5.279e+00  
    2     7.572e+00  
    3     1.338e+00  
    4     3.784e-01  
    5     1.016e-01  
    6     4.284e-02  
    7     1.282e-02  
    8     2.388e-03  
    9     9.157e-04  
   10     1.534e-04  
   11     5.969e-05  
   12     1.070e-05  
   13     5.288e-06  
   14     1.705e-06  
   15     7.631e-07  Converged.
   ... Converged in 15 steps (norm: 7.63085e-07)
------------------------------------
  Starting TPA DIIS iterations ... 
------------------------------------ 
   It     Res. Norm  Remark
------------------------------------
                       Guess.
    1     8.962e-01  
    2     8.964e-01  
    3     2.628e-01  
    4     1.700e-01  
    5     2.297e-02  
    6     9.060e-03  
    7     1.658e-03  
    8     7.991e-04  
    9     2.390e-04  
   10     3.288e-05  
   11     1.139e-05  
   12     3.108e-06  
   13     2.337e-06  
   14     1.090e-06  
   15     5.530e-07  Converged.
   ... Converged in 15 steps (norm: 5.5299e-07)
------------------------------------
  Starting TPA DIIS iterations ... 
------------------------------------ 
   It     Res. Norm  Remark
------------------------------------
                       Guess.
    1     6.083e+00  
    2     8.982e+00  
    3     1.548e+00  
    4     4.422e-01  
    5     1.192e-01  
    6     5.079e-02  
    7     1.529e-02  
    8     2.794e-03  
    9     1.091e-03  
   10     1.821e-04  
   11     7.504e-05  
   12     1.397e-05  
   13     8.272e-06  
   14     2.968e-06  
   15     1.330e-06  
   16     5.020e-07  Converged.
   ... Converged in 16 steps (norm: 5.01997e-07)
------------------------------------
  Starting TPA DIIS iterations ... 
------------------------------------ 
   It     Res. Norm  Remark
------------------------------------
                       Guess.
    1     5.752e+00  
    2     8.486e+00  
    3     1.470e+00  
    4     4.359e-01  
    5     1.186e-01  
    6     5.058e-02  
    7     1.505e-02  
    8     2.818e-03  
    9     1.092e-03  
   10     1.823e-04  
   11     7.329e-05  
   12     1.320e-05  
   13     6.799e-06  
   14     2.237e-06  
   15     1.002e-06  
   16     3.499e-07  Converged.
   ... Converged in 16 steps (norm: 3.49929e-07)
------------------------------------
  Starting TPA DIIS iterations ... 
------------------------------------ 
   It     Res. Norm  Remark
------------------------------------
                       Guess.
    1     9.359e-01  
    2     9.795e-01  
    3     2.838e-01  
    4     1.843e-01  
    5     2.569e-02  
    6     1.041e-02  
    7     1.968e-03  
    8     9.587e-04  
    9     2.896e-04  
   10     3.462e-05  
   11     1.392e-05  
   12     3.854e-06  
   13     2.905e-06  
   14     1.369e-06  
   15     7.530e-07  Converged.
   ... Converged in 15 steps (norm: 7.52957e-07)
------------------------------------
  Starting TPA DIIS iterations ... 
------------------------------------ 
   It     Res. Norm  Remark
------------------------------------
                       Guess.
    1     6.585e+00  
    2     9.977e+00  
    3     1.687e+00  
    4     5.043e-01  
    5     1.372e-01  
    6     5.901e-02  
    7     1.768e-02  
    8     3.246e-03  
    9     1.281e-03  
   10     2.124e-04  
   11     9.047e-05  
   12     1.706e-05  
   13     1.053e-05  
   14     3.898e-06  
   15     1.719e-06  
   16     6.490e-07  Converged.
   ... Converged in 16 steps (norm: 6.48963e-07)
------------------------------------
  Starting TPA DIIS iterations ... 
------------------------------------ 
   It     Res. Norm  Remark
------------------------------------
                       Guess.
    1     6.226e+00  
    2     9.427e+00  
    3     1.602e+00  
    4     4.964e-01  
    5     1.365e-01  
    6     5.880e-02  
    7     1.740e-02  
    8     3.277e-03  
    9     1.282e-03  
   10     2.130e-04  
   11     8.817e-05  
   12     1.593e-05  
   13     8.520e-06  
   14     2.865e-06  
   15     1.279e-06  
   16     4.571e-07  Converged.
   ... Converged in 16 steps (norm: 4.57067e-07)
------------------------------------
  Starting TPA DIIS iterations ... 
------------------------------------ 
   It     Res. Norm  Remark
------------------------------------
                       Guess.
    1     9.753e-01  
    2     1.065e+00  
    3     3.042e-01  
    4     1.983e-01  
    5     2.848e-02  
    6     1.183e-02  
    7     2.308e-03  
    8     1.112e-03  
    9     3.397e-04  
   10     3.703e-05  
   11     1.679e-05  
   12     4.712e-06  
   13     3.562e-06  
   14     1.675e-06  
   15     9.457e-07  Converged.
   ... Converged in 15 steps (norm: 9.45666e-07)
------------------------------------
  Starting TPA DIIS iterations ... 
------------------------------------ 
   It     Res. Norm  Remark
------------------------------------
                       Guess.
    1     8.727e+00  
    2     1.447e+01  
    3     2.270e+00  
    4     7.975e-01  
    5     2.221e-01  
    6     9.878e-02  
    7     2.897e-02  
    8     5.460e-03  
    9     2.233e-03  
   10     3.556e-04  
   11     1.689e-04  
   12     3.373e-05  
   13     2.353e-05  
   14     9.776e-06  
   15     4.140e-06  
   16     1.466e-06  
   17     6.664e-07  Converged.
   ... Converged in 17 steps (norm: 6.66438e-07)
------------------------------------
  Starting TPA DIIS iterations ... 
------------------------------------ 
   It     Res. Norm  Remark
------------------------------------
                       Guess.
    1     8.247e+00  
    2     1.367e+01  
    3     2.154e+00  
    4     7.811e-01  
    5     2.212e-01  
    6     9.859e-02  
    7     2.852e-02  
    8     5.527e-03  
    9     2.228e-03  
   10     3.589e-04  
   11     1.630e-04  
   12     2.965e-05  
   13     1.798e-05  
   14     6.654e-06  
   15     2.935e-06  
   16     1.105e-06  
   17     5.253e-07  Converged.
   ... Converged in 17 steps (norm: 5.25266e-07)
------------------------------------
  Starting TPA DIIS iterations ... 
------------------------------------ 
   It     Res. Norm  Remark
------------------------------------
                       Guess.
    1     1.141e+00  
    2     1.447e+00  
    3     3.845e-01  
    4     2.559e-01  
    5     4.096e-02  
    6     1.841e-02  
    7     4.016e-03  
    8     1.592e-03  
    9     5.384e-04  
   10     6.059e-05  
   11     3.286e-05  
   12     9.745e-06  
   13     7.264e-06  
   14     3.450e-06  
   15     1.585e-06  
   16     9.025e-07  Converged.
   ... Converged in 16 steps (norm: 9.02489e-07)
------------------------------------
  Starting TPA DIIS iterations ... 
------------------------------------ 
   It     Res. Norm  Remark
------------------------------------
                       Guess.
    1     1.054e+01  
    2     1.856e+01  
    3     2.751e+00  
    4     1.074e+00  
    5     3.029e-01  
    6     1.376e-01  
    7     3.973e-02  
    8     7.688e-03  
    9     3.200e-03  
   10     4.912e-04  
   11     2.478e-04  
   12     5.280e-05  
   13     3.844e-05  
   14     1.723e-05  
   15     7.436e-06  
   16     2.458e-06  
   17     1.398e-06  
   18     3.397e-07  Converged.
   ... Converged in 18 steps (norm: 3.39697e-07)
------------------------------------
  Starting TPA DIIS iterations ... 
------------------------------------ 
   It     Res. Norm  Remark
------------------------------------
                       Guess.
    1     9.961e+00  
    2     1.753e+01  
    3     2.609e+00  
    4     1.048e+00  
    5     3.018e-01  
    6     1.375e-01  
    7     3.910e-02  
    8     7.788e-03  
    9     3.184e-03  
   10     4.976e-04  
   11     2.372e-04  
   12     4.387e-05  
   13     2.824e-05  
   14     1.127e-05  
   15     5.118e-06  
   16     1.948e-06  
   17     1.033e-06  
   18     3.048e-07  Converged.
   ... Converged in 18 steps (norm: 3.0477e-07)
------------------------------------
  Starting TPA DIIS iterations ... 
------------------------------------ 
   It     Res. Norm  Remark
------------------------------------
                       Guess.
    1     1.281e+00  
    2     1.793e+00  
    3     4.459e-01  
    4     3.027e-01  
    5     5.215e-02  
    6     2.421e-02  
    7     5.698e-03  
    8     1.783e-03  
    9     6.912e-04  
   10     8.910e-05  
   11     5.058e-05  
   12     1.580e-05  
   13     1.143e-05  
   14     5.616e-06  
   15     2.641e-06  
   16     1.444e-06  
   17     7.746e-07  Converged.
   ... Converged in 17 steps (norm: 7.74567e-07)
------------------------------------
  Starting TPA DIIS iterations ... 
------------------------------------ 
   It     Res. Norm  Remark
------------------------------------
                       Guess.
    1     1.149e+01  
    2     2.079e+01  
    3     2.999e+00  
    4     1.226e+00  
    5     3.480e-01  
    6     1.596e-01  
    7     4.573e-02  
    8     8.981e-03  
    9     3.760e-03  
   10     5.664e-04  
   11     2.929e-04  
   12     6.489e-05  
   13     4.749e-05  
   14     2.196e-05  
   15     9.712e-06  
   16     3.134e-06  
   17     1.973e-06  
   18     4.336e-07  Converged.
   ... Converged in 18 steps (norm: 4.33584e-07)
------------------------------------
  Starting TPA DIIS iterations ... 
------------------------------------ 
   It     Res. Norm  Remark
------------------------------------
                       Guess.
    1     1.086e+01  
    2     1.964e+01  
    3     2.843e+00  
    4     1.195e+00  
    5     3.467e-01  
    6     1.595e-01  
    7     4.499e-02  
    8     9.098e-03  
    9     3.735e-03  
   10     5.745e-04  
   11     2.791e-04  
   12     5.236e-05  
   13     3.428e-05  
   14     1.417e-05  
   15     6.607e-06  
   16     2.520e-06  
   17     1.416e-06  
   18     4.035e-07  Converged.
   ... Converged in 18 steps (norm: 4.03462e-07)
------------------------------------
  Starting TPA DIIS iterations ... 
------------------------------------ 
   It     Res. Norm  Remark
------------------------------------
                       Guess.
    1     1.354e+00  
    2     1.982e+00  
    3     4.761e-01  
    4     3.266e-01  
    5     5.821e-02  
    6     2.718e-02  
    7     6.629e-03  
    8     1.840e-03  
    9     7.677e-04  
   10     1.044e-04  
   11     6.087e-05  
   12     1.965e-05  
   13     1.405e-05  
   14     7.025e-06  
   15     3.488e-06  
   16     2.034e-06  
   17     1.055e-06  
   18     2.414e-07  Converged.
   ... Converged in 18 steps (norm: 2.41417e-07)
------------------------------------
  Starting TPA DIIS iterations ... 
------------------------------------ 
   It     Res. Norm  Remark
------------------------------------
                       Guess.
    1     1.252e+01  
    2     2.326e+01  
    3     3.261e+00  
    4     1.395e+00  
    5     3.982e-01  
    6     1.843e-01  
    7     5.244e-02  
    8     1.047e-02  
    9     4.400e-03  
   10     6.501e-04  
   11     3.442e-04  
   12     7.963e-05  
   13     5.813e-05  
   14     2.762e-05  
   15     1.258e-05  
   16     4.001e-06  
   17     2.750e-06  
   18     6.724e-07  Converged.
   ... Converged in 18 steps (norm: 6.72436e-07)
------------------------------------
  Starting TPA DIIS iterations ... 
------------------------------------ 
   It     Res. Norm  Remark
------------------------------------
                       Guess.
    1     1.182e+01  
    2     2.197e+01  
    3     3.092e+00  
    4     1.357e+00  
    5     3.968e-01  
    6     1.842e-01  
    7     5.158e-02  
    8     1.060e-02  
    9     4.363e-03  
   10     6.599e-04  
   11     3.263e-04  
   12     6.236e-05  
   13     4.125e-05  
   14     1.762e-05  
   15     8.471e-06  
   16     3.240e-06  
   17     1.934e-06  
   18     6.080e-07  Converged.
   ... Converged in 18 steps (norm: 6.08018e-07)
------------------------------------
  Starting TPA DIIS iterations ... 
------------------------------------ 
   It     Res. Norm  Remark
------------------------------------
                       Guess.
    1     1.434e+00  
    2     2.190e+00  
    3     5.073e-01  
    4     3.519e-01  
    5     6.485e-02  
    6     3.024e-02  
    7     7.654e-03  
    8     1.887e-03  
    9     8.482e-04  
   10     1.204e-04  
   11     7.236e-05  
   12     2.434e-05  
   13     1.733e-05  
   14     8.826e-06  
   15     4.726e-06  
   16     2.832e-06  
   17     1.430e-06  
   18     3.182e-07  Converged.
   ... Converged in 18 steps (norm: 3.18231e-07)
------------------------------------
  Two-photon absorbption ...  CPU 119.15 s  wall 25.09 s
  Transition density matrix of state singlet_A_1 printed to ASCII file 'State_singlet_A_1_Transition.txt'
  Transition density matrix of state singlet_A_2 printed to ASCII file 'State_singlet_A_2_Transition.txt'
  Transition density matrix of state singlet_A_3 printed to ASCII file 'State_singlet_A_3_Transition.txt'
  Transition density matrix of state singlet_A_4 printed to ASCII file 'State_singlet_A_4_Transition.txt'
  Transition density matrix of state singlet_A_5 printed to ASCII file 'State_singlet_A_5_Transition.txt'
  Transition density matrix of state singlet_A_6 printed to ASCII file 'State_singlet_A_6_Transition.txt'
  Transition density matrix of state singlet_A_7 printed to ASCII file 'State_singlet_A_7_Transition.txt'
  Transition density matrix of state singlet_A_8 printed to ASCII file 'State_singlet_A_8_Transition.txt'
  Transition density matrix of state singlet_A_9 printed to ASCII file 'State_singlet_A_9_Transition.txt'
  Transition density matrix of state singlet_A_10 printed to ASCII file 'State_singlet_A_10_Transition.txt'
  Transition properties ...  CPU 0.17 s  wall 1.01 s
  Difference density matrix of state singlet_A_1 printed to ASCII file 'State_singlet_A_1_Difference.txt'
  Total density matrix of state singlet_A_1 printed to ASCII file 'State_singlet_A_1_Total.txt'
  Difference density matrix of state singlet_A_2 printed to ASCII file 'State_singlet_A_2_Difference.txt'
  Total density matrix of state singlet_A_2 printed to ASCII file 'State_singlet_A_2_Total.txt'
  Difference density matrix of state singlet_A_3 printed to ASCII file 'State_singlet_A_3_Difference.txt'
  Total density matrix of state singlet_A_3 printed to ASCII file 'State_singlet_A_3_Total.txt'
  Difference density matrix of state singlet_A_4 printed to ASCII file 'State_singlet_A_4_Difference.txt'
  Total density matrix of state singlet_A_4 printed to ASCII file 'State_singlet_A_4_Total.txt'
  Difference density matrix of state singlet_A_5 printed to ASCII file 'State_singlet_A_5_Difference.txt'
  Total density matrix of state singlet_A_5 printed to ASCII file 'State_singlet_A_5_Total.txt'
  Difference density matrix of state singlet_A_6 printed to ASCII file 'State_singlet_A_6_Difference.txt'
  Total density matrix of state singlet_A_6 printed to ASCII file 'State_singlet_A_6_Total.txt'
  Difference density matrix of state singlet_A_7 printed to ASCII file 'State_singlet_A_7_Difference.txt'
  Total density matrix of state singlet_A_7 printed to ASCII file 'State_singlet_A_7_Total.txt'
  Difference density matrix of state singlet_A_8 printed to ASCII file 'State_singlet_A_8_Difference.txt'
  Total density matrix of state singlet_A_8 printed to ASCII file 'State_singlet_A_8_Total.txt'
  Difference density matrix of state singlet_A_9 printed to ASCII file 'State_singlet_A_9_Difference.txt'
  Total density matrix of state singlet_A_9 printed to ASCII file 'State_singlet_A_9_Total.txt'
  Difference density matrix of state singlet_A_10 printed to ASCII file 'State_singlet_A_10_Difference.txt'
  Total density matrix of state singlet_A_10 printed to ASCII file 'State_singlet_A_10_Total.txt'
  Properties ...  CPU 0.31 s  wall 1.21 s
  ISR TDMS ...  CPU 20.14 s  wall 4.94 s
  ISR transition properties ...  CPU 0.31 s  wall 0.12 s
  Sum-over-states TPA ...  CPU 0.00 s  wall 0.00 s

--------------------------------------------------------------------------------
                   State-averaged natural transition orbitals
--------------------------------------------------------------------------------
--------------------------------------------------------------------------------
  SA-NTO decomposition ...  CPU 0.01 s  wall 0.24 s

--------------------------------------------------------------------------------
                             Excited State Summary
--------------------------------------------------------------------------------
--------------------------------------------------------------------------------

  Excited state 1 (singlet, A)                                     [converged]
  ----------------------------------------------------------------------------
  Term symbol:  2 (1) A                                     R^2 =  5.58646e-13

  Total energy:                                            -77.9988307592 a.u.
  Excitation energy:                                               8.722082 eV

  Osc. strength:                                                      0.442940
  Trans. dip. moment [a.u.]:           [   1.044433,   -0.989106,   -0.060604]
  <i|r^2|0> [a.u.]:                    [   6.151710,   -0.237917,   -0.009807]
  Two-photon absorption cross-section (SoS) [a.u.]:                   0.006152
  Two-photon absorption matrix (SoS) [a.u.]:
                                       |   -0.005161   -0.004386   -0.017169 |
                                       |   -0.004386   -0.001287    0.012027 |
                                       |   -0.017169    0.012027   -0.017490 |
  Two-photon absorption cross-section [a.u.]:                         0.030609
  Two-photon absorption matrix [a.u.]:
                                       |   -0.024434   -0.006052   -0.035399 |
                                       |   -0.006052   -0.024472    0.033462 |
                                       |   -0.035399    0.033462   -0.007367 |

  Dip. moment [a.u.]:                  [  -0.007773,    0.003532,    0.027137]
  Total dipole [Debye]:                                               0.072309
  <r^2> [a.u.]:                        [ 176.108628,   35.659857,   11.905431]
  Total <r^2> [a.u.]:                                               223.673916

  V1^2 = 0.9714, V2^2 = 0.0286

  Important amplitudes:
      occ i     occ j     vir a      vir b          v   
    -----------------------------------------------------
     8 (A) A              9 (A) A                 0.6807
     6 (A) A             14 (A) A                 0.0624
     4 (A) A             10 (A) A                -0.0602
     7 (A) A             16 (A) A                -0.0566
     5 (A) A             13 (A) A                -0.0512
     6 (A) A             23 (A) A                 0.0486
     8 (A) A             20 (A) A                -0.0347
     6 (A) A             19 (A) A                -0.0309
     3 (A) A             12 (A) A                 0.0280
     5 (A) A             22 (A) A                -0.0214
     7 (A) A             11 (A) A                 0.0209
     4 (A) A             24 (A) A                -0.0187
     3 (A) A             26 (A) A                -0.0185
     8 (A) A   8 (A) B   17 (A) A   20 (A) B      0.0183
     8 (A) A             10 (A) A                -0.0169
     8 (A) A   8 (A) B    9 (A) A   28 (A) B     -0.0168
     6 (A) A             26 (A) A                 0.0162
     7 (A) A             21 (A) A                -0.0147
     3 (A) A             14 (A) A                -0.0139
     6 (A) A             12 (A) A                 0.0131
     3 (A) A   4 (A) B    9 (A) A    9 (A) B      0.0129
     6 (A) A              9 (A) A                -0.0119
     3 (A) A             19 (A) A                 0.0119
     8 (A) A   8 (A) B   18 (A) A   19 (A) B     -0.0112
     7 (A) A             32 (A) A                -0.0095
     7 (A) A             36 (A) A                 0.0085
     3 (A) A             23 (A) A                -0.0081
     4 (A) A              9 (A) A                 0.0078
     6 (A) A             35 (A) A                 0.0071
     8 (A) A   8 (A) B   25 (A) A   29 (A) B     -0.0066
     6 (A) A             40 (A) A                 0.0066
     3 (A) A   6 (A) B    9 (A) A   28 (A) B      0.0065
     6 (A) A   8 (A) A   19 (A) A   28 (A) A     -0.0060
     5 (A) A   7 (A) B    9 (A) A    9 (A) B      0.0060
     5 (A) A   8 (A) B   11 (A) A   20 (A) B     -0.0059
     7 (A) A   8 (A) B   13 (A) A   20 (A) B      0.0059
     5 (A) A   8 (A) B   16 (A) A    9 (A) B     -0.0059
     5 (A) A   8 (A) B   11 (A) A    9 (A) B     -0.0059
     7 (A) A   8 (A) B   22 (A) A   20 (A) B      0.0057
     6 (A) A   8 (A) A    9 (A) A   18 (A) A      0.0056
    -----------------------------------------------------

  Density matrix analysis:
  ------------------------
  NOs
    Occupation of frontier NOs:
       0.9498   1.0214
    Number of electrons: 16.000000
    Number of unpaired electrons: n_u =  2.31364, n_u,nl =  2.03267
    NO participation ratio (PR_NO):  2.862740
  
  
  Mulliken Population Analysis
  Atom      Charge (e)              h+              e-           Del q
  --------------------------------------------------------------------
   1 H        0.057920        0.020490       -0.014242        0.006248
   2 C       -0.115128        0.491000       -0.504225       -0.013225
   3 H        0.056633        0.020323       -0.014137        0.006186
   4 C       -0.115639        0.490581       -0.504948       -0.014367
   5 H        0.058012        0.020406       -0.012836        0.007569
   6 H        0.058202        0.020376       -0.012788        0.007588
  --------------------------------------------------------------------
  Sum:        0.000000        1.063177       -1.063177       -0.000000
  
  Multipole moment analysis of the density matrix
    Molecular charge:                      0.000000
    Number of electrons:                   16.000000
      Center of electronic charge [Ang]: [ -1.560319,  -0.065719,  -0.013919]
    Total nuclear charge:                  16.000000
      Center of nuclear charge [Ang]:    [ -1.560576,  -0.065602,  -0.013022]
    Dipole moment [D]:                     0.072309
      Cartesian components [D]:          [ -0.019758,   0.008978,   0.068976]
    RMS size of the density [Ang]:         1.214736
      Cartesian components [Ang]:        [  0.804748,   0.787269,   0.456259]
  
  Exciton analysis of the difference density matrix
    <r_h> [Ang]:                  [ -1.559240,  -0.065684,  -0.024844]
    <r_e> [Ang]:                  [ -1.557112,  -0.067321,  -0.027357]
    |<r_e - r_h>| [Ang]:            0.003677
    Hole size [Ang]:                1.286384
      Cartesian components [Ang]: [  0.729253,   0.713370,   0.783631]
    Electron size [Ang]:            1.466563
      Cartesian components [Ang]: [  0.856954,   0.833858,   0.849187]

  Transition density matrix analysis:
  -----------------------------------
  
  CT numbers (Mulliken)
    omega =     0.9533
    <Phe> =    -0.1607
  
  Exciton analysis of the transition density matrix
    Trans. dipole moment [D]:             1.829723
      Cartesian components [D]:         [  1.327341,  -1.257028,  -0.077019]
    <r_h> [Ang]:                        [ -1.559534,  -0.065766,  -0.022865]
    <r_e> [Ang]:                        [ -1.556996,  -0.067252,  -0.029091]
    |<r_e - r_h>| [Ang]:                  0.006886
    Hole size [Ang]:                      1.214688
      Cartesian components [Ang]:       [  0.649846,   0.637065,   0.804560]
    Electron size [Ang]:                  1.489771
      Cartesian components [Ang]:       [  0.867657,   0.842857,   0.869585]
    RMS electron-hole separation [Ang]:   1.940122
      Cartesian components [Ang]:       [  1.109529,   1.078036,   1.170835]
    Covariance(r_h, r_e) [Ang^2]:        -0.034571
    Correlation coefficient:             -0.019104
    Center-of-mass size [Ang]:            0.952069
      Cartesian components [Ang]:       [  0.528963,   0.517291,   0.599202]

  Decomposition into state-averaged NTOs
    H- 0 -> L+ 0:  0.6689 ( 89.5%)
    H- 2 -> L+ 5: -0.0836 (  1.4%)
                   omega =  95.3%
  ----------------------------------------------------------------------------


  Excited state 2 (singlet, A)                                     [converged]
  ----------------------------------------------------------------------------
  Term symbol:  3 (1) A                                     R^2 =  5.51850e-13

  Total energy:                                            -77.9872056042 a.u.
  Excitation energy:                                               9.038419 eV

  Osc. strength:                                                      0.000076
  Trans. dip. moment [a.u.]:           [   0.003997,    0.016900,    0.006525]
  <i|r^2|0> [a.u.]:                    [   0.000902,    0.176027,   -0.149502]
  Two-photon absorption cross-section (SoS) [a.u.]:                   4.836559
  Two-photon absorption matrix (SoS) [a.u.]:
                                       |   -0.101550    0.051190   -0.542596 |
                                       |    0.051190    0.188991   -0.526645 |
                                       |   -0.542596   -0.526645   -0.117803 |
  Two-photon absorption cross-section [a.u.]:                         1.110547
  Two-photon absorption matrix [a.u.]:
                                       |   -0.366462   -0.024381    0.061592 |
                                       |   -0.024381    0.342404    0.092334 |
                                       |    0.061592    0.092334    0.015376 |

  Dip. moment [a.u.]:                  [  -0.012966,   -0.001665,    0.050008]
  Total dipole [Debye]:                                               0.131379
  <r^2> [a.u.]:                        [ 174.418540,   33.994118,   13.224246]
  Total <r^2> [a.u.]:                                               221.636904

  V1^2 = 0.9541, V2^2 = 0.0459

  Important amplitudes:
      occ i     occ j     vir a      vir b          v   
    -----------------------------------------------------
     7 (A) A              9 (A) A                 0.6697
     8 (A) A             11 (A) A                 0.1450
     7 (A) A             20 (A) A                -0.0757
     5 (A) A   8 (A) B    9 (A) A    9 (A) B      0.0317
     8 (A) A             16 (A) A                 0.0270
     8 (A) A             21 (A) A                -0.0172
     7 (A) A             10 (A) A                 0.0163
     5 (A) A             28 (A) A                 0.0151
     4 (A) A   7 (A) B    9 (A) A   19 (A) B      0.0135
     5 (A) A   7 (A) B    9 (A) A   16 (A) B      0.0134
     7 (A) A   8 (A) B   20 (A) A   17 (A) B      0.0105
     7 (A) A   8 (A) A    9 (A) A   28 (A) A      0.0098
     5 (A) A   8 (A) B    9 (A) A   20 (A) B     -0.0096
     4 (A) A   6 (A) B    9 (A) A   16 (A) B      0.0091
     5 (A) A   6 (A) A    9 (A) A   23 (A) A     -0.0091
     5 (A) A   6 (A) A    9 (A) A   14 (A) A     -0.0089
     8 (A) A             10 (A) A                -0.0089
     5 (A) A   6 (A) B    9 (A) A   19 (A) B      0.0087
     8 (A) A   7 (A) B    9 (A) A   28 (A) B     -0.0085
     4 (A) A   5 (A) A    9 (A) A   10 (A) A     -0.0085
     6 (A) A   7 (A) B    9 (A) A   18 (A) B      0.0083
     5 (A) A   6 (A) B    9 (A) A   23 (A) B     -0.0080
     3 (A) A   7 (A) B    9 (A) A   18 (A) B      0.0080
     5 (A) A   7 (A) A    9 (A) A   16 (A) A      0.0079
     4 (A) A   8 (A) B    9 (A) A   25 (A) B     -0.0074
     7 (A) A   8 (A) B   17 (A) A   20 (A) B      0.0074
     4 (A) A   7 (A) B   19 (A) A    9 (A) B      0.0074
     7 (A) A             12 (A) A                -0.0073
     5 (A) A   5 (A) B    9 (A) A   13 (A) B      0.0072
     7 (A) A   8 (A) B   19 (A) A   18 (A) B     -0.0071
     5 (A) A   8 (A) A    9 (A) A   20 (A) A     -0.0069
     4 (A) A   5 (A) B    9 (A) A   18 (A) B      0.0068
     7 (A) A   7 (A) B   20 (A) A   22 (A) B      0.0065
     7 (A) A   8 (A) B   17 (A) A    9 (A) B     -0.0065
     5 (A) A   6 (A) B    9 (A) A   14 (A) B     -0.0063
     4 (A) A   5 (A) B   10 (A) A    9 (A) B      0.0062
     4 (A) A   7 (A) A    9 (A) A   19 (A) A      0.0061
     5 (A) A   7 (A) B   11 (A) A   20 (A) B     -0.0060
     4 (A) A   7 (A) B    9 (A) A   14 (A) B      0.0060
     6 (A) A   7 (A) A   19 (A) A   28 (A) A     -0.0057
    -----------------------------------------------------

  Density matrix analysis:
  ------------------------
  NOs
    Occupation of frontier NOs:
       0.9600   1.0519
    Number of electrons: 16.000000
    Number of unpaired electrons: n_u =  2.35563, n_u,nl =  2.06157
    NO participation ratio (PR_NO):  3.017145
  
  
  Mulliken Population Analysis
  Atom      Charge (e)              h+              e-           Del q
  --------------------------------------------------------------------
   1 H        0.151027        0.125352       -0.025997        0.099355
   2 C       -0.303161        0.271596       -0.472853       -0.201258
   3 H        0.152062        0.124345       -0.022730        0.101615
   4 C       -0.304226        0.272589       -0.475543       -0.202954
   5 H        0.151354        0.126149       -0.025238        0.100911
   6 H        0.152945        0.125020       -0.022690        0.102331
  --------------------------------------------------------------------
  Sum:        0.000000        1.045050       -1.045050       -0.000000
  
  Multipole moment analysis of the density matrix
    Molecular charge:                      0.000000
    Number of electrons:                   16.000000
      Center of electronic charge [Ang]: [ -1.560147,  -0.065547,  -0.014676]
    Total nuclear charge:                  16.000000
      Center of nuclear charge [Ang]:    [ -1.560576,  -0.065602,  -0.013022]
    Dipole moment [D]:                     0.131379
      Cartesian components [D]:          [ -0.032956,  -0.004232,   0.127108]
    RMS size of the density [Ang]:         1.200195
      Cartesian components [Ang]:        [  0.786496,   0.768545,   0.480866]
  
  Exciton analysis of the difference density matrix
    <r_h> [Ang]:                  [ -1.561160,  -0.061905,  -0.010153]
    <r_e> [Ang]:                  [ -1.556366,  -0.060940,  -0.024290]
    |<r_e - r_h>| [Ang]:            0.014959
    Hole size [Ang]:                1.486521
      Cartesian components [Ang]: [  1.007465,   0.994387,   0.453822]
    Electron size [Ang]:            1.475374
      Cartesian components [Ang]: [  0.881129,   0.855837,   0.817242]

  Transition density matrix analysis:
  -----------------------------------
  
  CT numbers (Mulliken)
    omega =     0.9216
    <Phe> =    -0.0124
  
  Exciton analysis of the transition density matrix
    Trans. dipole moment [D]:             0.023576
      Cartesian components [D]:         [  0.005080,   0.021477,   0.008293]
    <r_h> [Ang]:                        [ -1.561685,  -0.061647,  -0.006984]
    <r_e> [Ang]:                        [ -1.555703,  -0.060827,  -0.027654]
    |<r_e - r_h>| [Ang]:                  0.021534
    Hole size [Ang]:                      1.515724
      Cartesian components [Ang]:       [  1.031352,   1.018421,   0.443341]
    Electron size [Ang]:                  1.472310
      Cartesian components [Ang]:       [  0.871415,   0.844874,   0.833378]
    RMS electron-hole separation [Ang]:   2.093351
      Cartesian components [Ang]:       [  1.334279,   1.308303,   0.943482]
    Covariance(r_h, r_e) [Ang^2]:         0.041731
    Correlation coefficient:              0.018700
    Center-of-mass size [Ang]:            1.066370
      Cartesian components [Ang]:       [  0.682978,   0.669017,   0.472337]

  Decomposition into state-averaged NTOs
    H- 1 -> L+ 0: -0.6622 ( 87.7%)
    H- 0 -> L+ 2:  0.1450 (  4.2%)
                   omega =  92.2%
  ----------------------------------------------------------------------------


  Excited state 3 (singlet, A)                                     [converged]
  ----------------------------------------------------------------------------
  Term symbol:  4 (1) A                                     R^2 =  3.56368e-13

  Total energy:                                            -77.9823589026 a.u.
  Excitation energy:                                               9.170304 eV

  Osc. strength:                                                      0.027181
  Trans. dip. moment [a.u.]:           [  -0.071154,    0.032214,    0.338943]
  <i|r^2|0> [a.u.]:                    [  -0.405092,    0.024889,    0.010436]
  Two-photon absorption cross-section (SoS) [a.u.]:                   0.319126
  Two-photon absorption matrix (SoS) [a.u.]:
                                       |   -0.048672   -0.003484    0.006360 |
                                       |   -0.003484   -0.006671    0.007192 |
                                       |    0.006360    0.007192   -0.206850 |
  Two-photon absorption cross-section [a.u.]:                         0.358927
  Two-photon absorption matrix [a.u.]:
                                       |   -0.113373    0.027177    0.002010 |
                                       |    0.027177   -0.079875   -0.006502 |
                                       |    0.002010   -0.006502   -0.129629 |

  Dip. moment [a.u.]:                  [  -0.012450,   -0.011616,   -0.031077]
  Total dipole [Debye]:                                               0.090068
  <r^2> [a.u.]:                        [ 180.794040,   40.557693,   11.074388]
  Total <r^2> [a.u.]:                                               232.426121

  V1^2 = 0.9588, V2^2 = 0.0412

  Important amplitudes:
      occ i     occ j     vir a      vir b          v   
    -----------------------------------------------------
     8 (A) A             10 (A) A                -0.6888
     8 (A) A             24 (A) A                -0.0506
     8 (A) A             18 (A) A                 0.0313
     4 (A) A              9 (A) A                 0.0233
     8 (A) A   8 (A) B    9 (A) A   12 (A) B     -0.0218
     8 (A) A   8 (A) B   10 (A) A   17 (A) B     -0.0172
     8 (A) A             15 (A) A                -0.0169
     5 (A) A   8 (A) B   11 (A) A   10 (A) B      0.0165
     8 (A) A              9 (A) A                -0.0163
     7 (A) A   8 (A) B   13 (A) A   10 (A) B     -0.0141
     4 (A) A   8 (A) B   12 (A) A   10 (A) B      0.0111
     6 (A) A   8 (A) A   10 (A) A   15 (A) A     -0.0110
     7 (A) A   8 (A) B   22 (A) A   10 (A) B     -0.0108
     6 (A) A   8 (A) B   15 (A) A   10 (A) B      0.0107
     4 (A) A   8 (A) A   10 (A) A   12 (A) A     -0.0106
     7 (A) A   8 (A) A   10 (A) A   22 (A) A      0.0098
     7 (A) A   8 (A) A   10 (A) A   13 (A) A      0.0097
     5 (A) A   8 (A) B   21 (A) A   10 (A) B     -0.0094
     5 (A) A   8 (A) A   10 (A) A   11 (A) A     -0.0094
     7 (A) A              9 (A) A                -0.0093
     6 (A) A   8 (A) A   10 (A) A   18 (A) A     -0.0087
     6 (A) A   8 (A) B   10 (A) A   10 (A) B     -0.0087
     7 (A) A   8 (A) A   12 (A) A   16 (A) A      0.0081
     5 (A) A   8 (A) A   10 (A) A   21 (A) A      0.0079
     3 (A) A   4 (A) B   10 (A) A    9 (A) B     -0.0079
     8 (A) A   8 (A) B    9 (A) A   23 (A) B     -0.0075
     4 (A) A   8 (A) B   19 (A) A   10 (A) B      0.0075
     8 (A) A   8 (A) B   10 (A) A   28 (A) B      0.0073
     5 (A) A   8 (A) B   10 (A) A   11 (A) B      0.0071
     3 (A) A   8 (A) A   10 (A) A   24 (A) A      0.0071
     3 (A) A   8 (A) B   10 (A) A   10 (A) B     -0.0071
     7 (A) A   8 (A) B   16 (A) A   12 (A) B     -0.0070
     3 (A) A   8 (A) B   10 (A) A   18 (A) B      0.0068
     8 (A) A   8 (A) B    9 (A) A   19 (A) B     -0.0067
     6 (A) A   8 (A) B   18 (A) A   10 (A) B      0.0066
     3 (A) A   6 (A) B   10 (A) A   28 (A) B     -0.0062
     7 (A) A   8 (A) B   12 (A) A   11 (A) B     -0.0057
     6 (A) A             28 (A) A                 0.0056
     5 (A) A   8 (A) A   10 (A) A   16 (A) A     -0.0056
     3 (A) A   8 (A) A   10 (A) A   18 (A) A      0.0055
    -----------------------------------------------------

  Density matrix analysis:
  ------------------------
  NOs
    Occupation of frontier NOs:
       0.9815   0.9849
    Number of electrons: 16.000000
    Number of unpaired electrons: n_u =  2.28594, n_u,nl =  2.02453
    NO participation ratio (PR_NO):  2.693443
  
  
  Mulliken Population Analysis
  Atom      Charge (e)              h+              e-           Del q
  --------------------------------------------------------------------
   1 H       -0.163866        0.053787       -0.269324       -0.215537
   2 C        0.325148        0.538050       -0.110998        0.427052
   3 H       -0.161166        0.053882       -0.265495       -0.211613
   4 C        0.325839        0.537542       -0.110431        0.427111
   5 H       -0.165215        0.053583       -0.269241       -0.215658
   6 H       -0.160740        0.053925       -0.265279       -0.211355
  --------------------------------------------------------------------
  Sum:        0.000000        1.290768       -1.290768       -0.000000
  
  Multipole moment analysis of the density matrix
    Molecular charge:                      0.000000
    Number of electrons:                   16.000000
      Center of electronic charge [Ang]: [ -1.560164,  -0.065218,  -0.011994]
    Total nuclear charge:                  16.000000
      Center of nuclear charge [Ang]:    [ -1.560576,  -0.065602,  -0.013022]
    Dipole moment [D]:                     0.090068
      Cartesian components [D]:          [ -0.031644,  -0.029524,  -0.078990]
    RMS size of the density [Ang]:         1.276464
      Cartesian components [Ang]:        [  0.854462,   0.839987,   0.440088]
  
  Exciton analysis of the difference density matrix
    <r_h> [Ang]:                  [ -1.559625,  -0.065833,  -0.019884]
    <r_e> [Ang]:                  [ -1.555955,  -0.060971,   0.001912]
    |<r_e - r_h>| [Ang]:            0.022632
    Hole size [Ang]:                1.410408
      Cartesian components [Ang]: [  0.834194,   0.819335,   0.788708]
    Electron size [Ang]:            2.074572
      Cartesian components [Ang]: [  1.373020,   1.374129,   0.728310]

  Transition density matrix analysis:
  -----------------------------------
  
  CT numbers (Mulliken)
    omega =     0.9260
    <Phe> =    -0.0113
  
  Exciton analysis of the transition density matrix
    Trans. dipole moment [D]:             0.442043
      Cartesian components [D]:         [ -0.090428,   0.040940,   0.430754]
    <r_h> [Ang]:                        [ -1.559389,  -0.066594,  -0.025993]
    <r_e> [Ang]:                        [ -1.554444,  -0.059523,   0.007684]
    |<r_e - r_h>| [Ang]:                  0.034765
    Hole size [Ang]:                      1.213625
      Cartesian components [Ang]:       [  0.637315,   0.623262,   0.823566]
    Electron size [Ang]:                  2.293703
      Cartesian components [Ang]:       [  1.517083,   1.520412,   0.804911]
    RMS electron-hole separation [Ang]:   2.585375
      Cartesian components [Ang]:       [  1.638056,   1.636293,   1.150425]
    Covariance(r_h, r_e) [Ang^2]:         0.025504
    Correlation coefficient:              0.009162
    Center-of-mass size [Ang]:            1.302399
      Cartesian components [Ang]:       [  0.826472,   0.825047,   0.576615]

  Decomposition into state-averaged NTOs
    H- 0 -> L+ 1: -0.6787 ( 92.1%)
                   omega =  92.6%
  ----------------------------------------------------------------------------


  Excited state 4 (singlet, A)                                     [converged]
  ----------------------------------------------------------------------------
  Term symbol:  5 (1) A                                     R^2 =  7.67417e-13

  Total energy:                                            -77.9580284389 a.u.
  Excitation energy:                                               9.832370 eV

  Osc. strength:                                                      0.000006
  Trans. dip. moment [a.u.]:           [  -0.000611,   -0.001811,   -0.004451]
  <i|r^2|0> [a.u.]:                    [  -0.002958,    0.034310,   -0.036877]
  Two-photon absorption cross-section (SoS) [a.u.]:                 152.022085
  Two-photon absorption matrix (SoS) [a.u.]:
                                       |   -0.239791    0.311983   -3.047051 |
                                       |    0.311983    0.858261   -3.002649 |
                                       |   -3.047051   -3.002649   -0.644640 |
  Two-photon absorption cross-section [a.u.]:                        95.923052
  Two-photon absorption matrix [a.u.]:
                                       |   -0.460224    0.225650   -2.410536 |
                                       |    0.225650    0.936847   -2.335893 |
                                       |   -2.410536   -2.335893   -0.504860 |

  Dip. moment [a.u.]:                  [   0.020153,    0.028255,   -0.030015]
  Total dipole [Debye]:                                               0.116626
  <r^2> [a.u.]:                        [ 181.509552,   40.479795,   10.795989]
  Total <r^2> [a.u.]:                                               232.785335

  V1^2 = 0.9635, V2^2 = 0.0365

  Important amplitudes:
      occ i     occ j     vir a      vir b          v   
    -----------------------------------------------------
     8 (A) A             11 (A) A                 0.6704
     7 (A) A              9 (A) A                -0.1470
     8 (A) A             21 (A) A                -0.0782
     8 (A) A             16 (A) A                 0.0646
     8 (A) A   8 (A) B    9 (A) A   13 (A) B      0.0167
     5 (A) A   8 (A) B   11 (A) A   11 (A) B     -0.0156
     8 (A) A   8 (A) B   11 (A) A   17 (A) B      0.0140
     7 (A) A             20 (A) A                 0.0133
     7 (A) A   8 (A) B   13 (A) A   11 (A) B      0.0128
     8 (A) A             12 (A) A                -0.0118
     5 (A) A   8 (A) A   11 (A) A   21 (A) A     -0.0110
     4 (A) A   8 (A) B   12 (A) A   11 (A) B     -0.0110
     8 (A) A   8 (A) B    9 (A) A   22 (A) B      0.0107
     7 (A) A   8 (A) A   11 (A) A   22 (A) A     -0.0096
     6 (A) A   8 (A) B   15 (A) A   11 (A) B     -0.0090
     6 (A) A   8 (A) B   10 (A) A   11 (A) B      0.0090
     7 (A) A   8 (A) B   22 (A) A   11 (A) B      0.0089
     3 (A) A   4 (A) B   11 (A) A    9 (A) B      0.0083
     3 (A) A   8 (A) B   11 (A) A   18 (A) B     -0.0081
     6 (A) A   8 (A) A   11 (A) A   15 (A) A      0.0080
     7 (A) A   8 (A) A   13 (A) A   16 (A) A     -0.0078
     7 (A) A   8 (A) A   11 (A) A   13 (A) A     -0.0077
     5 (A) A   8 (A) B   21 (A) A   11 (A) B      0.0071
     4 (A) A   8 (A) B   19 (A) A   11 (A) B     -0.0070
     5 (A) A   8 (A) B    9 (A) A    9 (A) B     -0.0066
     4 (A) A   8 (A) A   11 (A) A   12 (A) A      0.0063
     6 (A) A   8 (A) A   11 (A) A   18 (A) A      0.0062
     3 (A) A   6 (A) B   11 (A) A   28 (A) B      0.0060
     6 (A) A   8 (A) B   18 (A) A   11 (A) B     -0.0060
     7 (A) A   8 (A) B   16 (A) A   13 (A) B      0.0057
     6 (A) A              9 (A) A                 0.0056
     3 (A) A   8 (A) A   11 (A) A   18 (A) A     -0.0056
     5 (A) A   8 (A) B   10 (A) A   10 (A) B     -0.0056
     3 (A) A   8 (A) B   11 (A) A   30 (A) B     -0.0055
     6 (A) A   8 (A) B   11 (A) A   10 (A) B      0.0054
     7 (A) A   8 (A) B   12 (A) A   10 (A) B      0.0054
     8 (A) A   8 (A) B   20 (A) A   22 (A) B     -0.0053
     3 (A) A   8 (A) A   11 (A) A   24 (A) A     -0.0053
     3 (A) A   5 (A) B   11 (A) A   25 (A) B     -0.0053
     5 (A) A   8 (A) A   11 (A) A   16 (A) A      0.0048
    -----------------------------------------------------

  Density matrix analysis:
  ------------------------
  NOs
    Occupation of frontier NOs:
       0.9427   1.0257
    Number of electrons: 16.000000
    Number of unpaired electrons: n_u =  2.31932, n_u,nl =  2.04779
    NO participation ratio (PR_NO):  2.903476
  
  
  Mulliken Population Analysis
  Atom      Charge (e)              h+              e-           Del q
  --------------------------------------------------------------------
   1 H       -0.142432        0.045759       -0.239863       -0.194104
   2 C        0.274475        0.498190       -0.121811        0.376378
   3 H       -0.132913        0.046580       -0.229939       -0.183360
   4 C        0.274949        0.497797       -0.121576        0.376221
   5 H       -0.122858        0.046554       -0.219855       -0.173301
   6 H       -0.151221        0.045852       -0.247687       -0.201835
  --------------------------------------------------------------------
  Sum:        0.000000        1.180732       -1.180732       -0.000000
  
  Multipole moment analysis of the density matrix
    Molecular charge:                      0.000000
    Number of electrons:                   16.000000
      Center of electronic charge [Ang]: [ -1.561243,  -0.066537,  -0.012029]
    Total nuclear charge:                  16.000000
      Center of nuclear charge [Ang]:    [ -1.560576,  -0.065602,  -0.013022]
    Dipole moment [D]:                     0.116626
      Cartesian components [D]:          [  0.051224,   0.071816,  -0.076290]
    RMS size of the density [Ang]:         1.277540
      Cartesian components [Ang]:        [  0.859803,   0.839072,   0.434516]
  
  Exciton analysis of the difference density matrix
    <r_h> [Ang]:                  [ -1.560356,  -0.066337,  -0.020977]
    <r_e> [Ang]:                  [ -1.570955,  -0.078891,   0.002375]
    |<r_e - r_h>| [Ang]:            0.028553
    Hole size [Ang]:                1.394670
      Cartesian components [Ang]: [  0.818943,   0.805178,   0.791281]
    Electron size [Ang]:            2.124246
      Cartesian components [Ang]: [  1.447346,   1.399167,   0.678190]

  Transition density matrix analysis:
  -----------------------------------
  
  CT numbers (Mulliken)
    omega =     0.9297
    <Phe> =    -0.0134
  
  Exciton analysis of the transition density matrix
    Trans. dipole moment [D]:             0.006157
      Cartesian components [D]:         [ -0.000776,  -0.002301,  -0.005657]
    <r_h> [Ang]:                        [ -1.559355,  -0.065675,  -0.025102]
    <r_e> [Ang]:                        [ -1.572973,  -0.081367,   0.005645]
    |<r_e - r_h>| [Ang]:                  0.037109
    Hole size [Ang]:                      1.227830
      Cartesian components [Ang]:       [  0.658401,   0.648072,   0.808750]
    Electron size [Ang]:                  2.263344
      Cartesian components [Ang]:       [  1.543071,   1.490740,   0.720660]
    RMS electron-hole separation [Ang]:   2.564508
      Cartesian components [Ang]:       [  1.669124,   1.617825,   1.083221]
    Covariance(r_h, r_e) [Ang^2]:         0.027483
    Correlation coefficient:              0.009889
    Center-of-mass size [Ang]:            1.292793
      Cartesian components [Ang]:       [  0.843109,   0.816623,   0.541856]

  Decomposition into state-averaged NTOs
    H- 0 -> L+ 2:  0.6655 ( 88.6%)
    H- 1 -> L+ 0:  0.1450 (  4.2%)
                   omega =  93.0%
  ----------------------------------------------------------------------------


  Excited state 5 (singlet, A)                                     [converged]
  ----------------------------------------------------------------------------
  Term symbol:  6 (1) A                                     R^2 =  5.13883e-12

  Total energy:                                            -77.9444905468 a.u.
  Excitation energy:                                              10.200754 eV

  Osc. strength:                                                      0.000003
  Trans. dip. moment [a.u.]:           [  -0.002434,    0.001670,   -0.001583]
  <i|r^2|0> [a.u.]:                    [  -0.078116,    0.129283,   -0.039532]
  Two-photon absorption cross-section (SoS) [a.u.]:                 169.359505
  Two-photon absorption matrix (SoS) [a.u.]:
                                       |    0.110751   -0.282174    3.225217 |
                                       |   -0.282174    0.785109   -3.198339 |
                                       |    3.225217   -3.198339   -0.178473 |
  Two-photon absorption cross-section [a.u.]:                        74.997261
  Two-photon absorption matrix [a.u.]:
                                       |    0.301379   -0.041100    2.121990 |
                                       |   -0.041100    0.768557   -2.076834 |
                                       |    2.121990   -2.076834   -0.172840 |

  Dip. moment [a.u.]:                  [   0.005557,   -0.011493,    0.012914]
  Total dipole [Debye]:                                               0.046156
  <r^2> [a.u.]:                        [ 178.192245,   38.070994,   12.035850]
[...]
    16   -3.028321657193e-03
    17   -2.649788573736e-04
    18    3.284357539251e-04
    19   -3.240266144069e-03
    20    9.984566577994e-03
    21    9.287521739918e-01
    22   -3.463464138748e-04
    23    1.403917947546e-02
    24   -1.605187017751e-05
    25    7.034490076492e-02
    26   -5.264880426212e-02
    27   -1.397716012278e+00
    28    9.670536355014e-02
    29   -9.407536696327e-02
    30    8.223861747356e-03
    31    3.814476475218e-01
    32   -3.700881239515e-01
    33    3.392720918482e-02
    34    1.575295179503e-02
    35   -2.227253009575e-03
    36   -1.076831699787e-03
    37    3.644657680988e-05
    38   -3.116538419998e-03
    39    1.022893673091e-02
    40    9.406438100654e-01
    41    1.811304698884e-04
    42   -1.406785149458e-02
    43   -4.794583507764e-04
    44    9.420988570888e-03
    45    9.342445027950e-01
    46    1.402269916404e-02
    47    3.576608204671e-04
    48    1.040441733959e-03
Sym=X
Ene= 0.232975
Spin=Alpha
Occup=0
     1   -2.679020867293e-02
     2   -1.229145277125e+00
     3    1.426256605984e-02
     4    3.763607264955e-03
     5    1.227573557384e-03
     6   -3.122336186938e-03
     7    3.325830261859e-03
     8    4.701298837232e-02
     9    1.550464741423e-01
    10    1.582951998190e-01
    11    1.731457996826e-02
    12    5.509549331813e-01
    13    5.597171547031e-01
    14    6.100363980779e-02
    15   -2.459991187510e-04
    16    1.651062072055e-03
    17    1.657283524417e-03
    18    2.161641519944e-04
    19    1.540722633243e-04
    20    2.461800422866e-02
    21    1.159681487533e+00
    22    2.582383397581e-03
    23    1.360368938704e-02
    24    6.803854440968e-04
    25    3.618293983522e-03
    26   -3.593025051658e-03
    27   -6.261655884582e-02
    28    1.552548902304e-01
    29    1.578644194968e-01
    30    1.659744353215e-02
    31    5.519194503655e-01
    32    5.550193470017e-01
    33    5.849035912345e-02
    34    6.619050563491e-04
    35   -1.039480217464e-03
    36   -1.123269006999e-03
    37   -4.872573281229e-04
    38   -4.026497717653e-04
    39   -2.500377572244e-02
    40   -1.147615249588e+00
    41    2.455116746386e-03
    42    1.340741760493e-02
    43    7.073500902284e-04
    44    2.639841542410e-02
    45    1.236236593138e+00
    46    1.452648531995e-02
    47    3.779560561771e-03
    48    1.106257227217e-03
Sym=X
Ene= 0.239383
Spin=Alpha
Occup=0
     1   -1.543064865457e-02
     2   -1.040823494846e+00
     3    1.623325530199e-02
     4    9.016730416660e-03
     5    2.357476604376e-03
     6   -8.651509985661e-02
     7    7.947763990907e-02
     8    1.594644315392e+00
     9    5.198604023833e-02
    10   -6.192400445316e-02
    11    1.348349752790e-02
    12    2.042112557283e-01
    13   -2.417755608835e-01
    14    5.098688177170e-02
    15   -2.249317013087e-02
    16    3.250683686214e-03
    17    2.200767917916e-03
    18   -7.602290994788e-04
    19    1.283884108607e-02
    20   -1.682334021189e-02
    21   -1.135726632556e+00
    22   -8.527363446378e-03
    23   -1.799836822709e-02
    24   -3.810881435766e-04
    25    8.632097545062e-02
    26   -7.899739671593e-02
    27   -1.595991872842e+00
    28    5.251482106153e-02
    29   -6.192149707590e-02
    30   -4.655939709228e-03
    31    2.075408713180e-01
    32   -2.404895369752e-01
    33   -2.506493902911e-02
    34    2.243851635022e-02
    35   -1.578422404065e-03
    36   -3.873596066728e-03
    37    6.825248654634e-04
    38   -1.281208438674e-02
    39    1.692116575348e-02
    40    1.135333776957e+00
    41   -8.623282524526e-03
    42   -1.791186918224e-02
    43   -1.612716651031e-03
    44    1.585559618433e-02
    45    1.040135107651e+00
    46    1.632289329393e-02
    47    9.226843328190e-03
    48    1.170842162133e-03
Sym=X
Ene= 0.303238
Spin=Alpha
Occup=0
     1   -1.963818316869e-02
     2    1.682841122532e+00
     3   -2.286590723435e-02
     4    3.233808272137e-04
     5   -1.211474558626e-03
     6   -1.514963796284e-04
     7    5.900729498749e-05
     8    1.046137554846e-02
     9   -1.341179673632e-01
    10   -1.399497196570e-01
    11   -1.465964739188e-02
    12   -1.140247463294e+00
    13   -1.192733445158e+00
    14   -1.246635601635e-01
    15   -6.724380454658e-04
    16   -3.886828161199e-03
    17   -4.947171608498e-04
    18   -3.250773082447e-02
    19   -1.105354574379e-03
    20    2.022544549107e-02
    21   -1.692122919541e+00
    22    1.309480392810e-03
    23   -2.291457796670e-02
    24   -1.153143496027e-03
    25    2.899174776147e-05
    26    2.168724876619e-04
    27   -3.990631556627e-03
    28    1.345363973926e-01
    29    1.404422937887e-01
    30    1.484547104035e-02
    31    1.138473988569e+00
    32    1.193630328487e+00
    33    1.253429024370e-01
    34    1.701014383694e-04
    35   -8.810078547377e-04
    36    2.669682047089e-03
    37   -3.245264853382e-02
    38   -1.633983527861e-03
    39    1.998799006757e-02
    40   -1.691381040027e+00
    41   -1.585259297417e-03
    42    2.276791836184e-02
    43    2.063314801379e-03
    44   -2.008710085173e-02
    45    1.694357006421e+00
    46    2.299766061356e-02
    47   -3.700683582250e-04
    48    3.005304461469e-04
Sym=X
Ene= 0.461677
Spin=Alpha
Occup=0
     1   -1.174769337587e-01
     2   -7.011075441493e-01
     3   -1.566704595931e-02
     4   -9.958043008953e-03
     5   -8.371376919261e-04
     6    6.094391451551e-02
     7    1.738683166186e-02
     8   -3.581740601604e+00
     9    1.028530596120e-01
    10   -1.000937753031e-01
    11    1.505351643265e-02
    12    2.414175351448e+00
    13   -2.300077112117e+00
    14   -8.476471906003e-02
    15    5.324952877975e-02
    16   -2.266895928907e-03
    17   -5.570535412031e-03
    18   -1.138381451427e-03
    19    1.808449645985e-02
    20   -1.181966680081e-01
    21   -7.093141491108e-01
    22    8.886122945283e-03
    23    1.609646041766e-02
    24    1.869290362434e-03
    25   -6.096393451877e-02
    26   -1.564764044129e-02
    27    3.577122806149e+00
    28    1.053071105408e-01
    29   -1.011877113674e-01
    30    4.019326095021e-03
    31    2.417247123490e+00
    32   -2.289139006427e+00
    33   -1.337639207998e-01
    34   -5.268853841215e-02
    35    3.266527407592e-03
    36    4.543426839036e-03
    37    8.237462172644e-04
    38   -1.898053246793e-02
    39    1.136262607913e-01
    40    7.098302523471e-01
    41    8.816286712472e-03
    42    1.606501179104e-02
    43    1.432987021851e-03
    44    1.124150396657e-01
    45    7.144858814272e-01
    46   -1.550795064495e-02
    47   -9.748154134735e-03
    48   -1.281673770578e-03
Sym=X
Ene= 0.577641
Spin=Alpha
Occup=0
     1    2.479183205837e-01
     2    3.315967411406e-02
     3   -1.845984808462e-02
     4    2.591599355647e-02
     5   -7.059310292835e-05
     6   -4.497593526254e-03
     7   -1.570013081742e-01
     8   -4.653960718239e-01
     9    2.999375497514e-01
    10   -2.866403271364e-01
    11   -1.399072660339e-02
    12   -7.168818415274e-01
    13    6.959117697805e-01
    14   -2.573566599705e-03
    15   -5.756403823910e-03
    16    4.185363156526e-03
    17    3.385022813472e-03
    18   -3.505164302275e-03
    19    6.051012933700e-02
    20    2.539753626740e-01
    21    3.429747680890e-02
    22   -2.600791572985e-02
    23    1.637445379463e-02
    24   -9.685848597383e-04
    25   -5.576398592766e-03
    26   -1.579815273570e-01
    27   -4.081723259297e-01
    28   -2.986112547515e-01
    29    2.842892441128e-01
    30    1.307532579124e-02
    31    7.649530064950e-01
    32   -7.320894168244e-01
    33   -1.066409445653e-02
    34   -5.747611283649e-03
    35    4.170853093253e-03
    36    3.404759427374e-03
    37   -2.670899778577e-03
    38    6.039844045706e-02
    39    2.489759945162e-01
    40    5.355993529932e-02
    41    2.716664122162e-02
    42   -1.724396933559e-02
    43   -5.988102602391e-05
    44    2.512915217176e-01
    45    5.320032077893e-02
    46    1.820650524228e-02
    47   -2.591754717203e-02
    48   -9.836023889756e-04
Sym=X
Ene= 0.615042
Spin=Alpha
Occup=0
     1   -5.222661926819e-01
     2    2.095977993487e-01
     3   -6.106794661976e-02
     4    3.789253924426e-02
     5   -2.231986211603e-03
     6   -3.179089874411e-04
     7    1.640404538858e-03
     8   -7.787292662867e-03
     9   -3.986655682810e-02
    10   -4.002437518041e-02
    11   -3.957593066658e-03
    12    2.902770525589e-01
    13    2.944714755087e-01
    14    3.074772926610e-02
    15    4.315090345354e-04
    16   -1.380606852030e-02
    17    1.812928211623e-03
    18   -1.481081831789e-01
    19   -6.543018333250e-03
    20    5.097564294209e-01
    21   -1.984229104808e-01
    22    4.129609498992e-02
    23   -5.866424308047e-02
    24    8.264347051227e-05
    25    1.664609384082e-04
    26   -6.333772669843e-04
    27    7.924273316447e-03
    28   -3.880921173549e-02
    29   -4.084627125392e-02
    30   -4.201097160112e-03
    31    2.891727564687e-01
    32    3.020583186507e-01
    33    3.162181728675e-02
    34   -7.479753218244e-04
    35    5.557603037016e-03
    36   -1.056057703161e-02
    37    1.487958724066e-01
    38    6.499308980173e-03
    39   -5.177105204590e-01
    40    2.037496780440e-01
    41    4.067965717794e-02
    42   -5.883880125715e-02
    43   -2.752792860894e-03
    44    5.173846147300e-01
    45   -2.060272941469e-01
    46   -6.114997129221e-02
    47    3.789636679270e-02
    48    5.310694680428e-04
Sym=X
Ene= 0.689490
Spin=Alpha
Occup=0
     1   -4.572399492580e-03
     2   -3.763424976894e-02
     3    7.193780777624e-03
     4    4.224529961063e-04
     5   -2.003599241045e-02
     6   -2.226164826648e-04
     7    2.612992012437e-02
     8   -3.806583399840e-02
     9    2.553971963560e-02
    10    4.530007449918e-02
    11   -6.691016161567e-01
    12    3.025767330769e-02
    13   -9.273133556713e-02
    14    6.112263542187e-01
    15   -1.219247186729e-02
    16    8.277271990437e-02
    17   -7.745348215917e-02
    18   -8.392271990698e-03
    19   -6.184883497212e-03
    20   -4.429123593780e-03
    21   -3.822130457935e-02
    22    2.027491942972e-03
    23   -5.024059451867e-03
    24   -2.146653690716e-02
    25    1.662938184674e-03
    26    7.892603232908e-03
    27    1.830224236151e-02
    28    3.129831431205e-02
    29    4.048425614168e-02
    30   -6.705031532995e-01
    31    2.528481885181e-02
    32   -8.800700023641e-02
    33    6.117014005515e-01
    34    1.584361824252e-03
    35   -8.180307092853e-02
    36    7.881557625554e-02
    37    8.171574419004e-03
    38    1.016524699955e-02
    39    2.674057477924e-02
    40    1.792512081612e-02
    41    3.971495226127e-03
    42    3.728920258914e-03
    43   -2.081996479893e-02
    44    2.710133754953e-02
    45    1.811599810847e-02
    46   -1.364621346366e-03
    47   -1.767447247690e-03
    48   -2.136537550125e-02
Sym=X
Ene= 0.709668
Spin=Alpha
Occup=0
     1   -4.735531746794e-01
     2    1.603101937019e-01
     3   -7.986793264811e-02
     4   -4.490803268444e-02
     5   -4.849083335155e-03
     6   -4.713500796080e-02
     7   -3.184440732384e-01
     8    4.993195249097e-01
     9    2.074929075210e-01
    10   -1.910697999338e-01
    11   -2.490129088349e-02
    12   -1.002282066084e-01
    13    7.070395630506e-02
    14    6.404886275835e-02
    15    1.924553025708e-01
    16   -1.794042579620e-02
    17   -2.603961929441e-02
    18    3.122678769672e-03
    19   -7.804751829265e-02
    20   -4.745324763784e-01
    21    1.412375063716e-01
    22    4.090605549818e-02
    23    8.124154241511e-02
    24    8.244383067629e-03
    25   -4.740692156090e-02
    26   -3.191612310027e-01
    27    4.678435151725e-01
    28   -2.014738507207e-01
    29    1.927317195011e-01
    30   -1.269766996432e-02
    31    6.572088980276e-02
    32   -5.777987241832e-02
    33   -1.772348131270e-02
    34    1.951325841445e-01
    35   -1.675344271041e-02
    36   -2.753060008701e-02
    37    2.032104553616e-03
    38   -7.551281974999e-02
    39   -4.736396684224e-01
    40    1.416210292912e-01
    41   -4.081667018119e-02
    42   -8.171126629865e-02
    43   -9.982062318213e-03
    44   -4.792190943502e-01
    45    1.483652350763e-01
    46    8.126307923653e-02
    47    4.421996268807e-02
    48    3.265281561728e-03
Sym=X
Ene= 0.784662
Spin=Alpha
Occup=0
     1   -5.336560353943e-01
     2    4.827797185388e-01
     3   -1.116956836547e-01
     4   -2.680462011367e-02
     5   -6.944021080430e-03
     6   -9.107753387391e-02
     7    2.161894491410e-01
     8    6.369078823994e-01
     9   -1.034700806396e-01
    10    1.110011219866e-01
    11   -2.372842367281e-02
    12   -3.282658282118e-01
    13    2.767737095601e-01
    14    8.136500149230e-02
    15    2.073962307153e-01
    16   -2.389860368317e-02
    17   -1.578522645058e-02
    18    8.986541887625e-05
    19   -9.679952421932e-03
    20   -5.349304287083e-01
    21    4.560419570199e-01
    22    2.072856016638e-02
    23    1.113159089142e-01
    24    7.417340285750e-03
    25    9.081126777848e-02
    26   -2.143328553611e-01
    27   -6.497079085144e-01
    28   -1.135704683367e-01
    29    1.041405409103e-01
    30    4.950816264483e-02
    31   -3.034839836827e-01
    32    2.917733950453e-01
    33   -6.160264700108e-02
    34   -2.056475301397e-01
    35    1.330513636293e-02
    36    2.593867209530e-02
    37   -7.613444354562e-05
    38    8.434567030162e-03
    39    5.362756690284e-01
    40   -4.627052570955e-01
    41    1.998914204765e-02
    42    1.114389210147e-01
    43    9.577176764347e-03
    44    5.288153034256e-01
    45   -4.639331910001e-01
    46   -1.099127915726e-01
    47   -2.655709595591e-02
    48   -4.910899957315e-03
Sym=X
Ene= 0.807783
Spin=Alpha
Occup=0
     1   -2.346158611194e-02
     2    3.336326370674e-02
     3   -1.357987382225e-02
     4   -2.638382549719e-04
     5    3.314360407061e-02
     6   -3.736520357589e-03
     7   -6.109378017300e-03
     8    1.570190512578e-02
     9   -4.064777614728e-02
    10   -4.011841402814e-02
    11    7.626206217975e-01
    12    2.933021971169e-02
    13    8.848526494637e-02
    14   -1.124200837538e+00
    15    9.161413451581e-03
    16    6.364966484950e-02
    17   -6.256357208421e-02
    18   -6.795491838132e-03
    19   -2.030977348804e-03
    20   -2.328852263626e-02
    21    3.179124385650e-02
    22   -4.059837238524e-03
    23    9.755354588443e-03
    24    3.539332519300e-02
    25    5.114185897148e-03
    26   -2.502906939415e-02
    27    4.691189293422e-04
    28    1.259745168837e-02
    29    6.817139716571e-02
    30   -7.607900077334e-01
    31   -4.340687258497e-02
    32   -7.809753366376e-02
    33    1.123506730280e+00
    34   -1.759891931665e-02
    35    6.544412183066e-02
    36   -6.007245087463e-02
    37   -6.393405146241e-03
    38   -7.701875646995e-03
    39    2.377156811268e-02
    40   -2.306308404076e-02
    41    1.010386013489e-03
    42    6.789950801737e-03
    43   -3.376631769587e-02
    44    2.298950480893e-02
    45   -2.408481370596e-02
    46   -3.182985325241e-03
    47    2.269566664966e-03
    48   -3.403999539487e-02
Sym=X
Ene= 0.862168
Spin=Alpha
Occup=0
     1    1.025701058116e-02
     2   -1.101466976480e+00
     3    1.481629124624e-01
     4    5.622542059283e-02
     5    1.505847309976e-02
     6   -7.399795641519e-04
     7   -3.122865759951e-03
     8    1.694762838957e-03
     9   -4.125866278808e-01
    10   -4.279906632348e-01
    11   -4.470960476431e-02
    12    9.607754853633e-01
    13    1.002563407014e+00
    14    1.045642160653e-01
    15    2.774111598100e-03
    16    1.449520520478e-02
    17   -1.062898332217e-02
    18    2.349045580394e-01
    19    1.041915359826e-02
    20   -1.596991602762e-02
    21    1.106997640169e+00
    22    4.980537937357e-02
    23    1.527305751549e-01
    24    6.737357158007e-03
    25    4.603874626774e-04
    26   -3.135372421152e-03
    27    3.934724073006e-03
    28   -4.075911754172e-01
    29   -4.246064054099e-01
    30   -4.482603725227e-02
    31    9.426045460853e-01
    32    9.883365509880e-01
    33    1.039250646173e-01
    34   -1.110339728187e-03
    35   -1.320670819544e-02
    36    1.218472181500e-02
    37   -2.368935595632e-01
    38   -1.126148239259e-02
    39    1.487466901232e-02
    40   -1.096301431520e+00
    41    4.898280297790e-02
    42    1.517515776251e-01
    43    9.636279641640e-03
    44   -1.064164017059e-02
    45    1.089212387246e+00
    46    1.477391361501e-01
    47    5.575694154237e-02
    48    1.204922795374e-02
Sym=X
Ene= 0.934991
Spin=Alpha
Occup=0
     1    1.083337538662e-01
     2   -1.287183852559e+00
     3    1.816800442620e-01
     4   -4.017368610772e-03
     5    6.608745412775e-03
     6   -9.101176232168e-04
     7   -9.417891884994e-03
     8    6.608196104660e-03
     9   -4.791088961010e-01
    10   -4.899730214379e-01
    11   -5.203062960718e-02
    12    1.489320102770e+00
    13    1.527451949530e+00
    14    1.617208141393e-01
    15    3.472277264223e-03
    16    7.329294485442e-03
    17   -5.494222417011e-03
    18    1.175283122277e-01
    19    7.207183055105e-03
    20   -1.125449326694e-01
    21    1.269262364066e+00
    22   -1.409248851208e-02
    23    1.801038364549e-01
    24    1.195898869359e-02
    25    4.615246846570e-04
    26   -6.717985927975e-03
    27    1.980488815605e-02
    28    4.724987355723e-01
    29    5.035750633289e-01
    30    5.266966055680e-02
    31   -1.471741190378e+00
    32   -1.559665706236e+00
    33   -1.635815867293e-01
    34   -2.388728670741e-03
    35   -2.236487660973e-03
    36   -1.541049154897e-02
    37    1.194936410115e-01
    38    3.666826917756e-03
    39   -1.104679423399e-01
    40    1.292447722879e+00
    41    1.287487269594e-02
    42   -1.808998861381e-01
    43   -1.683775120018e-02
    44    1.116320371487e-01
    45   -1.290351357434e+00
    46   -1.827362387331e-01
    47    5.104815111404e-03
    48   -1.738272772143e-03
Sym=X
Ene= 0.971782
Spin=Alpha
Occup=0
     1   -6.366245329277e-02
     2    8.997615074476e-01
     3   -8.690669818084e-02
     4   -9.788056999004e-02
     5   -1.774800697787e-02
     6    2.525542403128e-02
     7    2.518962938912e-01
     8    5.243127252315e-01
     9    4.739122989788e-01
    10   -4.626284564552e-01
    11    4.406776223448e-03
    12   -1.468059879428e+00
    13    1.438272702813e+00
    14    2.598057083625e-04
    15   -5.418320049823e-02
    16   -2.577190478789e-02
    17    2.614501700357e-03
    18    1.760530100160e-02
    19   -3.006896097704e-01
    20   -6.324484973506e-02
    21    9.343018775734e-01
    22    9.520979126559e-02
    23    9.641507610417e-02
    24    2.553907149158e-03
    25   -2.491691073939e-02
    26   -2.343077728350e-01
    27   -5.518002693605e-01
    28    4.823193443520e-01
    29   -4.503271320978e-01
    30   -2.187504548676e-02
    31   -1.502818191794e+00
    32    1.397789565561e+00
    33    7.194298668855e-02
    34    5.178803251434e-02
    35    2.392372171605e-02
    36   -1.129806200420e-03
    37   -1.477896963146e-02
    38    2.987315825294e-01
    39    6.455652630132e-02
    40   -8.977686541858e-01
    41    9.418977745837e-02
    42    9.160830454563e-02
    43    7.641519827020e-03
    44    6.554510667187e-02
    45   -9.208277514648e-01
    46   -8.989118194001e-02
    47   -9.772253456759e-02
    48   -1.210889155835e-02
[5D]

======= END OF MOLDEN-FORMATTED INPUT FILE =======


        *************************************************************
        *                                                           *
        *  Thank you very much for using Q-Chem.  Have a nice day.  *
        *                                                           *
        *************************************************************


