                  Welcome to Q-Chem
     A Quantum Leap Into The Future Of Chemistry


 Q-Chem 5.4 (devel), Q-Chem, Inc., Pleasanton, CA (2021)

 E. Epifanovsky,  A. T. B. Gilbert,  Xintian Feng,  Joonho Lee,  Yuezhi Mao,  
 N. Mardirossian,  P. Pokhilko,  A. White,  M. Wormit,  M. P. Coons,  
 A. L. Dempwolff,  Zhengting Gan,  D. Hait,  P. R. Horn,  L. D. Jacobson,  
 I. Kaliman,  J. Kussmann,  A. W. Lange,  Ka Un Lao,  D. S. Levine,  Jie Liu,  
 S. C. McKenzie,  A. F. Morrison,  K. Nanda,  F. Plasser,  D. R. Rehn,  
 M. L. Vidal,  Zhi-Qiang You,  Ying Zhu,  B. Alam,  B. Albrecht,  
 A. Aldossary,  E. Alguire,  J. H. Andersen,  D. Barton,  K. Begam,  A. Behn,  
 Y. A. Bernard,  E. J. Berquist,  H. Burton,  A. Carreras,  K. Carter-Fenk,  
 R. Chakraborty,  A. D. Chien,  K. D. Closser,  V. Cofer-Shabica,  
 S. Dasgupta,  Jia Deng,  M. de Wergifosse,  M. Diedenhofen,  Hainam Do,  
 S. Ehlert,  Po-Tung Fang,  S. Fatehi,  Qingguo Feng,  T. Friedhoff,  
 J. Gayvert,  Qinghui Ge,  G. Gidofalvi,  M. Goldey,  J. Gomes,  
 C. Gonzalez-Espinoza,  S. Gulania,  A. Gunina,  M. W. D. Hanson-Heine,  
 P. H. P. Harbach,  A. W. Hauser,  M. F. Herbst,  M. Hernandez Vera,  
 M. Hodecker,  Z. C. Holden,  S. Houck,  Xunkun Huang,  Kerwin Hui,  
 B. C. Huynh,  M. Ivanov,  Hyunjun Ji,  Hanjie Jiang,  B. Kaduk,  S. Kaehler,  
 K. Khistyaev,  Jaehoon Kim,  P. Klunzinger,  Z. Koczor-Benda,  
 Joong Hoon Koh,  D. Kosenkov,  L. Koulias,  T. Kowalczyk,  C. M. Krauter,  
 K. Kue,  A. Kunitsa,  T. Kus,  A. Landau,  K. V. Lawler,  D. Lefrancois,  
 S. Lehtola,  Rain Li,  Yi-Pei Li,  Jiashu Liang,  M. Liebenthal,  
 Hung-Hsuan Lin,  You-Sheng Lin,  Fenglai Liu,  Kuan-Yu Liu,  
 M. Loipersberger,  A. Luenser,  A. Manjanath,  P. Manohar,  E. Mansoor,  
 S. F. Manzer,  Shan-Ping Mao,  A. V. Marenich,  T. Markovich,  S. Mason,  
 S. A. Maurer,  P. F. McLaughlin,  M. F. S. J. Menger,  J.-M. Mewes,  
 S. A. Mewes,  P. Morgante,  J. W. Mullinax,  K. J. Oosterbaan,  G. Paran,  
 Alexander C. Paul,  Suranjan K. Paul,  F. Pavosevic,  Zheng Pei,  S. Prager,  
 E. I. Proynov,  E. Ramos,  B. Rana,  A. E. Rask,  A. Rettig,  R. M. Richard,  
 F. Rob,  E. Rossomme,  T. Scheele,  M. Scheurer,  M. Schneider,  
 N. Sergueev,  S. M. Sharada,  W. Skomorowski,  D. W. Small,  C. J. Stein,  
 Yu-Chuan Su,  E. J. Sundstrom,  Zhen Tao,  J. Thirman,  T. Tsuchimochi,  
 N. M. Tubman,  S. P. Veccham,  O. Vydrov,  J. Wenzel,  J. Witte,  A. Yamada,  
 Kun Yao,  S. Yeganeh,  S. R. Yost,  A. Zech,  Igor Ying Zhang,  Xing Zhang,  
 Yu Zhang,  D. Zuev,  A. Aspuru-Guzik,  A. T. Bell,  N. A. Besley,  
 K. B. Bravaya,  B. R. Brooks,  D. Casanova,  Jeng-Da Chai,  S. Coriani,  
 C. J. Cramer,  A. E. DePrince, III,  R. A. DiStasio Jr.,  A. Dreuw,  
 B. D. Dunietz,  T. R. Furlani,  W. A. Goddard III,  S. Grimme,  
 S. Hammes-Schiffer,  T. Head-Gordon,  W. J. Hehre,  Chao-Ping Hsu,  
 T.-C. Jagau,  Yousung Jung,  A. Klamt,  Jing Kong,  D. S. Lambrecht,  
 WanZhen Liang,  N. J. Mayhall,  C. W. McCurdy,  J. B. Neaton,  
 C. Ochsenfeld,  J. A. Parkhill,  R. Peverati,  V. A. Rassolov,  Yihan Shao,  
 L. V. Slipchenko,  T. Stauch,  R. P. Steele,  J. E. Subotnik,  
 A. J. W. Thom,  A. Tkatchenko,  D. G. Truhlar,  T. Van Voorhis,  
 T. A. Wesolowski,  K. B. Whaley,  H. L. Woodcock III,  P. M. Zimmerman,  
 S. Faraji,  P. M. W. Gill,  M. Head-Gordon,  J. M. Herbert,  A. I. Krylov

 Additional authors for Version 5.4.1: 
 S. Kotaru,  Shaozhi Li,  Xiangyuan Li,  F. Matz,  A. Molle,  Haisheng Ren,  
 Yingli Su,  Hung-Yi Tsai,  C. Utku,  Fang Wang

 Contributors to earlier versions of Q-Chem not listed above: 
 R. D. Adamson,  B. Austin,  R. Baer,  J. Baker,  G. J. O. Beran,  
 K. Brandhorst,  S. T. Brown,  E. F. C. Byrd,  A. K. Chakraborty,  
 G. K. L. Chan,  Chun-Min Chang,  Yunqing Chen,  C.-L. Cheng,  
 Siu Hung Chien,  D. M. Chipman,  D. L. Crittenden,  H. Dachsel,  
 R. J. Doerksen,  A. D. Dutoi,  R. G. Edgar,  J. Fosso-Tande,  
 L. Fusti-Molnar,  D. Ghosh,  A. Ghysels,  A. Golubeva-Zadorozhnaya,  
 J. Gonthier,  M. S. Gordon,  S. R. Gwaltney,  G. Hawkins,  J. E. Herr,  
 A. Heyden,  S. Hirata,  E. G. Hohenstein,  G. Kedziora,  F. J. Keil,  
 C. Kelley,  Jihan Kim,  R. A. King,  R. Z. Khaliullin,  P. P. Korambath,  
 W. Kurlancheek,  A. Laurent,  A. M. Lee,  M. S. Lee,  S. V. Levchenko,  
 Ching Yeh Lin,  D. Liotard,  E. Livshits,  R. C. Lochan,  I. Lotan,  
 L. A. Martinez-Martinez,  P. E. Maslen,  N. Nair,  D. P. O'Neill,  
 D. Neuhauser,  E. Neuscamman,  C. M. Oana,  R. Olivares-Amaya,  R. Olson,  
 T. M. Perrine,  B. Peters,  P. A. Pieniazek,  A. Prociuk,  Y. M. Rhee,  
 J. Ritchie,  M. A. Rohrdanz,  E. Rosta,  N. J. Russ,  H. F. Schaefer III,  
 M. W. Schmidt,  N. E. Schultz,  S. Sharma,  N. Shenvi,  C. D. Sherrill,  
 A. C. Simmonett,  A. Sodt,  T. Stein,  D. Stuck,  K. S. Thanthiriwatte,  
 V. Vanovschi,  L. Vogt,  Tao Wang,  A. Warshel,  M. A. Watson,  
 C. F. Williams,  Q. Wu,  X. Xu,  Jun Yang,  W. Zhang,  Yan Zhao

 Please cite Q-Chem as follows:
 Y. Shao et al., Mol. Phys. 113, 184-215 (2015)
 DOI: 10.1080/00268976.2014.952696

 Q-Chem 5.4.1 for Intel X86 EM64T Linux

 Parts of Q-Chem use Armadillo 9.800.1 (Horizon Scraper).
 http://arma.sourceforge.net/

 Q-Chem begins on Thu Nov 17 00:23:29 2022  

 Host: cpu316.baobab
0

     Scratch files written to /scratch/fum/qchem17599//
 Processing $rem in /home/share/wesolowski/qc5.aug2021.FDE/config/preferences:
 Processing $rem in /home/fum/.qchemrc:

 Checking the input file for inconsistencies... 	...done.

--------------------------------------------------------------
User input:
--------------------------------------------------------------
$comment
generated from CCJob.Templates
$end

$rem
sym_ignore = true
method = adc(2)
ee_states = 10
basis = cc-pVDZ
mem_static = 1024
mem_total = 30000
adc_davidson_maxiter = 900
adc_davidson_conv = 6
adc_print = 3
adc_prop_es = true
adc_prop_es2es = true
adc_prop_tpa = true
molden_format = True
state_analysis = true
print_orbitals = 15
gen_scfman = false
fde_export_density = true
fde_details = 3
$end

$molecule
0 1
H -0.0348278765 -0.2442097827 0.0636489606
C -1.0815972949 -0.5242748755 -0.0023551776
H -1.313264467 -1.5767591607 -0.0757276926
C -2.043634118 0.3926884087 0.0061254933
H -1.8137616575 1.4459188338 0.0804456828
H -3.085977293 0.114931858 -0.0593381042                     
$end
--------------------------------------------------------------
 ----------------------------------------------------------------
             Standard Nuclear Orientation (Angstroms)
    I     Atom           X                Y                Z
 ----------------------------------------------------------------
    1      H      -0.0348278765    -0.2442097827     0.0636489606
    2      C      -1.0815972949    -0.5242748755    -0.0023551776
    3      H      -1.3132644670    -1.5767591607    -0.0757276926
    4      C      -2.0436341180     0.3926884087     0.0061254933
    5      H      -1.8137616575     1.4459188338     0.0804456828
    6      H      -3.0859772930     0.1149318580    -0.0593381042
 ----------------------------------------------------------------
 Nuclear Repulsion Energy =          33.45718409 hartrees
 There are        8 alpha and        8 beta electrons
 Requested basis set is cc-pVDZ
 There are 24 shells and 48 basis functions
 Total memory of 30000 MB is distributed as follows: 
   MEM_STATIC is set to 1024 MB
   QALLOC/CCMAN JOB total memory use is  28976 MB
 Warning: actual memory use might exceed 30000 MB

 Total QAlloc Memory Limit  30000 MB
 Mega-Array Size      1001 MB
 MEM_STATIC part      1024 MB

                       Distance Matrix (Angstroms)
             H (  1)   C (  2)   H (  3)   C (  4)   H (  5)
   C (  2)  1.085596
   H (  3)  1.851895  1.080174
   C (  4)  2.108139  1.329063  2.102109
   H (  5)  2.453859  2.103469  3.067812  1.080583
   H (  6)  3.074674  2.104607  2.450428  1.080700  1.846510

 A cutoff of  1.0D-11 yielded    300 shell pairs
 There are      1220 function pairs (      1329 Cartesian)
 Smallest overlap matrix eigenvalue = 4.74E-03

 Scale SEOQF with 1.000000e-01/1.000000e-01/1.000000e+00

 Standard Electronic Orientation quadrupole field applied
 Nucleus-field energy     =     0.0000000022 hartrees
 Guess from superposition of atomic densities
 Warning:  Energy on first SCF cycle will be non-variational
 SAD guess density has 16.000000 electrons
 A restricted Hartree-Fock SCF calculation will be
 performed using Pulay DIIS extrapolation
 SCF converges when DIIS error is below 1.0E-08
 using 8 threads for integral computing
 -------------------------------------------------------
 OpenMP Integral computing Module                
 Release: version 1.0, May 2013, Q-Chem Inc. Pittsburgh 
 -------------------------------------------------------
 ---------------------------------------
  Cycle       Energy         DIIS Error
 ---------------------------------------
    1     -78.4434692826      1.01E-01
    2     -78.0177598388      7.23E-03
    3     -78.0384190638      1.85E-03
    4     -78.0399063913      5.79E-04
    5     -78.0400304930      5.81E-05
    6     -78.0400323715      9.64E-06
    7     -78.0400324333      2.88E-06
    8     -78.0400324369      1.10E-06
    9     -78.0400324374      1.09E-07
   10     -78.0400324374      2.59E-08
   11     -78.0400324374      7.12E-09 Convergence criterion met
 ---------------------------------------
 SCF time:  CPU 2.27 s  wall 2.12 s
 SCF   energy in the final basis set = -78.04003244
 Total energy in the final basis set = -78.04003244
Exporting Density Matrix to file 'Densmat_SCF.txt'.
Export successful
================================================================================
|                                                                              |
|                                 A D C  M A N                                 |
|                                                                              |
 ------------------------------------------------------------------------------ 
|                                                                              |
| Components:                                                                  |
|                                                                              |
| - libvmm - 1.3-trunk                                                         |
|   Authors:                                                                   |
|   Evgeny Epifanovsky, Ilya Kaliman                                           |
|                                                                              |
| - libtensor - 2.5-trunk                                                      |
|   Authors:                                                                   |
|   Evgeny Epifanovsky, Michael Wormit, Dmitry Zuev, Sam Manzer,               |
|   Ilya Kaliman                                                               |
|                                                                              |
| - libwfa - 1.1-trunk                                                         |
|   Authors:                                                                   |
|   Felix Plasser, Stefanie Mewes (Baeppler), Benjamin Thomitzni,              |
|   Michael Wormit, Feng Chen, Anna I. Krylov, Pavel Pokhilko                  |
|                                                                              |
| - libadc - 1.1-trunk                                                         |
|   Authors:                                                                   |
|   Michael Wormit, Adrian L. Dempwolff, Philipp H. P. Harbach,                |
|   Caroline Krauter, Dirk Rehn, Matthias Schneider, Jan Wenzel                |
|                                                                              |
| - adcman - 2.6-trunk                                                         |
|   Authors:                                                                   |
|   Michael Wormit, Adrian L. Dempwolff, Philipp H. P. Harbach,                |
|   Caroline Krauter, Daniel Lefrancois, Jan-Michael Mewes, Dirk Rehn,         |
|   Matthias Schneider, Jan Wenzel, Andreas Dreuw                              |
|                                                                              |
| Authors of earlier versions of ADCMAN:                                       |
| Andreas Dreuw, Jan Hendrik Starcke, Dirk Rehn, Michael Wormit                |
|                                                                              |
================================================================================

 Created directory /scratch/fum/qchem17599/plots
  Import QC data ...  CPU 0.00 s  wall 0.00 s

 Alpha MOs, Restricted
 -- Occupied --                  
-11.235 -11.233  -1.033  -0.789  -0.641  -0.583  -0.504  -0.375
  1 A     2 A     3 A     4 A     5 A     6 A     7 A     8 A                  
 -- Virtual --                   
  0.169   0.204   0.233   0.239   0.303   0.463   0.577   0.615
  9 A    10 A    11 A    12 A    13 A    14 A    15 A    16 A                  
  0.688   0.709   0.785   0.808   0.861   0.936   0.974   1.009
 17 A    18 A    19 A    20 A    21 A    22 A    23 A    24 A                  
  1.130   1.236   1.254   1.267   1.294   1.600   1.728   1.751
 25 A    26 A    27 A    28 A    29 A    30 A    31 A    32 A                  
  1.820   1.861   1.868   1.921   1.975   1.979   2.224   2.260
 33 A    34 A    35 A    36 A    37 A    38 A    39 A    40 A                  
  2.376   2.453   2.507   2.637   2.718   2.822   3.139   3.402
 41 A    42 A    43 A    44 A    45 A    46 A    47 A    48 A                  

 Beta MOs, Restricted
 -- Occupied --                  
-11.235 -11.233  -1.033  -0.789  -0.641  -0.583  -0.504  -0.375
  1 A     2 A     3 A     4 A     5 A     6 A     7 A     8 A                  
 -- Virtual --                   
  0.169   0.204   0.233   0.239   0.303   0.463   0.577   0.615
  9 A    10 A    11 A    12 A    13 A    14 A    15 A    16 A                  
  0.688   0.709   0.785   0.808   0.861   0.936   0.974   1.009
 17 A    18 A    19 A    20 A    21 A    22 A    23 A    24 A                  
  1.130   1.236   1.254   1.267   1.294   1.600   1.728   1.751
 25 A    26 A    27 A    28 A    29 A    30 A    31 A    32 A                  
  1.820   1.861   1.868   1.921   1.975   1.979   2.224   2.260
 33 A    34 A    35 A    36 A    37 A    38 A    39 A    40 A                  
  2.376   2.453   2.507   2.637   2.718   2.822   3.139   3.402
 41 A    42 A    43 A    44 A    45 A    46 A    47 A    48 A                  
  Import AO data ...  CPU 0.00 s  wall 0.00 s
  Using point group: C1
  Irreducible representations in point group: A
  Molecular orbitals: 
  Occupied MOs:
  Block   0:   1 (  A) A   2 (  A) A   3 (  A) A   4 (  A) A   5 (  A) A
                  -11.23      -11.23      -1.033     -0.7892      -0.641
               6 (  A) A   7 (  A) A   8 (  A) A
                 -0.5827     -0.5035     -0.3749
  Block   1:   1 (  A) B   2 (  A) B   3 (  A) B   4 (  A) B   5 (  A) B
                  -11.23      -11.23      -1.033     -0.7892      -0.641
               6 (  A) B   7 (  A) B   8 (  A) B
                 -0.5827     -0.5035     -0.3749
  Virtual MOs:
  Block   0:   9 (  A) A  10 (  A) A  11 (  A) A  12 (  A) A  13 (  A) A
                  0.1692      0.2037      0.2327      0.2393      0.3035
              14 (  A) A  15 (  A) A  16 (  A) A  17 (  A) A  18 (  A) A
                  0.4629       0.577       0.615      0.6884      0.7086
              19 (  A) A  20 (  A) A  21 (  A) A  22 (  A) A
                  0.7853      0.8083      0.8615      0.9361
  Block   1:  23 (  A) A  24 (  A) A  25 (  A) A  26 (  A) A  27 (  A) A
                  0.9743       1.009        1.13       1.236       1.254
              28 (  A) A  29 (  A) A  30 (  A) A  31 (  A) A  32 (  A) A
                   1.267       1.294         1.6       1.728       1.751
              33 (  A) A  34 (  A) A  35 (  A) A  36 (  A) A
                    1.82       1.861       1.868       1.921
  Block   2:  37 (  A) A  38 (  A) A  39 (  A) A  40 (  A) A  41 (  A) A
                   1.975       1.979       2.224        2.26       2.376
              42 (  A) A  43 (  A) A  44 (  A) A  45 (  A) A  46 (  A) A
                   2.453       2.507       2.637       2.718       2.822
              47 (  A) A  48 (  A) A
                   3.139       3.402
  Block   3:   9 (  A) B  10 (  A) B  11 (  A) B  12 (  A) B  13 (  A) B
                  0.1692      0.2037      0.2327      0.2393      0.3035
              14 (  A) B  15 (  A) B  16 (  A) B  17 (  A) B  18 (  A) B
                  0.4629       0.577       0.615      0.6884      0.7086
              19 (  A) B  20 (  A) B  21 (  A) B  22 (  A) B
                  0.7853      0.8083      0.8615      0.9361
  Block   4:  23 (  A) B  24 (  A) B  25 (  A) B  26 (  A) B  27 (  A) B
                  0.9743       1.009        1.13       1.236       1.254
              28 (  A) B  29 (  A) B  30 (  A) B  31 (  A) B  32 (  A) B
                   1.267       1.294         1.6       1.728       1.751
              33 (  A) B  34 (  A) B  35 (  A) B  36 (  A) B
                    1.82       1.861       1.868       1.921
  Block   5:  37 (  A) B  38 (  A) B  39 (  A) B  40 (  A) B  41 (  A) B
                   1.975       1.979       2.224        2.26       2.376
              42 (  A) B  43 (  A) B  44 (  A) B  45 (  A) B  46 (  A) B
                   2.453       2.507       2.637       2.718       2.822
              47 (  A) B  48 (  A) B
                   3.139       3.402
  Import MO data ...  CPU 0.00 s  wall 0.00 s
  Import HF data ...  CPU 0.41 s  wall 0.12 s
  Import 2e integrals ...  CPU 0.60 s  wall 0.09 s

--------------------------------------------------------------------------------
                                   HF Summary                                   
--------------------------------------------------------------------------------
  Energy:                                                  -78.0400324374 a.u.
  Dip. moment [a.u.]:                  [  -0.001192,    0.000020,    0.000269]
  Total dipole [Debye]:                                               0.003106
  <r^2> [a.u.]:                        [ 175.561993,   34.909592,   11.618666]
  Total <r^2> [a.u.]:                                               222.090251
--------------------------------------------------------------------------------
  HF properties ...  CPU 0.01 s  wall 0.01 s
  MP(1) calculation ...  CPU 0.01 s  wall 0.00 s
  N^6 prerequesite intermediates ...  CPU 0.38 s  wall 0.07 s
  Difference density matrix of state mp2_gs printed to ASCII file 'State_mp2_gs_Difference.txt'
Exporting MP density matrix to file 'Densmat_MP.txt'.
Export successful
  Total density matrix of state mp2_gs printed to ASCII file 'State_mp2_gs_Total.txt'
Exporting MP density matrix to file 'Densmat_MP.txt'.
Export successful

--------------------------------------------------------------------------------
                                 MP(2) Summary                                  
--------------------------------------------------------------------------------
  MP energy contribution:                                   -0.2795450710 a.u.
  Total energy:                                            -78.3195775084 a.u.
  Dip. moment [a.u.]:                  [  -0.001077,    0.000076,    0.000274]
  Total dipole [Debye]:                                               0.002830
  <r^2> [a.u.]:                        [ 175.608441,   34.951660,   11.452710]
  Total <r^2> [a.u.]:                                               222.012811

  Density matrix analysis:
  ------------------------
  NOs
    Occupation of frontier NOs:
       0.0450   1.9385
    Number of electrons: 16.000000
    Number of unpaired electrons: n_u =  0.40273, n_u,nl =  0.04483
    NO participation ratio (PR_NO): 13.890960
  
  
  Mulliken Population Analysis
  Atom      Charge (e)              h+              e-           Del q
  --------------------------------------------------------------------
   1 H        0.051505        0.014007       -0.011207        0.002800
   2 C       -0.102147        0.093036       -0.098651       -0.005615
   3 H        0.050161        0.014084       -0.011195        0.002889
   4 C       -0.099763        0.092625       -0.098537       -0.005912
   5 H        0.050055        0.014107       -0.011183        0.002924
   6 H        0.050189        0.014097       -0.011183        0.002914
  --------------------------------------------------------------------
  Sum:        0.000000        0.241956       -0.241956       -0.000000
  
  Multipole moment analysis of the density matrix
    Molecular charge:                      0.000000
    Number of electrons:                   16.000000
      Center of electronic charge [Ang]: [ -1.562416,  -0.065605,   0.001969]
    Total nuclear charge:                  16.000000
      Center of nuclear charge [Ang]:    [ -1.562451,  -0.065602,   0.001978]
    Dipole moment [D]:                     0.002830
      Cartesian components [D]:          [ -0.002737,   0.000193,   0.000697]
    RMS size of the density [Ang]:         1.200071
      Cartesian components [Ang]:        [  0.795184,   0.779367,   0.447704]
  
  Exciton analysis of the difference density matrix
    <r_h> [Ang]:                  [ -1.561637,  -0.065792,   0.001943]
    <r_e> [Ang]:                  [ -1.561889,  -0.065913,   0.001933]
    |<r_e - r_h>| [Ang]:            0.000280
    Hole size [Ang]:                1.392604
      Cartesian components [Ang]: [  0.846613,   0.833724,   0.726288]
    Electron size [Ang]:            1.359749
      Cartesian components [Ang]: [  0.877339,   0.862420,   0.579159]
--------------------------------------------------------------------------------
  MP(2) calculation ...  CPU 0.45 s  wall 0.23 s
  Start ADC(2)-s ...  CPU 0.00 s  wall 0.00 s
  ADC(2) intermediates ...  CPU 0.17 s  wall 0.03 s
  Starting Davidson for singlet states of irrep A ... 
--------------------------------------------------------------------------------
   It NVec Conv  Avg. Norm  Max. Norm  Conv. states           Remark
--------------------------------------------------------------------------------
        10    0  1.330e-01  4.692e-01  0.4126 n n n n n n n n Guess.
    1   20    0  2.295e-02  1.105e-01  0.3274 n n n n n n n n 
    2   30    0  5.783e-03  2.427e-02  0.3227 n n n n n n n n 
    3   40    0  1.742e-03  1.010e-02  0.3223 n n n n n n n n 
    4   50    0  5.043e-04  3.315e-03  0.3222 n n n n n n n n 
    5   20    0  2.440e-04  1.552e-03  0.3222 n n n n n n n n Subspace collapsed.
    6   30    0  1.065e-04  7.340e-04  0.3222 n n n n n n n n 
    7   40    0  8.022e-05  7.217e-04  0.3222 n n n n n n n n 
    8   50    0  4.340e-05  3.106e-04  0.3222 n n n n n n n n 
    9   20    2  2.443e-05  1.723e-04  0.3222 n y n y n n n n Subspace collapsed.
   10   30    4  2.092e-05  1.652e-04  0.3222 n y y y y n n n 
   11   40    5  1.193e-05  8.370e-05  0.3222 n y y y y y n n 
   12   50    6  8.161e-06  7.082e-05  0.3222 y y y y y y n n 
   13   20    6  4.127e-06  3.509e-05  0.3222 y y y y y y n n Subspace collapsed.
   14   30    6  3.111e-06  2.564e-05  0.3222 y y y y y y n n 
   15   40    6  1.849e-06  1.653e-05  0.3222 y y y y y y n n 
   16   50    6  2.281e-06  2.153e-05  0.3222 y y y y y y n n 
   17   20    6  1.096e-06  1.037e-05  0.3222 y y y y y y n n Subspace collapsed.
   18   30    7  1.232e-06  1.173e-05  0.3222 y y y y y y y n 
   19   40    7  1.356e-06  1.310e-05  0.3222 y y y y y y y n 
   20   50    8  1.369e-06  1.340e-05  0.3222 y y y y y y y y 
   21   20    8  7.612e-07  7.471e-06  0.3222 y y y y y y y y Subspace collapsed.
   22   30    8  6.947e-07  6.827e-06  0.3222 y y y y y y y y 
   23   39    9  4.329e-07  4.271e-06  0.3222 y y y y y y y y 
   24   47    9  5.501e-07  5.448e-06  0.3222 y y y y y y y y 
   25   50    9  5.704e-07  5.651e-06  0.3222 y y y y y y y y 
   26   16    9  2.916e-07  2.890e-06  0.3222 y y y y y y y y Subspace collapsed.
   27   21    9  3.867e-07  3.836e-06  0.3222 y y y y y y y y 
   28   26    9  3.070e-07  3.052e-06  0.3222 y y y y y y y y 
   29   30    9  3.592e-07  3.578e-06  0.3222 y y y y y y y y 
   30   34    9  3.152e-07  3.144e-06  0.3222 y y y y y y y y 
   31   38    9  1.569e-07  1.566e-06  0.3222 y y y y y y y y 
   32   42   10  6.843e-08  6.830e-07  0.3222 y y y y y y y y Converged.
--------------------------------------------------------------------------------
  Davidson Summary: 
 ------------------------------------------------------------
  State  0: excitation energy =   0.3222 a.u.   (converged)
  State  1: excitation energy =   0.3327 a.u.   (converged)
  State  2: excitation energy =   0.3376 a.u.   (converged)
  State  3: excitation energy =   0.3614 a.u.   (converged)
  State  4: excitation energy =   0.3762 a.u.   (converged)
  State  5: excitation energy =   0.3882 a.u.   (converged)
  State  6: excitation energy =   0.4239 a.u.   (converged)
  State  7: excitation energy =   0.4478 a.u.   (converged)
  State  8: excitation energy =   0.4570 a.u.   (converged)
  State  9: excitation energy =   0.4636 a.u.   (converged)
 ------------------------------------------------------------

  Singlet states of irrep A ...  CPU 81.96 s  wall 26.24 s
  TDMs ...  CPU 0.67 s  wall 0.28 s
  SDMs ...  CPU 2.11 s  wall 0.62 s
  Starting TPA DIIS iterations ... 
------------------------------------ 
   It     Res. Norm  Remark
------------------------------------
                       Guess.
    1     4.347e+00  
    2     5.750e+00  
    3     1.071e+00  
    4     2.554e-01  
    5     6.466e-02  
    6     2.663e-02  
    7     8.184e-03  
    8     1.459e-03  
    9     5.412e-04  
   10     9.075e-05  
   11     2.870e-05  
   12     4.423e-06  
   13     1.446e-06  
   14     4.393e-07  Converged.
   ... Converged in 14 steps (norm: 4.39304e-07)
------------------------------------
  Starting TPA DIIS iterations ... 
------------------------------------ 
   It     Res. Norm  Remark
------------------------------------
                       Guess.
    1     4.155e+00  
    2     5.487e+00  
    3     1.024e+00  
    4     2.522e-01  
    5     6.422e-02  
    6     2.634e-02  
    7     8.034e-03  
    8     1.448e-03  
    9     5.372e-04  
   10     8.952e-05  
   11     2.833e-05  
   12     4.327e-06  
   13     1.440e-06  
   14     4.320e-07  Converged.
   ... Converged in 14 steps (norm: 4.32025e-07)
------------------------------------
  Starting TPA DIIS iterations ... 
------------------------------------ 
   It     Res. Norm  Remark
------------------------------------
                       Guess.
    1     6.876e-01  
    2     4.824e-01  
    3     1.702e-01  
    4     5.851e-02  
    5     1.834e-02  
    6     6.668e-03  
    7     1.042e-03  
    8     4.507e-04  
    9     1.259e-04  
   10     2.867e-05  
   11     5.857e-06  
   12     1.708e-06  
   13     1.081e-06  
   14     4.273e-07  Converged.
   ... Converged in 14 steps (norm: 4.27317e-07)
------------------------------------
  Starting TPA DIIS iterations ... 
------------------------------------ 
   It     Res. Norm  Remark
------------------------------------
                       Guess.
    1     4.598e+00  
    2     6.200e+00  
    3     1.142e+00  
    4     2.806e-01  
    5     7.193e-02  
    6     2.987e-02  
    7     9.162e-03  
    8     1.632e-03  
    9     6.091e-04  
   10     1.027e-04  
   11     3.276e-05  
   12     5.086e-06  
   13     1.674e-06  
   14     5.091e-07  Converged.
   ... Converged in 14 steps (norm: 5.09063e-07)
------------------------------------
  Starting TPA DIIS iterations ... 
------------------------------------ 
   It     Res. Norm  Remark
------------------------------------
                       Guess.
    1     4.395e+00  
    2     5.916e+00  
    3     1.092e+00  
    4     2.768e-01  
    5     7.145e-02  
    6     2.955e-02  
    7     8.996e-03  
    8     1.620e-03  
    9     6.047e-04  
   10     1.013e-04  
   11     3.231e-05  
   12     4.974e-06  
   13     1.666e-06  
   14     5.011e-07  Converged.
   ... Converged in 14 steps (norm: 5.01115e-07)
------------------------------------
  Starting TPA DIIS iterations ... 
------------------------------------ 
   It     Res. Norm  Remark
------------------------------------
                       Guess.
    1     6.984e-01  
    2     4.979e-01  
    3     1.790e-01  
    4     6.526e-02  
    5     1.962e-02  
    6     7.217e-03  
    7     1.161e-03  
    8     5.219e-04  
    9     1.488e-04  
   10     3.211e-05  
   11     6.601e-06  
   12     1.984e-06  
   13     1.326e-06  
   14     5.249e-07  Converged.
   ... Converged in 14 steps (norm: 5.24906e-07)
------------------------------------
  Starting TPA DIIS iterations ... 
------------------------------------ 
   It     Res. Norm  Remark
------------------------------------
                       Guess.
    1     4.724e+00  
    2     6.428e+00  
    3     1.178e+00  
    4     2.935e-01  
    5     7.568e-02  
    6     3.154e-02  
    7     9.667e-03  
    8     1.721e-03  
    9     6.443e-04  
   10     1.088e-04  
   11     3.488e-05  
   12     5.434e-06  
   13     1.794e-06  
   14     5.459e-07  Converged.
   ... Converged in 14 steps (norm: 5.45884e-07)
------------------------------------
  Starting TPA DIIS iterations ... 
------------------------------------ 
   It     Res. Norm  Remark
------------------------------------
                       Guess.
    1     4.515e+00  
    2     6.133e+00  
    3     1.126e+00  
    4     2.895e-01  
    5     7.517e-02  
    6     3.122e-02  
    7     9.492e-03  
    8     1.708e-03  
    9     6.396e-04  
   10     1.074e-04  
   11     3.439e-05  
   12     5.314e-06  
   13     1.786e-06  
   14     5.377e-07  Converged.
   ... Converged in 14 steps (norm: 5.37665e-07)
------------------------------------
  Starting TPA DIIS iterations ... 
------------------------------------ 
   It     Res. Norm  Remark
------------------------------------
                       Guess.
    1     7.036e-01  
    2     5.054e-01  
    3     1.833e-01  
    4     6.879e-02  
    5     2.025e-02  
    6     7.499e-03  
    7     1.224e-03  
    8     5.597e-04  
    9     1.610e-04  
   10     3.356e-05  
   11     6.985e-06  
   12     2.131e-06  
   13     1.461e-06  
   14     5.795e-07  Converged.
   ... Converged in 14 steps (norm: 5.79506e-07)
------------------------------------
  Starting TPA DIIS iterations ... 
------------------------------------ 
   It     Res. Norm  Remark
------------------------------------
                       Guess.
    1     5.428e+00  
    2     7.737e+00  
    3     1.377e+00  
    4     3.703e-01  
    5     9.784e-02  
    6     4.155e-02  
    7     1.266e-02  
    8     2.245e-03  
    9     8.543e-04  
   10     1.458e-04  
   11     4.781e-05  
   12     7.563e-06  
   13     2.545e-06  
   14     7.758e-07  Converged.
   ... Converged in 14 steps (norm: 7.75809e-07)
------------------------------------
  Starting TPA DIIS iterations ... 
------------------------------------ 
   It     Res. Norm  Remark
------------------------------------
                       Guess.
    1     5.186e+00  
    2     7.381e+00  
    3     1.316e+00  
    4     3.645e-01  
    5     9.722e-02  
    6     4.116e-02  
    7     1.243e-02  
    8     2.230e-03  
    9     8.480e-04  
   10     1.438e-04  
   11     4.708e-05  
   12     7.389e-06  
   13     2.533e-06  
   14     7.672e-07  Converged.
   ... Converged in 14 steps (norm: 7.67188e-07)
------------------------------------
  Starting TPA DIIS iterations ... 
------------------------------------ 
   It     Res. Norm  Remark
------------------------------------
                       Guess.
    1     7.298e-01  
    2     5.456e-01  
    3     2.069e-01  
    4     9.037e-02  
    5     2.372e-02  
    6     9.176e-03  
    7     1.609e-03  
    8     7.895e-04  
    9     2.336e-04  
   10     3.840e-05  
   11     9.303e-06  
   12     3.059e-06  
   13     2.377e-06  
   14     9.592e-07  Converged.
   ... Converged in 14 steps (norm: 9.59225e-07)
------------------------------------
  Starting TPA DIIS iterations ... 
------------------------------------ 
   It     Res. Norm  Remark
------------------------------------
                       Guess.
    1     5.954e+00  
    2     8.748e+00  
    3     1.525e+00  
    4     4.321e-01  
    5     1.156e-01  
    6     4.970e-02  
    7     1.507e-02  
    8     2.665e-03  
    9     1.025e-03  
   10     1.759e-04  
   11     5.857e-05  
   12     9.336e-06  
   13     3.186e-06  
   14     9.755e-07  Converged.
   ... Converged in 14 steps (norm: 9.75525e-07)
------------------------------------
  Starting TPA DIIS iterations ... 
------------------------------------ 
   It     Res. Norm  Remark
------------------------------------
                       Guess.
    1     5.687e+00  
    2     8.345e+00  
    3     1.456e+00  
    4     4.248e-01  
    5     1.149e-01  
    6     4.926e-02  
    7     1.480e-02  
    8     2.648e-03  
    9     1.017e-03  
   10     1.735e-04  
   11     5.760e-05  
   12     9.118e-06  
   13     3.170e-06  
   14     9.682e-07  Converged.
   ... Converged in 14 steps (norm: 9.68237e-07)
------------------------------------
  Starting TPA DIIS iterations ... 
------------------------------------ 
   It     Res. Norm  Remark
------------------------------------
                       Guess.
    1     7.470e-01  
    2     5.735e-01  
    3     2.240e-01  
    4     1.084e-01  
    5     2.632e-02  
    6     1.054e-02  
    7     1.937e-03  
    8     9.696e-04  
    9     2.895e-04  
   10     3.967e-05  
   11     1.126e-05  
   12     3.865e-06  
   13     3.240e-06  
   14     1.329e-06  
   15     5.103e-07  Converged.
   ... Converged in 15 steps (norm: 5.10261e-07)
------------------------------------
  Starting TPA DIIS iterations ... 
------------------------------------ 
   It     Res. Norm  Remark
------------------------------------
                       Guess.
    1     6.449e+00  
    2     9.726e+00  
    3     1.663e+00  
    4     4.934e-01  
    5     1.333e-01  
    6     5.787e-02  
    7     1.746e-02  
    8     3.081e-03  
    9     1.196e-03  
   10     2.061e-04  
   11     6.944e-05  
   12     1.113e-05  
   13     3.846e-06  
   14     1.187e-06  
   15     4.039e-07  Converged.
   ... Converged in 15 steps (norm: 4.03943e-07)
------------------------------------
  Starting TPA DIIS iterations ... 
------------------------------------ 
   It     Res. Norm  Remark
------------------------------------
                       Guess.
    1     6.159e+00  
    2     9.277e+00  
    3     1.588e+00  
    4     4.845e-01  
    5     1.325e-01  
    6     5.739e-02  
    7     1.715e-02  
    8     3.063e-03  
    9     1.187e-03  
   10     2.033e-04  
   11     6.823e-05  
   12     1.087e-05  
   13     3.824e-06  
   14     1.183e-06  
   15     3.885e-07  Converged.
   ... Converged in 15 steps (norm: 3.88476e-07)
------------------------------------
  Starting TPA DIIS iterations ... 
------------------------------------ 
   It     Res. Norm  Remark
------------------------------------
                       Guess.
    1     7.618e-01  
    2     5.985e-01  
    3     2.396e-01  
    4     1.267e-01  
    5     2.884e-02  
    6     1.189e-02  
    7     2.275e-03  
    8     1.135e-03  
    9     3.414e-04  
   10     4.048e-05  
   11     1.330e-05  
   12     4.708e-06  
   13     4.189e-06  
   14     1.745e-06  
   15     6.761e-07  Converged.
   ... Converged in 15 steps (norm: 6.7607e-07)
------------------------------------
  Starting TPA DIIS iterations ... 
------------------------------------ 
   It     Res. Norm  Remark
------------------------------------
                       Guess.
    1     8.382e+00  
    2     1.375e+01  
    3     2.194e+00  
    4     7.574e-01  
    5     2.094e-01  
    6     9.375e-02  
    7     2.776e-02  
    8     4.864e-03  
    9     1.943e-03  
   10     3.377e-04  
   11     1.168e-04  
   12     1.908e-05  
   13     6.769e-06  
   14     2.267e-06  
   15     7.824e-07  Converged.
   ... Converged in 15 steps (norm: 7.82427e-07)
------------------------------------
  Starting TPA DIIS iterations ... 
------------------------------------ 
   It     Res. Norm  Remark
------------------------------------
                       Guess.
    1     8.001e+00  
    2     1.311e+01  
    3     2.094e+00  
    4     7.407e-01  
    5     2.083e-01  
    6     9.310e-02  
    7     2.727e-02  
    8     4.837e-03  
    9     1.927e-03  
   10     3.329e-04  
   11     1.146e-04  
   12     1.866e-05  
   13     6.729e-06  
   14     2.292e-06  
   15     7.368e-07  Converged.
   ... Converged in 15 steps (norm: 7.36758e-07)
------------------------------------
  Starting TPA DIIS iterations ... 
------------------------------------ 
   It     Res. Norm  Remark
------------------------------------
                       Guess.
    1     8.091e-01  
    2     6.862e-01  
    3     2.972e-01  
    4     2.073e-01  
    5     3.937e-02  
    6     1.771e-02  
    7     3.830e-03  
    8     1.631e-03  
    9     5.283e-04  
   10     5.189e-05  
   11     2.314e-05  
   12     8.666e-06  
   13     8.954e-06  
   14     4.002e-06  
   15     1.850e-06  
   16     8.934e-07  Converged.
   ... Converged in 16 steps (norm: 8.93448e-07)
------------------------------------
  Starting TPA DIIS iterations ... 
------------------------------------ 
   It     Res. Norm  Remark
------------------------------------
                       Guess.
    1     1.025e+01  
    2     1.791e+01  
    3     2.693e+00  
    4     1.041e+00  
    5     2.920e-01  
    6     1.336e-01  
    7     3.894e-02  
    8     6.788e-03  
    9     2.769e-03  
   10     4.820e-04  
   11     1.667e-04  
   12     2.803e-05  
   13     9.895e-06  
   14     3.736e-06  
   15     1.300e-06  
   16     7.027e-07  Converged.
   ... Converged in 16 steps (norm: 7.02695e-07)
------------------------------------
  Starting TPA DIIS iterations ... 
------------------------------------ 
   It     Res. Norm  Remark
------------------------------------
                       Guess.
    1     9.780e+00  
    2     1.708e+01  
    3     2.569e+00  
    4     1.015e+00  
    5     2.906e-01  
    6     1.328e-01  
    7     3.825e-02  
    8     6.750e-03  
    9     2.745e-03  
   10     4.750e-04  
   11     1.636e-04  
   12     2.748e-05  
   13     9.839e-06  
   14     3.822e-06  
   15     1.210e-06  
   16     8.149e-07  Converged.
   ... Converged in 16 steps (norm: 8.1492e-07)
------------------------------------
  Starting TPA DIIS iterations ... 
------------------------------------ 
   It     Res. Norm  Remark
------------------------------------
                       Guess.
    1     8.446e-01  
    2     7.604e-01  
    3     3.487e-01  
    4     2.917e-01  
    5     5.049e-02  
    6     2.370e-02  
    7     5.590e-03  
    8     1.867e-03  
    9     6.902e-04  
   10     7.465e-05  
   11     3.528e-05  
   12     1.341e-05  
   13     1.467e-05  
   14     7.084e-06  
   15     3.780e-06  
   16     1.720e-06  
   17     7.410e-07  Converged.
   ... Converged in 17 steps (norm: 7.41045e-07)
------------------------------------
  Starting TPA DIIS iterations ... 
------------------------------------ 
   It     Res. Norm  Remark
------------------------------------
                       Guess.
    1     1.116e+01  
    2     2.003e+01  
    3     2.932e+00  
    4     1.188e+00  
    5     3.350e-01  
    6     1.547e-01  
    7     4.475e-02  
    8     7.784e-03  
    9     3.203e-03  
   10     5.572e-04  
   11     1.918e-04  
   12     3.285e-05  
   13     1.154e-05  
   14     4.607e-06  
   15     1.639e-06  
   16     9.388e-07  Converged.
   ... Converged in 16 steps (norm: 9.38845e-07)
------------------------------------
  Starting TPA DIIS iterations ... 
------------------------------------ 
   It     Res. Norm  Remark
------------------------------------
                       Guess.
    1     1.065e+01  
    2     1.910e+01  
    3     2.797e+00  
    4     1.156e+00  
    5     3.333e-01  
    6     1.538e-01  
    7     4.395e-02  
    8     7.741e-03  
    9     3.175e-03  
   10     5.491e-04  
   11     1.884e-04  
   12     3.224e-05  
   13     1.146e-05  
   14     4.735e-06  
   15     1.525e-06  
   16     1.098e-06  
   17     3.705e-07  Converged.
   ... Converged in 17 steps (norm: 3.70523e-07)
------------------------------------
  Starting TPA DIIS iterations ... 
------------------------------------ 
   It     Res. Norm  Remark
------------------------------------
                       Guess.
    1     8.594e-01  
    2     7.938e-01  
    3     3.725e-01  
    4     3.324e-01  
    5     5.615e-02  
    6     2.659e-02  
    7     6.501e-03  
    8     1.928e-03  
    9     7.649e-04  
   10     8.741e-05  
   11     4.204e-05  
   12     1.611e-05  
   13     1.774e-05  
   14     8.878e-06  
   15     4.963e-06  
   16     2.231e-06  
   17     1.038e-06  
   18     3.538e-07  Converged.
   ... Converged in 18 steps (norm: 3.53785e-07)
------------------------------------
  Starting TPA DIIS iterations ... 
------------------------------------ 
   It     Res. Norm  Remark
------------------------------------
                       Guess.
    1     1.188e+01  
    2     2.175e+01  
    3     3.119e+00  
    4     1.306e+00  
    5     3.701e-01  
    6     1.720e-01  
    7     4.950e-02  
    8     8.598e-03  
    9     3.560e-03  
   10     6.188e-04  
   11     2.120e-04  
   12     3.691e-05  
   13     1.294e-05  
   14     5.368e-06  
   15     1.959e-06  
   16     1.159e-06  
   17     2.875e-07  Converged.
   ... Converged in 17 steps (norm: 2.87475e-07)
------------------------------------
  Starting TPA DIIS iterations ... 
------------------------------------ 
   It     Res. Norm  Remark
------------------------------------
                       Guess.
    1     1.133e+01  
    2     2.074e+01  
    3     2.975e+00  
    4     1.271e+00  
    5     3.683e-01  
    6     1.711e-01  
    7     4.862e-02  
    8     8.550e-03  
    9     3.528e-03  
   10     6.097e-04  
   11     2.084e-04  
   12     3.625e-05  
   13     1.283e-05  
   14     5.537e-06  
   15     1.828e-06  
   16     1.364e-06  
   17     4.634e-07  Converged.
   ... Converged in 17 steps (norm: 4.63427e-07)
------------------------------------
  Starting TPA DIIS iterations ... 
------------------------------------ 
   It     Res. Norm  Remark
------------------------------------
                       Guess.
    1     8.702e-01  
    2     8.192e-01  
    3     3.908e-01  
    4     3.637e-01  
    5     6.071e-02  
    6     2.882e-02  
    7     7.240e-03  
    8     1.964e-03  
    9     8.227e-04  
   10     9.781e-05  
   11     4.776e-05  
   12     1.847e-05  
   13     2.034e-05  
   14     1.043e-05  
   15     6.004e-06  
   16     2.682e-06  
   17     1.305e-06  
   18     4.199e-07  Converged.
   ... Converged in 18 steps (norm: 4.19874e-07)
------------------------------------
  Two-photon absorbption ...  CPU 84.57 s  wall 20.99 s
  Transition density matrix of state singlet_A_1 printed to ASCII file 'State_singlet_A_1_Transition.txt'
  Transition density matrix of state singlet_A_2 printed to ASCII file 'State_singlet_A_2_Transition.txt'
  Transition density matrix of state singlet_A_3 printed to ASCII file 'State_singlet_A_3_Transition.txt'
  Transition density matrix of state singlet_A_4 printed to ASCII file 'State_singlet_A_4_Transition.txt'
  Transition density matrix of state singlet_A_5 printed to ASCII file 'State_singlet_A_5_Transition.txt'
  Transition density matrix of state singlet_A_6 printed to ASCII file 'State_singlet_A_6_Transition.txt'
  Transition density matrix of state singlet_A_7 printed to ASCII file 'State_singlet_A_7_Transition.txt'
  Transition density matrix of state singlet_A_8 printed to ASCII file 'State_singlet_A_8_Transition.txt'
  Transition density matrix of state singlet_A_9 printed to ASCII file 'State_singlet_A_9_Transition.txt'
  Transition density matrix of state singlet_A_10 printed to ASCII file 'State_singlet_A_10_Transition.txt'
  Transition properties ...  CPU 0.14 s  wall 0.33 s
  Difference density matrix of state singlet_A_1 printed to ASCII file 'State_singlet_A_1_Difference.txt'
  Total density matrix of state singlet_A_1 printed to ASCII file 'State_singlet_A_1_Total.txt'
  Difference density matrix of state singlet_A_2 printed to ASCII file 'State_singlet_A_2_Difference.txt'
  Total density matrix of state singlet_A_2 printed to ASCII file 'State_singlet_A_2_Total.txt'
  Difference density matrix of state singlet_A_3 printed to ASCII file 'State_singlet_A_3_Difference.txt'
  Total density matrix of state singlet_A_3 printed to ASCII file 'State_singlet_A_3_Total.txt'
  Difference density matrix of state singlet_A_4 printed to ASCII file 'State_singlet_A_4_Difference.txt'
  Total density matrix of state singlet_A_4 printed to ASCII file 'State_singlet_A_4_Total.txt'
  Difference density matrix of state singlet_A_5 printed to ASCII file 'State_singlet_A_5_Difference.txt'
  Total density matrix of state singlet_A_5 printed to ASCII file 'State_singlet_A_5_Total.txt'
  Difference density matrix of state singlet_A_6 printed to ASCII file 'State_singlet_A_6_Difference.txt'
  Total density matrix of state singlet_A_6 printed to ASCII file 'State_singlet_A_6_Total.txt'
  Difference density matrix of state singlet_A_7 printed to ASCII file 'State_singlet_A_7_Difference.txt'
  Total density matrix of state singlet_A_7 printed to ASCII file 'State_singlet_A_7_Total.txt'
  Difference density matrix of state singlet_A_8 printed to ASCII file 'State_singlet_A_8_Difference.txt'
  Total density matrix of state singlet_A_8 printed to ASCII file 'State_singlet_A_8_Total.txt'
  Difference density matrix of state singlet_A_9 printed to ASCII file 'State_singlet_A_9_Difference.txt'
  Total density matrix of state singlet_A_9 printed to ASCII file 'State_singlet_A_9_Total.txt'
  Difference density matrix of state singlet_A_10 printed to ASCII file 'State_singlet_A_10_Difference.txt'
  Total density matrix of state singlet_A_10 printed to ASCII file 'State_singlet_A_10_Total.txt'
  Properties ...  CPU 0.24 s  wall 0.53 s
  ISR TDMS ...  CPU 15.73 s  wall 4.44 s
  ISR transition properties ...  CPU 0.29 s  wall 0.10 s
  Sum-over-states TPA ...  CPU 0.00 s  wall 0.00 s

--------------------------------------------------------------------------------
                   State-averaged natural transition orbitals
--------------------------------------------------------------------------------
--------------------------------------------------------------------------------
  SA-NTO decomposition ...  CPU 0.01 s  wall 0.02 s

--------------------------------------------------------------------------------
                             Excited State Summary
--------------------------------------------------------------------------------
--------------------------------------------------------------------------------

  Excited state 1 (singlet, A)                                     [converged]
  ----------------------------------------------------------------------------
  Term symbol:  2 (1) A                                     R^2 =  6.31916e-13

  Total energy:                                            -77.9973322421 a.u.
  Excitation energy:                                               8.768740 eV

  Osc. strength:                                                      0.447240
  Trans. dip. moment [a.u.]:           [   1.044740,   -0.995121,   -0.009063]
  <i|r^2|0> [a.u.]:                    [   6.165763,   -0.245691,   -0.000479]
  Two-photon absorption cross-section (SoS) [a.u.]:                   0.000580
  Two-photon absorption matrix (SoS) [a.u.]:
                                       |   -0.002643   -0.006311   -0.001190 |
                                       |   -0.006311    0.000935   -0.000540 |
                                       |   -0.001190   -0.000540    0.006517 |
  Two-photon absorption cross-section [a.u.]:                         0.000462
  Two-photon absorption matrix [a.u.]:
                                       |   -0.002874   -0.004642    0.000363 |
                                       |   -0.004642    0.000443    0.001535 |
                                       |    0.000363    0.001535    0.006978 |

  Dip. moment [a.u.]:                  [  -0.000959,    0.000057,    0.000357]
  Total dipole [Debye]:                                               0.002605
  <r^2> [a.u.]:                        [ 176.360483,   35.647092,   11.867918]
  Total <r^2> [a.u.]:                                               223.875493

  V1^2 = 0.9715, V2^2 = 0.0285

  Important amplitudes:
      occ i     occ j     vir a      vir b          v   
    -----------------------------------------------------
     8 (A) A              9 (A) A                -0.6811
     6 (A) A             14 (A) A                 0.0615
     4 (A) A             10 (A) A                -0.0610
     7 (A) A             16 (A) A                -0.0572
     5 (A) A             13 (A) A                -0.0516
     6 (A) A             23 (A) A                 0.0485
     8 (A) A             20 (A) A                 0.0348
     6 (A) A             19 (A) A                 0.0302
     3 (A) A             12 (A) A                 0.0281
     5 (A) A             22 (A) A                -0.0216
     7 (A) A             11 (A) A                 0.0205
     4 (A) A             24 (A) A                -0.0188
     3 (A) A             26 (A) A                 0.0186
     8 (A) A   8 (A) B   17 (A) A   20 (A) B     -0.0183
     8 (A) A   8 (A) B    9 (A) A   28 (A) B      0.0168
     6 (A) A             26 (A) A                -0.0164
     7 (A) A             21 (A) A                -0.0149
     6 (A) A             12 (A) A                 0.0139
     3 (A) A             14 (A) A                -0.0139
     3 (A) A   4 (A) B    9 (A) A    9 (A) B      0.0129
     3 (A) A             19 (A) A                -0.0118
     8 (A) A   8 (A) B   18 (A) A   19 (A) B      0.0112
     7 (A) A             32 (A) A                -0.0096
     7 (A) A             36 (A) A                 0.0086
     3 (A) A             23 (A) A                -0.0080
     8 (A) A   8 (A) B   25 (A) A   29 (A) B      0.0076
     6 (A) A             35 (A) A                 0.0073
     6 (A) A             40 (A) A                -0.0068
     3 (A) A   6 (A) B    9 (A) A   28 (A) B     -0.0065
     6 (A) A   8 (A) A   19 (A) A   28 (A) A      0.0060
     5 (A) A   7 (A) B    9 (A) A    9 (A) B      0.0060
     5 (A) A   8 (A) B   11 (A) A    9 (A) B      0.0060
     5 (A) A   8 (A) B   11 (A) A   20 (A) B      0.0059
     7 (A) A   8 (A) B   13 (A) A   20 (A) B     -0.0059
     5 (A) A   8 (A) B   16 (A) A    9 (A) B      0.0059
     3 (A) A   5 (A) B    9 (A) A   25 (A) B      0.0058
     3 (A) A             40 (A) A                 0.0057
     7 (A) A   8 (A) B   22 (A) A   20 (A) B     -0.0057
     6 (A) A   8 (A) A    9 (A) A   18 (A) A     -0.0056
     8 (A) A   8 (A) B   19 (A) A   30 (A) B      0.0056
    -----------------------------------------------------

  Density matrix analysis:
  ------------------------
  NOs
    Occupation of frontier NOs:
       0.9496   1.0217
    Number of electrons: 16.000000
    Number of unpaired electrons: n_u =  2.31327, n_u,nl =  2.03253
    NO participation ratio (PR_NO):  2.863541
  
  
  Mulliken Population Analysis
  Atom      Charge (e)              h+              e-           Del q
  --------------------------------------------------------------------
   1 H        0.059408        0.020445       -0.012542        0.007903
   2 C       -0.117816        0.491092       -0.506762       -0.015669
   3 H        0.057932        0.020342       -0.012571        0.007771
   4 C       -0.115473        0.491011       -0.506721       -0.015710
   5 H        0.057883        0.020380       -0.012552        0.007828
   6 H        0.058067        0.020433       -0.012556        0.007878
  --------------------------------------------------------------------
  Sum:        0.000000        1.063704       -1.063704       -0.000000
  
  Multipole moment analysis of the density matrix
    Molecular charge:                      0.000000
    Number of electrons:                   16.000000
      Center of electronic charge [Ang]: [ -1.562420,  -0.065604,   0.001966]
    Total nuclear charge:                  16.000000
      Center of nuclear charge [Ang]:    [ -1.562451,  -0.065602,   0.001978]
    Dipole moment [D]:                     0.002605
      Cartesian components [D]:          [ -0.002438,   0.000144,   0.000908]
    RMS size of the density [Ang]:         1.213572
      Cartesian components [Ang]:        [  0.803410,   0.787136,   0.455748]
  
  Exciton analysis of the difference density matrix
    <r_h> [Ang]:                  [ -1.562515,  -0.065749,   0.001796]
    <r_e> [Ang]:                  [ -1.562573,  -0.065739,   0.001755]
    |<r_e - r_h>| [Ang]:            0.000072
    Hole size [Ang]:                1.284976
      Cartesian components [Ang]: [  0.727647,   0.713040,   0.783113]
    Electron size [Ang]:            1.463334
      Cartesian components [Ang]: [  0.852801,   0.831568,   0.850043]

  Transition density matrix analysis:
  -----------------------------------
  
  CT numbers (Mulliken)
    omega =     0.9535
    <Phe> =    -0.1597
  
  Exciton analysis of the transition density matrix
    Trans. dipole moment [D]:             1.833685
      Cartesian components [D]:         [  1.327732,  -1.264672,  -0.011517]
    <r_h> [Ang]:                        [ -1.562585,  -0.065793,   0.001820]
    <r_e> [Ang]:                        [ -1.562549,  -0.065726,   0.001731]
    |<r_e - r_h>| [Ang]:                  0.000117
    Hole size [Ang]:                      1.212771
      Cartesian components [Ang]:       [  0.648001,   0.636037,   0.803968]
    Electron size [Ang]:                  1.486652
      Cartesian components [Ang]:       [  0.863422,   0.840744,   0.870508]
    RMS electron-hole separation [Ang]:   1.935696
      Cartesian components [Ang]:       [  1.104139,   1.075808,   1.170654]
    Covariance(r_h, r_e) [Ang^2]:        -0.032985
    Correlation coefficient:             -0.018295
    Center-of-mass size [Ang]:            0.950655
      Cartesian components [Ang]:       [  0.527182,   0.516097,   0.599556]

  Decomposition into state-averaged NTOs
    H- 0 -> L+ 0:  0.6700 ( 89.8%)
    H- 2 -> L+ 5:  0.0829 (  1.4%)
                   omega =  95.4%
  ----------------------------------------------------------------------------


  Excited state 2 (singlet, A)                                     [converged]
  ----------------------------------------------------------------------------
  Term symbol:  3 (1) A                                     R^2 =  5.33883e-13

  Total energy:                                            -77.9868788282 a.u.
  Excitation energy:                                               9.053192 eV

  Osc. strength:                                                      0.000014
  Trans. dip. moment [a.u.]:           [   0.003670,   -0.003144,   -0.006357]
  <i|r^2|0> [a.u.]:                    [  -0.044760,   -0.084693,    0.150365]
  Two-photon absorption cross-section (SoS) [a.u.]:                   4.823268
  Two-photon absorption matrix (SoS) [a.u.]:
                                       |   -0.053670   -0.058436    0.543329 |
                                       |   -0.058436   -0.063338    0.542252 |
                                       |    0.543329    0.542252    0.116653 |
  Two-photon absorption cross-section [a.u.]:                         0.081217
  Two-photon absorption matrix [a.u.]:
                                       |    0.002094    0.007328   -0.075708 |
                                       |    0.007328    0.012823   -0.064586 |
                                       |   -0.075708   -0.064586   -0.014904 |

  Dip. moment [a.u.]:                  [  -0.005122,   -0.007659,    0.000031]
  Total dipole [Debye]:                                               0.023419
  <r^2> [a.u.]:                        [ 174.694570,   34.017604,   13.170286]
  Total <r^2> [a.u.]:                                               221.882460

  V1^2 = 0.9543, V2^2 = 0.0457

  Important amplitudes:
      occ i     occ j     vir a      vir b          v   
    -----------------------------------------------------
     7 (A) A              9 (A) A                 0.6692
     8 (A) A             11 (A) A                -0.1482
     7 (A) A             20 (A) A                -0.0759
     5 (A) A   8 (A) B    9 (A) A    9 (A) B     -0.0315
     8 (A) A             16 (A) A                -0.0274
     8 (A) A             21 (A) A                 0.0175
     5 (A) A             28 (A) A                -0.0151
     4 (A) A   7 (A) B    9 (A) A   19 (A) B     -0.0135
     5 (A) A   7 (A) B    9 (A) A   16 (A) B      0.0134
     8 (A) A             10 (A) A                 0.0116
     7 (A) A   8 (A) B   20 (A) A   17 (A) B      0.0105
     7 (A) A   8 (A) A    9 (A) A   28 (A) A      0.0098
     5 (A) A   8 (A) B    9 (A) A   20 (A) B      0.0095
     4 (A) A   6 (A) B    9 (A) A   16 (A) B      0.0091
     5 (A) A   6 (A) A    9 (A) A   23 (A) A     -0.0091
     5 (A) A   6 (A) A    9 (A) A   14 (A) A     -0.0088
     5 (A) A   6 (A) B    9 (A) A   19 (A) B     -0.0086
     8 (A) A   7 (A) B    9 (A) A   28 (A) B     -0.0085
     4 (A) A   5 (A) A    9 (A) A   10 (A) A     -0.0085
     6 (A) A   7 (A) B    9 (A) A   18 (A) B      0.0084
     5 (A) A   6 (A) B    9 (A) A   23 (A) B     -0.0080
     3 (A) A   7 (A) B    9 (A) A   18 (A) B      0.0080
     5 (A) A   7 (A) A    9 (A) A   16 (A) A      0.0079
     4 (A) A   8 (A) B    9 (A) A   25 (A) B     -0.0077
     4 (A) A   7 (A) B   19 (A) A    9 (A) B     -0.0074
     7 (A) A   8 (A) B   17 (A) A   20 (A) B      0.0074
     5 (A) A   5 (A) B    9 (A) A   13 (A) B      0.0072
     7 (A) A   8 (A) B   19 (A) A   18 (A) B     -0.0072
     5 (A) A   8 (A) A    9 (A) A   20 (A) A      0.0069
     4 (A) A   5 (A) B    9 (A) A   18 (A) B      0.0068
     7 (A) A   7 (A) B   20 (A) A   22 (A) B      0.0065
     7 (A) A   8 (A) B   17 (A) A    9 (A) B     -0.0064
     5 (A) A   6 (A) B    9 (A) A   14 (A) B     -0.0062
     4 (A) A   7 (A) A    9 (A) A   19 (A) A     -0.0061
     4 (A) A   5 (A) B   10 (A) A    9 (A) B      0.0061
     5 (A) A   7 (A) B   11 (A) A   20 (A) B     -0.0061
     4 (A) A   7 (A) B    9 (A) A   14 (A) B      0.0060
     5 (A) A             38 (A) A                -0.0059
     4 (A) A   8 (A) A    9 (A) A   25 (A) A     -0.0057
     6 (A) A   7 (A) A   19 (A) A   28 (A) A     -0.0056
    -----------------------------------------------------

  Density matrix analysis:
  ------------------------
  NOs
    Occupation of frontier NOs:
       0.9576   1.0538
    Number of electrons: 16.000000
    Number of unpaired electrons: n_u =  2.35492, n_u,nl =  2.06277
    NO participation ratio (PR_NO):  3.027604
  
  
  Mulliken Population Analysis
  Atom      Charge (e)              h+              e-           Del q
  --------------------------------------------------------------------
   1 H        0.151203        0.126437       -0.026738        0.099698
   2 C       -0.303315        0.272124       -0.473292       -0.201168
   3 H        0.152271        0.124393       -0.022284        0.102109
   4 C       -0.301355        0.271362       -0.472954       -0.201592
   5 H        0.149209        0.125272       -0.026119        0.099154
   6 H        0.151988        0.124484       -0.022686        0.101798
  --------------------------------------------------------------------
  Sum:        0.000000        1.044072       -1.044072       -0.000000
  
  Multipole moment analysis of the density matrix
    Molecular charge:                      0.000000
    Number of electrons:                   16.000000
      Center of electronic charge [Ang]: [ -1.562282,  -0.065349,   0.001977]
    Total nuclear charge:                  16.000000
      Center of nuclear charge [Ang]:    [ -1.562451,  -0.065602,   0.001978]
    Dipole moment [D]:                     0.023419
      Cartesian components [D]:          [ -0.013019,  -0.019466,   0.000079]
    RMS size of the density [Ang]:         1.199308
      Cartesian components [Ang]:        [  0.785329,   0.768829,   0.480104]
  
  Exciton analysis of the difference density matrix
    <r_h> [Ang]:                  [ -1.559014,  -0.064494,   0.002242]
    <r_e> [Ang]:                  [ -1.556963,  -0.060573,   0.002365]
    |<r_e - r_h>| [Ang]:            0.004426
    Hole size [Ang]:                1.486632
      Cartesian components [Ang]: [  1.008001,   0.993675,   0.454555]
    Electron size [Ang]:            1.477157
      Cartesian components [Ang]: [  0.881673,   0.858696,   0.816876]

  Transition density matrix analysis:
  -----------------------------------
  
  CT numbers (Mulliken)
    omega =     0.9220
    <Phe> =    -0.0120
  
  Exciton analysis of the transition density matrix
    Trans. dipole moment [D]:             0.010148
      Cartesian components [D]:         [  0.004663,  -0.003996,  -0.008079]
    <r_h> [Ang]:                        [ -1.558850,  -0.064611,   0.002287]
    <r_e> [Ang]:                        [ -1.556805,  -0.060172,   0.002348]
    |<r_e - r_h>| [Ang]:                  0.004888
    Hole size [Ang]:                      1.515431
      Cartesian components [Ang]:       [  1.031697,   1.017215,   0.444303]
    Electron size [Ang]:                  1.474201
      Cartesian components [Ang]:       [  0.872001,   0.848233,   0.832698]
    RMS electron-hole separation [Ang]:   2.094371
      Cartesian components [Ang]:       [  1.334953,   1.309546,   0.943070]
    Covariance(r_h, r_e) [Ang^2]:         0.041717
    Correlation coefficient:              0.018673
    Center-of-mass size [Ang]:            1.066915
      Cartesian components [Ang]:       [  0.683278,   0.669619,   0.472282]

  Decomposition into state-averaged NTOs
    H- 1 -> L+ 0:  0.6616 ( 87.5%)
    H- 0 -> L+ 2: -0.1483 (  4.4%)
                   omega =  92.2%
  ----------------------------------------------------------------------------


  Excited state 3 (singlet, A)                                     [converged]
  ----------------------------------------------------------------------------
  Term symbol:  4 (1) A                                     R^2 =  6.30004e-13

  Total energy:                                            -77.9819931998 a.u.
  Excitation energy:                                               9.186136 eV

  Osc. strength:                                                      0.025073
  Trans. dip. moment [a.u.]:           [   0.014828,    0.020680,   -0.332806]
  <i|r^2|0> [a.u.]:                    [   0.089920,    0.004634,    0.000263]
  Two-photon absorption cross-section (SoS) [a.u.]:                   0.001416
  Two-photon absorption matrix (SoS) [a.u.]:
                                       |    0.010996    0.000097    0.006067 |
                                       |    0.000097   -0.011202    0.002456 |
                                       |    0.006067    0.002456    0.003885 |
  Two-photon absorption cross-section [a.u.]:                         0.001672
  Two-photon absorption matrix [a.u.]:
                                       |    0.008828   -0.000874    0.007271 |
                                       |   -0.000874   -0.007879    0.008597 |
                                       |    0.007271    0.008597    0.003575 |

  Dip. moment [a.u.]:                  [  -0.030620,   -0.003435,   -0.002086]
  Total dipole [Debye]:                                               0.078495
  <r^2> [a.u.]:                        [ 180.942063,   40.581592,   11.025270]
  Total <r^2> [a.u.]:                                               232.548925

  V1^2 = 0.9587, V2^2 = 0.0413

  Important amplitudes:
      occ i     occ j     vir a      vir b          v   
    -----------------------------------------------------
     8 (A) A             10 (A) A                 0.6890
     8 (A) A             24 (A) A                 0.0508
     8 (A) A             18 (A) A                -0.0313
     4 (A) A              9 (A) A                 0.0238
     8 (A) A   8 (A) B    9 (A) A   12 (A) B     -0.0219
     8 (A) A   8 (A) B   10 (A) A   17 (A) B      0.0173
     8 (A) A             15 (A) A                 0.0166
     5 (A) A   8 (A) B   11 (A) A   10 (A) B     -0.0166
     7 (A) A   8 (A) B   13 (A) A   10 (A) B      0.0141
     7 (A) A              9 (A) A                -0.0121
     4 (A) A   8 (A) B   12 (A) A   10 (A) B     -0.0111
     6 (A) A   8 (A) A   10 (A) A   15 (A) A      0.0111
     7 (A) A   8 (A) B   22 (A) A   10 (A) B      0.0108
     6 (A) A   8 (A) B   15 (A) A   10 (A) B     -0.0108
     4 (A) A   8 (A) A   10 (A) A   12 (A) A      0.0106
     7 (A) A   8 (A) A   10 (A) A   22 (A) A     -0.0099
     7 (A) A   8 (A) A   10 (A) A   13 (A) A     -0.0098
     5 (A) A   8 (A) A   10 (A) A   11 (A) A      0.0095
     5 (A) A   8 (A) B   21 (A) A   10 (A) B      0.0094
     6 (A) A   8 (A) B   10 (A) A   10 (A) B      0.0087
     6 (A) A   8 (A) A   10 (A) A   18 (A) A      0.0087
     7 (A) A   8 (A) A   12 (A) A   16 (A) A     -0.0082
     5 (A) A   8 (A) A   10 (A) A   21 (A) A     -0.0080
     3 (A) A   4 (A) B   10 (A) A    9 (A) B     -0.0079
     4 (A) A   8 (A) B   19 (A) A   10 (A) B      0.0075
     8 (A) A   8 (A) B    9 (A) A   23 (A) B     -0.0074
     8 (A) A   8 (A) B   10 (A) A   28 (A) B     -0.0073
     3 (A) A   8 (A) B   10 (A) A   10 (A) B      0.0072
     5 (A) A   8 (A) B   10 (A) A   11 (A) B     -0.0071
     3 (A) A   8 (A) A   10 (A) A   24 (A) A     -0.0071
     7 (A) A   8 (A) B   16 (A) A   12 (A) B      0.0071
     3 (A) A   8 (A) B   10 (A) A   18 (A) B     -0.0069
     8 (A) A   8 (A) B    9 (A) A   19 (A) B      0.0068
     6 (A) A   8 (A) B   18 (A) A   10 (A) B     -0.0066
     3 (A) A   6 (A) B   10 (A) A   28 (A) B      0.0062
     7 (A) A   8 (A) B   12 (A) A   11 (A) B      0.0058
     6 (A) A             28 (A) A                -0.0057
     3 (A) A   5 (A) B   10 (A) A   25 (A) B     -0.0056
     5 (A) A   8 (A) A   10 (A) A   16 (A) A      0.0056
     3 (A) A   8 (A) A   10 (A) A   18 (A) A     -0.0056
    -----------------------------------------------------

  Density matrix analysis:
  ------------------------
  NOs
    Occupation of frontier NOs:
       0.9818   0.9848
    Number of electrons: 16.000000
    Number of unpaired electrons: n_u =  2.28581, n_u,nl =  2.02451
    NO participation ratio (PR_NO):  2.692941
  
  
  Mulliken Population Analysis
  Atom      Charge (e)              h+              e-           Del q
  --------------------------------------------------------------------
   1 H       -0.166873        0.053914       -0.272292       -0.218377
   2 C        0.326242        0.539268       -0.110880        0.428389
   3 H       -0.163223        0.054073       -0.267457       -0.213385
   4 C        0.327009        0.536747       -0.109975        0.426772
   5 H       -0.164205        0.053854       -0.268114       -0.214260
   6 H       -0.158950        0.054294       -0.263432       -0.209139
  --------------------------------------------------------------------
  Sum:        0.000000        1.292150       -1.292150       -0.000000
  
  Multipole moment analysis of the density matrix
    Molecular charge:                      -0.000000
    Number of electrons:                   16.000000
      Center of electronic charge [Ang]: [ -1.561439,  -0.065489,   0.002047]
    Total nuclear charge:                  16.000000
      Center of nuclear charge [Ang]:    [ -1.562451,  -0.065602,   0.001978]
    Dipole moment [D]:                     0.078495
      Cartesian components [D]:          [ -0.077827,  -0.008732,  -0.005303]
    RMS size of the density [Ang]:         1.275789
      Cartesian components [Ang]:        [  0.853650,   0.840215,   0.439269]
  
  Exciton analysis of the difference density matrix
    <r_h> [Ang]:                  [ -1.561551,  -0.066511,   0.001868]
    <r_e> [Ang]:                  [ -1.549452,  -0.065073,   0.002834]
    |<r_e - r_h>| [Ang]:            0.012222
    Hole size [Ang]:                1.409522
      Cartesian components [Ang]: [  0.833274,   0.819805,   0.787609]
    Electron size [Ang]:            2.075551
      Cartesian components [Ang]: [  1.373995,   1.375631,   0.726423]

  Transition density matrix analysis:
  -----------------------------------
  
  CT numbers (Mulliken)
    omega =     0.9260
    <Phe> =    -0.0108
  
  Exciton analysis of the transition density matrix
    Trans. dipole moment [D]:             0.424189
      Cartesian components [D]:         [  0.018844,   0.026282,  -0.422955]
    <r_h> [Ang]:                        [ -1.563065,  -0.066538,   0.001706]
    <r_e> [Ang]:                        [ -1.545142,  -0.064945,   0.003127]
    |<r_e - r_h>| [Ang]:                  0.018049
    Hole size [Ang]:                      1.211505
      Cartesian components [Ang]:       [  0.634767,   0.623290,   0.822389]
    Electron size [Ang]:                  2.296144
      Cartesian components [Ang]:       [  1.519132,   1.522943,   0.803217]
    RMS electron-hole separation [Ang]:   2.586371
      Cartesian components [Ang]:       [  1.639097,   1.638590,   1.147911]
    Covariance(r_h, r_e) [Ang^2]:         0.025516
    Correlation coefficient:              0.009173
    Center-of-mass size [Ang]:            1.302982
      Cartesian components [Ang]:       [  0.826902,   0.826244,   0.575601]

  Decomposition into state-averaged NTOs
    H- 0 -> L+ 1:  0.6796 ( 92.4%)
                   omega =  92.6%
  ----------------------------------------------------------------------------


  Excited state 4 (singlet, A)                                     [converged]
  ----------------------------------------------------------------------------
  Term symbol:  5 (1) A                                     R^2 =  3.67871e-13

  Total energy:                                            -77.9581581595 a.u.
  Excitation energy:                                               9.834721 eV

  Osc. strength:                                                      0.000007
  Trans. dip. moment [a.u.]:           [   0.001473,   -0.000893,   -0.005250]
  <i|r^2|0> [a.u.]:                    [   0.025658,    0.018724,   -0.035867]
  Two-photon absorption cross-section (SoS) [a.u.]:                 147.194160
  Two-photon absorption matrix (SoS) [a.u.]:
                                       |    0.291725    0.322166   -2.991092 |
                                       |    0.322166    0.353068   -3.006044 |
                                       |   -2.991092   -3.006044   -0.644463 |
  Two-photon absorption cross-section [a.u.]:                        89.771482
  Two-photon absorption matrix [a.u.]:
                                       |    0.232534    0.251962   -2.343172 |
                                       |    0.251962    0.270990   -2.340335 |
                                       |   -2.343172   -2.340335   -0.503132 |

  Dip. moment [a.u.]:                  [   0.021966,    0.034351,    0.002627]
  Total dipole [Debye]:                                               0.103850
  <r^2> [a.u.]:                        [ 181.731225,   40.452417,   10.758554]
  Total <r^2> [a.u.]:                                               232.942197

  V1^2 = 0.9635, V2^2 = 0.0365

  Important amplitudes:
      occ i     occ j     vir a      vir b          v   
    -----------------------------------------------------
     8 (A) A             11 (A) A                 0.6697
     7 (A) A              9 (A) A                 0.1502
     8 (A) A             21 (A) A                -0.0781
     8 (A) A             16 (A) A                 0.0650
     8 (A) A   8 (A) B    9 (A) A   13 (A) B     -0.0166
     5 (A) A   8 (A) B   11 (A) A   11 (A) B     -0.0156
     8 (A) A   8 (A) B   11 (A) A   17 (A) B      0.0140
     7 (A) A             20 (A) A                -0.0137
     7 (A) A   8 (A) B   13 (A) A   11 (A) B      0.0128
     8 (A) A             12 (A) A                -0.0114
     5 (A) A   8 (A) A   11 (A) A   21 (A) A     -0.0110
     4 (A) A   8 (A) B   12 (A) A   11 (A) B     -0.0110
     8 (A) A   8 (A) B    9 (A) A   22 (A) B     -0.0107
     7 (A) A   8 (A) A   11 (A) A   22 (A) A     -0.0096
     6 (A) A   8 (A) B   15 (A) A   11 (A) B     -0.0090
     6 (A) A   8 (A) B   10 (A) A   11 (A) B      0.0090
     7 (A) A   8 (A) B   22 (A) A   11 (A) B      0.0089
     3 (A) A   4 (A) B   11 (A) A    9 (A) B     -0.0083
     3 (A) A   8 (A) B   11 (A) A   18 (A) B     -0.0081
     6 (A) A   8 (A) A   11 (A) A   15 (A) A      0.0080
     7 (A) A   8 (A) A   13 (A) A   16 (A) A     -0.0078
     7 (A) A   8 (A) A   11 (A) A   13 (A) A     -0.0077
     5 (A) A   8 (A) B   21 (A) A   11 (A) B      0.0071
     4 (A) A   8 (A) B   19 (A) A   11 (A) B      0.0070
     5 (A) A   8 (A) B    9 (A) A    9 (A) B     -0.0067
     4 (A) A   8 (A) A   11 (A) A   12 (A) A      0.0062
     6 (A) A   8 (A) A   11 (A) A   18 (A) A      0.0061
     3 (A) A   6 (A) B   11 (A) A   28 (A) B      0.0060
     6 (A) A   8 (A) B   18 (A) A   11 (A) B     -0.0059
     7 (A) A   8 (A) B   16 (A) A   13 (A) B      0.0057
     3 (A) A   8 (A) A   11 (A) A   18 (A) A     -0.0056
     5 (A) A   8 (A) B   10 (A) A   10 (A) B     -0.0056
     3 (A) A   8 (A) B   11 (A) A   30 (A) B     -0.0055
     3 (A) A   5 (A) B   11 (A) A   25 (A) B     -0.0055
     6 (A) A   8 (A) B   11 (A) A   10 (A) B      0.0054
     7 (A) A   8 (A) B   12 (A) A   10 (A) B      0.0054
     8 (A) A   8 (A) B   20 (A) A   22 (A) B      0.0053
     3 (A) A   8 (A) A   11 (A) A   24 (A) A     -0.0053
     5 (A) A   8 (A) A   11 (A) A   16 (A) A      0.0049
     6 (A) A   8 (A) A   10 (A) A   16 (A) A     -0.0048
    -----------------------------------------------------

  Density matrix analysis:
  ------------------------
  NOs
    Occupation of frontier NOs:
       0.9409   1.0278
    Number of electrons: 16.000000
    Number of unpaired electrons: n_u =  2.31889, n_u,nl =  2.04897
    NO participation ratio (PR_NO):  2.913362
  
  
  Mulliken Population Analysis
  Atom      Charge (e)              h+              e-           Del q
  --------------------------------------------------------------------
   1 H       -0.140494        0.046018       -0.238017       -0.191998
   2 C        0.272150        0.497510       -0.123212        0.374297
   3 H       -0.133395        0.046737       -0.230293       -0.183556
   4 C        0.274206        0.496667       -0.122698        0.373969
   5 H       -0.121010        0.046690       -0.217754       -0.171064
   6 H       -0.151458        0.046119       -0.247766       -0.201647
  --------------------------------------------------------------------
  Sum:        0.000000        1.179740       -1.179740       -0.000000
  
  Multipole moment analysis of the density matrix
    Molecular charge:                      0.000000
    Number of electrons:                   16.000000
      Center of electronic charge [Ang]: [ -1.563178,  -0.066738,   0.001891]
    Total nuclear charge:                  16.000000
      Center of nuclear charge [Ang]:    [ -1.562451,  -0.065602,   0.001978]
    Dipole moment [D]:                     0.103850
      Cartesian components [D]:          [  0.055831,   0.087311,   0.006676]
    RMS size of the density [Ang]:         1.276292
      Cartesian components [Ang]:        [  0.858543,   0.838770,   0.433924]
  
  Exciton analysis of the difference density matrix
    <r_h> [Ang]:                  [ -1.562971,  -0.066777,   0.001769]
    <r_e> [Ang]:                  [ -1.573306,  -0.082151,   0.000714]
    |<r_e - r_h>| [Ang]:            0.018555
    Hole size [Ang]:                1.393614
      Cartesian components [Ang]: [  0.818134,   0.805337,   0.790095]
    Electron size [Ang]:            2.121723
      Cartesian components [Ang]: [  1.445773,   1.397127,   0.677853]

  Transition density matrix analysis:
  -----------------------------------
  
  CT numbers (Mulliken)
    omega =     0.9299
    <Phe> =    -0.0137
  
  Exciton analysis of the transition density matrix
    Trans. dipole moment [D]:             0.007022
      Cartesian components [D]:         [  0.001872,  -0.001134,  -0.006672]
    <r_h> [Ang]:                        [ -1.562501,  -0.065723,   0.001795]
    <r_e> [Ang]:                        [ -1.575242,  -0.085348,   0.000480]
    |<r_e - r_h>| [Ang]:                  0.023435
    Hole size [Ang]:                      1.226530
      Cartesian components [Ang]:       [  0.657541,   0.648549,   0.807093]
    Electron size [Ang]:                  2.259694
      Cartesian components [Ang]:       [  1.540814,   1.487839,   0.720030]
    RMS electron-hole separation [Ang]:   2.560542
      Cartesian components [Ang]:       [  1.666719,   1.615427,   1.081120]
    Covariance(r_h, r_e) [Ang^2]:         0.027382
    Correlation coefficient:              0.009880
    Center-of-mass size [Ang]:            1.290868
      Cartesian components [Ang]:       [  0.841895,   0.815375,   0.541033]

  Decomposition into state-averaged NTOs
    H- 0 -> L+ 2:  0.6648 ( 88.4%)
    H- 1 -> L+ 0:  0.1482 (  4.4%)
                   omega =  93.0%
  ----------------------------------------------------------------------------


  Excited state 5 (singlet, A)                                     [converged]
  ----------------------------------------------------------------------------
  Term symbol:  6 (1) A                                     R^2 =  2.35972e-13

  Total energy:                                            -77.9434156248 a.u.
  Excitation energy:                                              10.235885 eV

  Osc. strength:                                                      0.000001
  Trans. dip. moment [a.u.]:           [   0.000206,    0.000314,   -0.001489]
  <i|r^2|0> [a.u.]:                    [   0.086811,   -0.103259,    0.018131]
  Two-photon absorption cross-section (SoS) [a.u.]:                 192.425706
  Two-photon absorption matrix (SoS) [a.u.]:
                                       |    0.333403    0.038397   -3.460050 |
                                       |    0.038397   -0.405582    3.455216 |
                                       |   -3.460050    3.455216    0.082729 |
  Two-photon absorption cross-section [a.u.]:                        90.485059
  Two-photon absorption matrix [a.u.]:
                                       |    0.231412    0.027938   -2.366298 |
                                       |    0.027938   -0.275020    2.375754 |
                                       |   -2.366298    2.375754    0.057231 |

  Dip. moment [a.u.]:                  [   0.009064,   -0.015170,   -0.000364]
  Total dipole [Debye]:                                               0.044927
  <r^2> [a.u.]:                        [ 179.002420,   38.639037,   11.834961]
  Total <r^2> [a.u.]:                                               229.476419

  V1^2 = 0.9569, V2^2 = 0.0431

  Important amplitudes:
      occ i     occ j     vir a      vir b          v   
    -----------------------------------------------------
[...]
    16   -1.446143925013e-03
    17   -1.779267381641e-03
    18    2.049257299628e-04
    19   -3.254785940363e-03
    20    1.032614716871e-02
    21    9.338509337968e-01
    22   -3.176979903640e-04
    23    1.400526151914e-02
    24    8.202493551613e-04
    25    6.991180887270e-02
    26   -5.166199537895e-02
    27   -1.396844370361e+00
    28    9.708843596172e-02
    29   -9.370690953418e-02
    30   -1.218516065818e-03
    31    3.799751453366e-01
    32   -3.657137045138e-01
    33   -4.726418942884e-03
    34    1.554033766821e-02
    35   -1.452068689997e-03
    36   -1.785499368697e-03
    37   -4.657980285335e-05
    38   -3.094314960641e-03
    39    1.036525073953e-02
    40    9.370891956638e-01
    41    2.464300727852e-04
    42   -1.400307907993e-02
    43   -8.371969320364e-04
    44    9.392200087878e-03
    45    9.283961061288e-01
    46    1.396871895825e-02
    47    3.218553913731e-04
    48    6.711057026344e-04
Sym=X
Ene= 0.232667
Spin=Alpha
Occup=0
     1   -2.730093893649e-02
     2   -1.224680731588e+00
     3    1.415741994554e-02
     4    3.694012437208e-03
     5    8.807193059175e-04
     6   -2.999227255365e-03
     7    3.199700689094e-03
     8    4.409111895363e-02
     9    1.555413046511e-01
    10    1.589016048065e-01
    11    1.670702656962e-02
    12    5.492574656642e-01
    13    5.594849389860e-01
    14    5.884346598868e-02
    15   -5.104427958763e-04
    16    4.177044733038e-05
    17    5.580746987618e-05
    18    1.616756300408e-05
    19    2.945513317006e-04
    20    2.497413074897e-02
    21    1.159224972638e+00
    22    2.518262159755e-03
    23    1.353097856217e-02
    24    9.210258298804e-04
    25    3.648034923749e-03
    26   -3.578548260734e-03
    27   -6.389246577231e-02
    28    1.552595093678e-01
    29    1.575992018420e-01
    30    1.682307722691e-02
    31    5.500518597729e-01
    32    5.524541570018e-01
    33    5.931006814230e-02
    34    8.814780959704e-04
    35   -8.130877479240e-05
    36   -9.083050083953e-05
    37    6.612868552421e-05
    38   -4.909675025054e-04
    39   -2.557059560213e-02
    40   -1.145016786185e+00
    41    2.429112930963e-03
    42    1.326914767829e-02
    43    9.139886243283e-04
    44    2.693984782621e-02
    45    1.234992551934e+00
    46    1.445227427839e-02
    47    3.753987935283e-03
    48    9.086188953805e-04
Sym=X
Ene= 0.239318
Spin=Alpha
Occup=0
     1   -1.591652502480e-02
     2   -1.037052054139e+00
     3    1.618724995015e-02
     4    9.150114469410e-03
     5    1.310956192753e-03
     6   -8.616881913952e-02
     7    7.947403952676e-02
     8    1.582248856592e+00
     9    5.319238152829e-02
    10   -6.132548532881e-02
    11   -1.075486106128e-03
    12    2.107134869120e-01
    13   -2.417422379477e-01
    14   -4.084624867316e-03
    15   -2.241290031784e-02
    16    2.587959220993e-03
    17    2.955636996540e-03
    18   -7.025906434173e-04
    19    1.276523336956e-02
    20   -1.732734588934e-02
    21   -1.131743405734e+00
    22   -8.532531927726e-03
    23   -1.786012266955e-02
    24   -1.462005034214e-03
    25    8.653122126217e-02
    26   -7.961599246278e-02
    27   -1.595673939266e+00
    28    5.286078749309e-02
    29   -6.246575315068e-02
    30   -1.433055312930e-03
    31    2.125441243413e-01
    32   -2.464916519429e-01
    33   -5.435861437543e-03
    34    2.267669111486e-02
    35   -2.592486212654e-03
    36   -3.023064633696e-03
    37    7.662274474555e-04
    38   -1.281163054550e-02
    39    1.666825319509e-02
    40    1.139653272559e+00
    41   -8.632143402142e-03
    42   -1.800412901826e-02
    43   -1.497695224512e-03
    44    1.564657699089e-02
    45    1.045773701610e+00
    46    1.642663180505e-02
    47    9.229358797522e-03
    48    1.312737694125e-03
Sym=X
Ene= 0.303471
Spin=Alpha
Occup=0
     1   -1.987845777273e-02
     2    1.682326998788e+00
     3   -2.292807578407e-02
     4    4.521906211612e-04
     5   -1.064636335099e-03
     6   -1.441487827897e-04
     7    4.385134309670e-05
     8    1.169963312752e-02
     9   -1.339603332095e-01
    10   -1.398040231255e-01
    11   -1.459490208754e-02
    12   -1.143022013453e+00
    13   -1.196140690101e+00
    14   -1.250449719442e-01
    15   -2.608683740569e-04
    16   -1.607314814872e-03
    17    1.891147535736e-03
    18   -3.260907636846e-02
    19   -1.328915901792e-03
    20    2.067662129661e-02
    21   -1.693188943711e+00
    22    1.435452300410e-03
    23   -2.296527881789e-02
    24   -1.282863715700e-03
    25    2.223399525032e-05
    26    2.127026777556e-04
    27   -3.384612494815e-03
    28    1.343950604991e-01
    29    1.403385548995e-01
    30    1.476961573521e-02
    31    1.144500242450e+00
    32    1.199611359407e+00
    33    1.257308597922e-01
    34    2.716440786358e-05
    35   -1.611237748382e-03
    36    1.912451011780e-03
    37   -3.274417936483e-02
    38   -1.549678121556e-03
    39    2.048014327422e-02
    40   -1.695484930617e+00
    41   -1.599058737650e-03
    42    2.292687275431e-02
    43    1.295180051449e-03
    44   -2.052045299372e-02
    45    1.698017031029e+00
    46    2.307130310949e-02
    47   -4.771709120390e-04
    48    1.065296768196e-03
Sym=X
Ene= 0.462898
Spin=Alpha
Occup=0
     1   -1.170349894734e-01
     2   -7.047102332543e-01
     3   -1.598150012323e-02
     4   -9.891465862977e-03
     5   -1.338386938328e-03
     6    6.087740880102e-02
     7    1.757126020702e-02
     8   -3.643394885012e+00
     9    1.029620410237e-01
    10   -9.846570836729e-02
    11   -1.062874677071e-03
    12    2.431728741428e+00
    13   -2.325546148773e+00
    14   -2.170178846464e-02
    15    5.395619685387e-02
    16   -3.355601509601e-03
    17   -4.611321741835e-03
    18   -1.094954293418e-03
    19    1.881516789499e-02
    20   -1.170441652719e-01
    21   -7.158636307142e-01
    22    8.939653820867e-03
    23    1.644028092805e-02
    24    1.393460992274e-03
    25   -6.082575243333e-02
    26   -1.729012436540e-02
    27    3.638307556748e+00
    28    1.033103584274e-01
    29   -9.873478789957e-02
    30   -1.221520894489e-03
    31    2.436544120762e+00
    32   -2.320296459346e+00
    33   -2.188981291371e-02
    34   -5.351422501028e-02
    35    3.345470554362e-03
    36    4.594279181656e-03
    37    8.438583665550e-04
    38   -1.906034491536e-02
    39    1.151069274382e-01
    40    7.126301928422e-01
    41    8.850970808129e-03
    42    1.645733206070e-02
    43    1.397867409034e-03
    44    1.143168220441e-01
    45    7.168106005095e-01
    46   -1.592412649486e-02
    47   -9.736040200095e-03
    48   -1.346439235265e-03
Sym=X
Ene= 0.577012
Spin=Alpha
Occup=0
     1    2.445430867923e-01
     2    4.019068521508e-02
     3   -1.917791851876e-02
     4    2.623534078837e-02
     5    6.477162411525e-04
     6   -5.279835707323e-03
     7   -1.608770102867e-01
     8   -4.404351787228e-01
     9    2.994201239838e-01
    10   -2.871011646939e-01
    11   -2.775013457060e-03
    12   -7.352505046989e-01
    13    7.124535011085e-01
    14    7.571655267410e-03
    15   -5.504982978935e-03
    16    3.838213425927e-03
    17    3.593483693735e-03
    18   -3.304053798767e-03
    19    5.929494721488e-02
    20    2.503182613804e-01
    21    4.297126987091e-02
    22   -2.635773442137e-02
    23    1.697257071659e-02
    24   -2.408988368083e-04
    25   -5.568789260107e-03
    26   -1.608349173676e-01
    27   -4.271277328638e-01
    28   -2.993627545545e-01
    29    2.859440698860e-01
    30    2.684276203073e-03
    31    7.525585524322e-01
    32   -7.201824696505e-01
    33   -7.370893701286e-03
    34   -5.367887165519e-03
    35    3.868893169299e-03
    36    3.531851014553e-03
    37   -2.433249010955e-03
    38    5.930088235158e-02
    39    2.456722840717e-01
    40    4.938434468333e-02
    41    2.686857750236e-02
    42   -1.752084741635e-02
    43    2.196210566152e-04
    44    2.485753175093e-01
    45    4.810853307688e-02
    46    1.836930871427e-02
    47   -2.565924918250e-02
    48   -6.689680914326e-04
Sym=X
Ene= 0.615011
Spin=Alpha
Occup=0
     1   -5.235426716328e-01
     2    2.198112195041e-01
     3   -6.142557865373e-02
     4    3.779563315961e-02
     5   -6.817115135327e-04
     6   -2.767500961010e-04
     7    1.898475284961e-03
     8   -6.681842812315e-03
     9   -3.797439834054e-02
    10   -3.832831569405e-02
    11   -4.108609649481e-03
    12    2.817922200016e-01
    13    2.896608849673e-01
    14    3.030668437300e-02
    15    1.575897111177e-03
    16   -7.625749954071e-03
    17    8.317824505753e-03
    18   -1.488293446768e-01
    19   -7.364197820284e-03
    20    5.111939589858e-01
    21   -2.064248545759e-01
    22    4.131369904477e-02
    23   -5.890835900551e-02
    24   -1.540292506884e-03
    25    1.316263906751e-04
    26   -5.479664854506e-04
    27    5.724947300113e-03
    28   -3.833948695827e-02
    29   -4.067091146793e-02
    30   -4.202509412723e-03
    31    2.856100932585e-01
    32    3.021017694215e-01
    33    3.175239942137e-02
    34   -2.522611310001e-04
    35    7.337480052342e-03
    36   -8.635696221895e-03
    37    1.487105516805e-01
    38    6.296972796210e-03
    39   -5.180838455659e-01
    40    2.051325323219e-01
    41    4.057946124923e-02
    42   -5.902815779789e-02
    43   -1.608639953603e-03
    44    5.167251929711e-01
    45   -2.081145446510e-01
    46   -6.112378678544e-02
    47    3.800341961116e-02
    48   -6.000104399495e-04
Sym=X
Ene= 0.688364
Spin=Alpha
Occup=0
     1    3.895658063356e-04
     2    3.450712637557e-04
     3    9.765739956123e-04
     4    1.220920667613e-03
     5   -2.004326869619e-02
     6    2.611663004758e-05
     7    1.365955401570e-04
     8    2.772701054281e-04
     9    3.155893606682e-02
    10    3.972882461782e-02
    11   -6.694966055360e-01
    12   -2.964271104091e-02
    13   -3.558534096687e-02
    14    6.132534431255e-01
    15   -1.366107719583e-03
    16    8.245637212008e-02
    17   -7.864692467538e-02
    18   -8.626977516631e-03
    19   -1.049268837625e-03
    20    4.377727601982e-04
    21    1.497234946550e-04
    22    9.335740292801e-04
    23    1.198977290003e-03
    24   -2.105100444098e-02
    25    5.276399797118e-07
    26    3.973845010548e-04
    27   -6.034075488168e-04
    28    3.186793552870e-02
    29    3.983526362659e-02
    30   -6.691797814495e-01
    31   -3.003696454675e-02
    32   -3.580493822683e-02
    33    6.132676969104e-01
    34    1.184416431675e-03
    35   -8.260718743758e-02
    36    7.874924628427e-02
    37    8.559568495190e-03
    38    1.117315481906e-03
    39   -1.200190382319e-05
    40   -6.677013493140e-04
    41    9.954827714441e-04
    42    1.352689700637e-03
    43   -2.092868125431e-02
    44   -5.365572588758e-05
    45   -4.591895787985e-04
    46    9.035645409653e-04
    47    1.271164662754e-03
    48   -2.090019412008e-02
Sym=X
Ene= 0.708590
Spin=Alpha
Occup=0
     1   -4.810332334977e-01
     2    1.656734607841e-01
     3   -8.037125765216e-02
     4   -4.463437431299e-02
     5   -6.489519932365e-03
     6   -4.781418495193e-02
     7   -3.172096338098e-01
     8    5.001646487493e-01
     9    2.023400256639e-01
    10   -1.881623211669e-01
    11   -1.882001272940e-03
    12   -9.056717820065e-02
    13    6.721887348674e-02
    14   -4.975487012071e-04
    15    1.946463229221e-01
    16   -2.051796724905e-02
    17   -2.397990335414e-02
    18    3.387344984869e-03
    19   -7.744750519705e-02
    20   -4.818200912116e-01
    21    1.450039676287e-01
    22    4.068018030336e-02
    23    8.200593879562e-02
    24    6.741373909335e-03
    25   -4.651167078689e-02
    26   -3.212479032988e-01
    27    4.775481088320e-01
    28   -2.009623223762e-01
    29    1.910582342675e-01
    30    1.483890152494e-03
    31    6.178134044233e-02
    32   -5.701938264000e-02
    33    4.894127098743e-04
    34    1.923801094452e-01
    35   -2.039041161421e-02
    36   -2.373660683069e-02
    37    2.460818530638e-03
    38   -7.646891612393e-02
    39   -4.700809278600e-01
    40    1.365516597429e-01
    41   -4.095137331215e-02
    42   -8.039604632277e-02
    43   -6.715911724706e-03
    44   -4.762808459719e-01
    45    1.427129200748e-01
    46    7.957653442099e-02
    47    4.388576235527e-02
    48    6.412482866267e-03
Sym=X
Ene= 0.785304
Spin=Alpha
Occup=0
     1    5.315696298755e-01
     2   -4.912429818250e-01
     3    1.115934810163e-01
     4    2.660871991409e-02
     5    6.865338358715e-03
     6    9.066152849388e-02
     7   -2.199404688706e-01
     8   -6.562525653909e-01
     9    1.021037127174e-01
    10   -1.084025437774e-01
    11   -9.026477573066e-04
    12    3.416024650144e-01
    13   -2.955222000754e-01
    14   -2.389026631151e-03
    15   -2.050995037221e-01
    16    1.752579198635e-02
    17    2.154753889259e-02
    18    7.823473324206e-04
    19    9.976168957642e-03
    20    5.316249277517e-01
    21   -4.611028314788e-01
    22   -2.047715635859e-02
    23   -1.108606561718e-01
    24   -7.512726210811e-03
    25   -9.158867545844e-02
    26    2.098744591809e-01
    27    6.774599726981e-01
    28    1.053102200698e-01
    29   -1.016382574751e-01
    30   -1.460890974112e-03
    31    3.252151062020e-01
    32   -3.058995397804e-01
    33   -1.602139284295e-03
    34    2.086362268478e-01
    35   -1.779900246663e-02
    36   -2.233647522130e-02
    37    4.325413692410e-04
    38   -1.071658543485e-02
    39   -5.418350328153e-01
    40    4.715136765959e-01
    41   -2.095637899815e-02
    42   -1.132198414894e-01
    43   -7.755571946855e-03
    44   -5.346879176038e-01
    45    4.735027778530e-01
    46    1.116276565040e-01
    47    2.741895945891e-02
    48    6.934878169993e-03
Sym=X
Ene= 0.808350
Spin=Alpha
Occup=0
     1    3.575040596040e-04
     2   -6.782676235389e-04
     3    1.672873525399e-03
     4    1.991083085103e-03
     5   -3.315536251118e-02
     6    7.612292092194e-05
     7   -3.683275178502e-04
     8   -2.539382421073e-05
     9    3.624895046866e-02
    10    4.488015560432e-02
    11   -7.632026517210e-01
    12   -5.318185259657e-02
    13   -6.668753912613e-02
    14    1.128718443208e+00
    15    8.340349098829e-04
    16   -6.606436538915e-02
    17    6.297319648784e-02
    18    6.956560284046e-03
    19    8.580411949433e-04
    20    3.479884284606e-04
    21   -5.528451340694e-05
    22    1.655518532226e-03
    23    2.005584967284e-03
    24   -3.442634938734e-02
    25   -5.692648877271e-05
    26   -8.668344676517e-05
    27    2.839425048234e-04
    28   -3.622793022977e-02
    29   -4.568450866252e-02
    30    7.632147353466e-01
    31    5.409098151083e-02
    32    6.716772147613e-02
    33   -1.128914325635e+00
    34    1.238812695408e-03
    35   -6.605364906167e-02
    36    6.297428640621e-02
    37    6.795284164265e-03
    38    9.259403386449e-04
    39   -3.507332264733e-04
    40    1.881772048166e-04
    41   -1.563519273535e-03
    42   -2.178090290635e-03
    43    3.418530310106e-02
    44   -3.572810992318e-04
    45    7.822055075072e-04
    46   -1.406986194199e-03
    47   -2.030068858457e-03
    48    3.404592563987e-02
Sym=X
Ene= 0.861466
Spin=Alpha
Occup=0
     1    1.000491414970e-02
     2   -1.098268672694e+00
     3    1.481475278943e-01
     4    5.623839268503e-02
     5    1.030842585072e-02
     6   -8.749437964868e-04
     7   -3.465810294821e-03
     8    1.893617506749e-03
     9   -4.133298888736e-01
    10   -4.278790782174e-01
    11   -4.469026180551e-02
    12    9.572726824899e-01
    13    9.980770100613e-01
    14    1.039563397682e-01
    15    2.635564121968e-03
    16    1.151901650284e-02
    17   -1.377470307502e-02
    18    2.350159087007e-01
    19    1.091178251676e-02
    20   -1.658188757466e-02
    21    1.103904631390e+00
    22    4.922292138400e-02
    23    1.523882838457e-01
    24    1.139638179410e-02
    25    5.471660707000e-04
    26   -3.803540537117e-03
    27    4.478176510275e-03
    28   -4.074394237044e-01
    29   -4.237504522571e-01
    30   -4.481656119278e-02
    31    9.473391975154e-01
    32    9.924844350204e-01
    33    1.045966320378e-01
    34   -1.025531102290e-03
    35   -1.165266705976e-02
    36    1.359400916849e-02
    37   -2.348029308791e-01
    38   -1.145080991692e-02
    39    1.193792041294e-02
    40   -1.097940274729e+00
    41    4.889288662503e-02
    42    1.509270119036e-01
    43    1.138381233920e-02
    44   -7.038167293472e-03
    45    1.090599635965e+00
    46    1.469253958686e-01
    47    5.583019599202e-02
    48    1.022841019091e-02
Sym=X
Ene= 0.936055
Spin=Alpha
Occup=0
     1    1.140794770962e-01
     2   -1.284219603249e+00
     3    1.820712317650e-01
     4   -3.959343208047e-03
     5    8.441356748959e-03
     6   -1.050892861456e-03
     7   -1.141853426548e-02
     8    8.518494714775e-03
     9   -4.807663363306e-01
    10   -4.895609893332e-01
    11   -5.177426723429e-02
    12    1.479734376992e+00
    13    1.512884334497e+00
    14    1.597413742058e-01
    15    3.540888194748e-03
    16    5.838466240986e-03
    17   -6.844115854198e-03
    18    1.180596394882e-01
    19    8.087886033588e-03
    20   -1.183735474777e-01
    21    1.262816996035e+00
    22   -1.437440959952e-02
    23    1.802434608379e-01
    24    9.918145297356e-03
    25    5.459144317492e-04
    26   -7.930335513259e-03
    27    2.257609444018e-02
    28    4.720449910339e-01
    29    5.040305567808e-01
    30    5.242683772167e-02
    31   -1.459953992891e+00
    32   -1.549851994586e+00
    33   -1.615842290117e-01
    34   -1.078382993083e-03
    35    6.040707147668e-03
    36   -7.110736340538e-03
    37    1.221246063858e-01
    38    2.704685474887e-03
    39   -1.161660727433e-01
    40    1.288937389297e+00
    41    1.288498205834e-02
    42   -1.822321458134e-01
    43   -1.024415301459e-02
    44    1.179331125352e-01
    45   -1.286637578062e+00
    46   -1.836576304883e-01
    47    5.837675391638e-03
    48   -8.394713069103e-03
Sym=X
Ene= 0.974298
Spin=Alpha
Occup=0
     1   -5.917862255387e-02
     2    8.964538931143e-01
     3   -8.716645621470e-02
     4   -9.874106365638e-02
     5   -9.959332205108e-03
     6    2.662714143461e-02
     7    2.624567079130e-01
     8    4.884242956544e-01
     9    4.739641294681e-01
    10   -4.636331885915e-01
    11   -4.901679980026e-03
    12   -1.457234949184e+00
    13    1.433555678072e+00
    14    1.549042544040e-02
    15   -5.597193004546e-02
    16   -1.243036899394e-02
    17   -9.686532701105e-03
    18    1.666602386549e-02
    19   -3.009895661182e-01
    20   -5.918602969606e-02
    21    9.379685909850e-01
    22    9.518644710837e-02
    23    9.679428713181e-02
    24    1.028332925813e-02
    25   -2.635428371664e-02
    26   -2.406321317512e-01
    27   -5.248412085811e-01
    28    4.811287233702e-01
    29   -4.500278911825e-01
    30   -4.146488882302e-03
    31   -1.489350872118e+00
    32    1.387301578565e+00
    33    1.231248680049e-02
    34    5.485870397852e-02
    35    1.251223322214e-02
    36    9.519301148619e-03
    37   -1.343651968328e-02
    38    2.987178500093e-01
    39    5.820769052248e-02
    40   -8.918419873814e-01
    41    9.427375488244e-02
    42    9.048639794325e-02
    43    9.962756114892e-03
    44    5.905431163902e-02
    45   -9.179196687545e-01
    46   -8.941098327338e-02
    47   -9.802931618289e-02
    48   -9.962770367569e-03
[5D]

======= END OF MOLDEN-FORMATTED INPUT FILE =======


        *************************************************************
        *                                                           *
        *  Thank you very much for using Q-Chem.  Have a nice day.  *
        *                                                           *
        *************************************************************


