                  Welcome to Q-Chem
     A Quantum Leap Into The Future Of Chemistry


 Q-Chem 5.4 (devel), Q-Chem, Inc., Pleasanton, CA (2021)

 E. Epifanovsky,  A. T. B. Gilbert,  Xintian Feng,  Joonho Lee,  Yuezhi Mao,  
 N. Mardirossian,  P. Pokhilko,  A. White,  M. Wormit,  M. P. Coons,  
 A. L. Dempwolff,  Zhengting Gan,  D. Hait,  P. R. Horn,  L. D. Jacobson,  
 I. Kaliman,  J. Kussmann,  A. W. Lange,  Ka Un Lao,  D. S. Levine,  Jie Liu,  
 S. C. McKenzie,  A. F. Morrison,  K. Nanda,  F. Plasser,  D. R. Rehn,  
 M. L. Vidal,  Zhi-Qiang You,  Ying Zhu,  B. Alam,  B. Albrecht,  
 A. Aldossary,  E. Alguire,  J. H. Andersen,  D. Barton,  K. Begam,  A. Behn,  
 Y. A. Bernard,  E. J. Berquist,  H. Burton,  A. Carreras,  K. Carter-Fenk,  
 R. Chakraborty,  A. D. Chien,  K. D. Closser,  V. Cofer-Shabica,  
 S. Dasgupta,  Jia Deng,  M. de Wergifosse,  M. Diedenhofen,  Hainam Do,  
 S. Ehlert,  Po-Tung Fang,  S. Fatehi,  Qingguo Feng,  T. Friedhoff,  
 J. Gayvert,  Qinghui Ge,  G. Gidofalvi,  M. Goldey,  J. Gomes,  
 C. Gonzalez-Espinoza,  S. Gulania,  A. Gunina,  M. W. D. Hanson-Heine,  
 P. H. P. Harbach,  A. W. Hauser,  M. F. Herbst,  M. Hernandez Vera,  
 M. Hodecker,  Z. C. Holden,  S. Houck,  Xunkun Huang,  Kerwin Hui,  
 B. C. Huynh,  M. Ivanov,  Hyunjun Ji,  Hanjie Jiang,  B. Kaduk,  S. Kaehler,  
 K. Khistyaev,  Jaehoon Kim,  P. Klunzinger,  Z. Koczor-Benda,  
 Joong Hoon Koh,  D. Kosenkov,  L. Koulias,  T. Kowalczyk,  C. M. Krauter,  
 K. Kue,  A. Kunitsa,  T. Kus,  A. Landau,  K. V. Lawler,  D. Lefrancois,  
 S. Lehtola,  Rain Li,  Yi-Pei Li,  Jiashu Liang,  M. Liebenthal,  
 Hung-Hsuan Lin,  You-Sheng Lin,  Fenglai Liu,  Kuan-Yu Liu,  
 M. Loipersberger,  A. Luenser,  A. Manjanath,  P. Manohar,  E. Mansoor,  
 S. F. Manzer,  Shan-Ping Mao,  A. V. Marenich,  T. Markovich,  S. Mason,  
 S. A. Maurer,  P. F. McLaughlin,  M. F. S. J. Menger,  J.-M. Mewes,  
 S. A. Mewes,  P. Morgante,  J. W. Mullinax,  K. J. Oosterbaan,  G. Paran,  
 Alexander C. Paul,  Suranjan K. Paul,  F. Pavosevic,  Zheng Pei,  S. Prager,  
 E. I. Proynov,  E. Ramos,  B. Rana,  A. E. Rask,  A. Rettig,  R. M. Richard,  
 F. Rob,  E. Rossomme,  T. Scheele,  M. Scheurer,  M. Schneider,  
 N. Sergueev,  S. M. Sharada,  W. Skomorowski,  D. W. Small,  C. J. Stein,  
 Yu-Chuan Su,  E. J. Sundstrom,  Zhen Tao,  J. Thirman,  T. Tsuchimochi,  
 N. M. Tubman,  S. P. Veccham,  O. Vydrov,  J. Wenzel,  J. Witte,  A. Yamada,  
 Kun Yao,  S. Yeganeh,  S. R. Yost,  A. Zech,  Igor Ying Zhang,  Xing Zhang,  
 Yu Zhang,  D. Zuev,  A. Aspuru-Guzik,  A. T. Bell,  N. A. Besley,  
 K. B. Bravaya,  B. R. Brooks,  D. Casanova,  Jeng-Da Chai,  S. Coriani,  
 C. J. Cramer,  A. E. DePrince, III,  R. A. DiStasio Jr.,  A. Dreuw,  
 B. D. Dunietz,  T. R. Furlani,  W. A. Goddard III,  S. Grimme,  
 S. Hammes-Schiffer,  T. Head-Gordon,  W. J. Hehre,  Chao-Ping Hsu,  
 T.-C. Jagau,  Yousung Jung,  A. Klamt,  Jing Kong,  D. S. Lambrecht,  
 WanZhen Liang,  N. J. Mayhall,  C. W. McCurdy,  J. B. Neaton,  
 C. Ochsenfeld,  J. A. Parkhill,  R. Peverati,  V. A. Rassolov,  Yihan Shao,  
 L. V. Slipchenko,  T. Stauch,  R. P. Steele,  J. E. Subotnik,  
 A. J. W. Thom,  A. Tkatchenko,  D. G. Truhlar,  T. Van Voorhis,  
 T. A. Wesolowski,  K. B. Whaley,  H. L. Woodcock III,  P. M. Zimmerman,  
 S. Faraji,  P. M. W. Gill,  M. Head-Gordon,  J. M. Herbert,  A. I. Krylov

 Additional authors for Version 5.4.1: 
 S. Kotaru,  Shaozhi Li,  Xiangyuan Li,  F. Matz,  A. Molle,  Haisheng Ren,  
 Yingli Su,  Hung-Yi Tsai,  C. Utku,  Fang Wang

 Contributors to earlier versions of Q-Chem not listed above: 
 R. D. Adamson,  B. Austin,  R. Baer,  J. Baker,  G. J. O. Beran,  
 K. Brandhorst,  S. T. Brown,  E. F. C. Byrd,  A. K. Chakraborty,  
 G. K. L. Chan,  Chun-Min Chang,  Yunqing Chen,  C.-L. Cheng,  
 Siu Hung Chien,  D. M. Chipman,  D. L. Crittenden,  H. Dachsel,  
 R. J. Doerksen,  A. D. Dutoi,  R. G. Edgar,  J. Fosso-Tande,  
 L. Fusti-Molnar,  D. Ghosh,  A. Ghysels,  A. Golubeva-Zadorozhnaya,  
 J. Gonthier,  M. S. Gordon,  S. R. Gwaltney,  G. Hawkins,  J. E. Herr,  
 A. Heyden,  S. Hirata,  E. G. Hohenstein,  G. Kedziora,  F. J. Keil,  
 C. Kelley,  Jihan Kim,  R. A. King,  R. Z. Khaliullin,  P. P. Korambath,  
 W. Kurlancheek,  A. Laurent,  A. M. Lee,  M. S. Lee,  S. V. Levchenko,  
 Ching Yeh Lin,  D. Liotard,  E. Livshits,  R. C. Lochan,  I. Lotan,  
 L. A. Martinez-Martinez,  P. E. Maslen,  N. Nair,  D. P. O'Neill,  
 D. Neuhauser,  E. Neuscamman,  C. M. Oana,  R. Olivares-Amaya,  R. Olson,  
 T. M. Perrine,  B. Peters,  P. A. Pieniazek,  A. Prociuk,  Y. M. Rhee,  
 J. Ritchie,  M. A. Rohrdanz,  E. Rosta,  N. J. Russ,  H. F. Schaefer III,  
 M. W. Schmidt,  N. E. Schultz,  S. Sharma,  N. Shenvi,  C. D. Sherrill,  
 A. C. Simmonett,  A. Sodt,  T. Stein,  D. Stuck,  K. S. Thanthiriwatte,  
 V. Vanovschi,  L. Vogt,  Tao Wang,  A. Warshel,  M. A. Watson,  
 C. F. Williams,  Q. Wu,  X. Xu,  Jun Yang,  W. Zhang,  Yan Zhao

 Please cite Q-Chem as follows:
 Y. Shao et al., Mol. Phys. 113, 184-215 (2015)
 DOI: 10.1080/00268976.2014.952696

 Q-Chem 5.4.1 for Intel X86 EM64T Linux

 Parts of Q-Chem use Armadillo 9.800.1 (Horizon Scraper).
 http://arma.sourceforge.net/

 Q-Chem begins on Tue Mar 21 16:11:36 2023  

 Host: cpu186.baobab
0

     Scratch files written to /scratch/fum/qchem36831//
 Processing $rem in /home/share/wesolowski/qc5.aug2021.FDE/config/preferences:
 Processing $rem in /home/fum/.qchemrc:

 Checking the input file for inconsistencies... 	...done.

--------------------------------------------------------------
User input:
--------------------------------------------------------------
$comment
generated from CCJob.Templates
$end

$rem
sym_ignore = true
method = adc(2)
ee_states = 10
basis = cc-pVDZ
mem_static = 1024
mem_total = 40000
adc_davidson_maxiter = 900
adc_davidson_conv = 6
adc_print = 3
adc_prop_es = true
adc_prop_es2es = true
adc_prop_tpa = true
molden_format = True
state_analysis = true
print_orbitals = 15
gen_scfman = false
fde_export_density = true
fde_details = 3
$end

$molecule
0 1
H      -0.0215469356    -0.2469766659     0.0651269053
C      -1.0779113068    -0.5244188153    -0.0023630204
H      -1.3012023007    -1.5930418722    -0.0776959385
C      -2.0447597208     0.3938428784     0.0066099599
H      -1.8215079279     1.4624778413     0.0819226840
H      -3.1011345151     0.1164119154    -0.0608014280
$end
--------------------------------------------------------------
 ----------------------------------------------------------------
             Standard Nuclear Orientation (Angstroms)
    I     Atom           X                Y                Z
 ----------------------------------------------------------------
    1      H      -0.0215469356    -0.2469766659     0.0651269053
    2      C      -1.0779113068    -0.5244188153    -0.0023630204
    3      H      -1.3012023007    -1.5930418722    -0.0776959385
    4      C      -2.0447597208     0.3938428784     0.0066099599
    5      H      -1.8215079279     1.4624778413     0.0819226840
    6      H      -3.1011345151     0.1164119154    -0.0608014280
 ----------------------------------------------------------------
 Nuclear Repulsion Energy =          33.20995233 hartrees
 There are        8 alpha and        8 beta electrons
 Requested basis set is cc-pVDZ
 There are 24 shells and 48 basis functions
 Total memory of 40000 MB is distributed as follows: 
   MEM_STATIC is set to 1024 MB
   QALLOC/CCMAN JOB total memory use is  38976 MB
 Warning: actual memory use might exceed 40000 MB

 Total QAlloc Memory Limit  40000 MB
 Mega-Array Size      1001 MB
 MEM_STATIC part      1024 MB

                       Distance Matrix (Angstroms)
             H (  1)   C (  2)   H (  3)   C (  4)   H (  5)
   C (  2)  1.094274
   H (  3)  1.862742  1.094298
   C (  4)  2.123079  1.333447  2.123134
   H (  5)  2.482413  2.123158  3.103610  1.094301
   H (  6)  3.103509  2.123090  2.482393  1.094276  1.862715

 A cutoff of  1.0D-11 yielded    300 shell pairs
 There are      1220 function pairs (      1329 Cartesian)
 Smallest overlap matrix eigenvalue = 4.81E-03

 Scale SEOQF with 1.000000e-01/1.000000e-01/1.000000e+00

 Standard Electronic Orientation quadrupole field applied
 Nucleus-field energy     =     0.0000000022 hartrees
 Guess from superposition of atomic densities
 Warning:  Energy on first SCF cycle will be non-variational
 SAD guess density has 16.000000 electrons
 A restricted Hartree-Fock SCF calculation will be
 performed using Pulay DIIS extrapolation
 SCF converges when DIIS error is below 1.0E-08
 using 8 threads for integral computing
 -------------------------------------------------------
 OpenMP Integral computing Module                
 Release: version 1.0, May 2013, Q-Chem Inc. Pittsburgh 
 -------------------------------------------------------
 ---------------------------------------
  Cycle       Energy         DIIS Error
 ---------------------------------------
    1     -78.3977820703      9.93E-02
    2     -78.0175903009      7.13E-03
    3     -78.0380563893      1.83E-03
    4     -78.0395325174      5.64E-04
    5     -78.0396501336      5.81E-05
    6     -78.0396519970      9.29E-06
    7     -78.0396520584      1.95E-06
    8     -78.0396520611      1.67E-07
    9     -78.0396520611      1.73E-08
   10     -78.0396520611      3.80E-09 Convergence criterion met
 ---------------------------------------
 SCF time:  CPU 2.01 s  wall 5.41 s
 SCF   energy in the final basis set = -78.03965206
 Total energy in the final basis set = -78.03965206
Exporting Density Matrix to file 'Densmat_SCF.txt'.
Export successful
================================================================================
|                                                                              |
|                                 A D C  M A N                                 |
|                                                                              |
 ------------------------------------------------------------------------------ 
|                                                                              |
| Components:                                                                  |
|                                                                              |
| - libvmm - 1.3-trunk                                                         |
|   Authors:                                                                   |
|   Evgeny Epifanovsky, Ilya Kaliman                                           |
|                                                                              |
| - libtensor - 2.5-trunk                                                      |
|   Authors:                                                                   |
|   Evgeny Epifanovsky, Michael Wormit, Dmitry Zuev, Sam Manzer,               |
|   Ilya Kaliman                                                               |
|                                                                              |
| - libwfa - 1.1-trunk                                                         |
|   Authors:                                                                   |
|   Felix Plasser, Stefanie Mewes (Baeppler), Benjamin Thomitzni,              |
|   Michael Wormit, Feng Chen, Anna I. Krylov, Pavel Pokhilko                  |
|                                                                              |
| - libadc - 1.1-trunk                                                         |
|   Authors:                                                                   |
|   Michael Wormit, Adrian L. Dempwolff, Philipp H. P. Harbach,                |
|   Caroline Krauter, Dirk Rehn, Matthias Schneider, Jan Wenzel                |
|                                                                              |
| - adcman - 2.6-trunk                                                         |
|   Authors:                                                                   |
|   Michael Wormit, Adrian L. Dempwolff, Philipp H. P. Harbach,                |
|   Caroline Krauter, Daniel Lefrancois, Jan-Michael Mewes, Dirk Rehn,         |
|   Matthias Schneider, Jan Wenzel, Andreas Dreuw                              |
|                                                                              |
| Authors of earlier versions of ADCMAN:                                       |
| Andreas Dreuw, Jan Hendrik Starcke, Dirk Rehn, Michael Wormit                |
|                                                                              |
================================================================================

 Created directory /scratch/fum/qchem36831/plots
  Import QC data ...  CPU 0.00 s  wall 0.02 s

 Alpha MOs, Restricted
 -- Occupied --                  
-11.239 -11.237  -1.030  -0.786  -0.635  -0.582  -0.500  -0.374
  1 A     2 A     3 A     4 A     5 A     6 A     7 A     8 A                  
 -- Virtual --                   
  0.168   0.203   0.231   0.236   0.303   0.463   0.580   0.609
  9 A    10 A    11 A    12 A    13 A    14 A    15 A    16 A                  
  0.689   0.705   0.776   0.807   0.858   0.928   0.971   1.006
 17 A    18 A    19 A    20 A    21 A    22 A    23 A    24 A                  
  1.130   1.237   1.241   1.263   1.291   1.593   1.728   1.744
 25 A    26 A    27 A    28 A    29 A    30 A    31 A    32 A                  
  1.811   1.852   1.854   1.901   1.963   1.972   2.224   2.248
 33 A    34 A    35 A    36 A    37 A    38 A    39 A    40 A                  
  2.356   2.423   2.493   2.623   2.679   2.795   3.099   3.369
 41 A    42 A    43 A    44 A    45 A    46 A    47 A    48 A                  

 Beta MOs, Restricted
 -- Occupied --                  
-11.239 -11.237  -1.030  -0.786  -0.635  -0.582  -0.500  -0.374
  1 A     2 A     3 A     4 A     5 A     6 A     7 A     8 A                  
 -- Virtual --                   
  0.168   0.203   0.231   0.236   0.303   0.463   0.580   0.609
  9 A    10 A    11 A    12 A    13 A    14 A    15 A    16 A                  
  0.689   0.705   0.776   0.807   0.858   0.928   0.971   1.006
 17 A    18 A    19 A    20 A    21 A    22 A    23 A    24 A                  
  1.130   1.237   1.241   1.263   1.291   1.593   1.728   1.744
 25 A    26 A    27 A    28 A    29 A    30 A    31 A    32 A                  
  1.811   1.852   1.854   1.901   1.963   1.972   2.224   2.248
 33 A    34 A    35 A    36 A    37 A    38 A    39 A    40 A                  
  2.356   2.423   2.493   2.623   2.679   2.795   3.099   3.369
 41 A    42 A    43 A    44 A    45 A    46 A    47 A    48 A                  
  Import AO data ...  CPU 0.01 s  wall 0.37 s
  Using point group: C1
  Irreducible representations in point group: A
  Molecular orbitals: 
  Occupied MOs:
  Block   0:   1 (  A) A   2 (  A) A   3 (  A) A   4 (  A) A   5 (  A) A
                  -11.24      -11.24       -1.03     -0.7859      -0.635
               6 (  A) A   7 (  A) A   8 (  A) A
                 -0.5823     -0.4995     -0.3744
  Block   1:   1 (  A) B   2 (  A) B   3 (  A) B   4 (  A) B   5 (  A) B
                  -11.24      -11.24       -1.03     -0.7859      -0.635
               6 (  A) B   7 (  A) B   8 (  A) B
                 -0.5823     -0.4995     -0.3744
  Virtual MOs:
  Block   0:   9 (  A) A  10 (  A) A  11 (  A) A  12 (  A) A  13 (  A) A
                  0.1679      0.2026       0.231      0.2364       0.303
              14 (  A) A  15 (  A) A  16 (  A) A  17 (  A) A  18 (  A) A
                  0.4628      0.5798      0.6089      0.6887      0.7048
              19 (  A) A  20 (  A) A  21 (  A) A  22 (  A) A
                  0.7757      0.8074      0.8584       0.928
  Block   1:  23 (  A) A  24 (  A) A  25 (  A) A  26 (  A) A  27 (  A) A
                  0.9706       1.006        1.13       1.237       1.241
              28 (  A) A  29 (  A) A  30 (  A) A  31 (  A) A  32 (  A) A
                   1.263       1.291       1.593       1.728       1.744
              33 (  A) A  34 (  A) A  35 (  A) A  36 (  A) A
                   1.811       1.852       1.854       1.901
  Block   2:  37 (  A) A  38 (  A) A  39 (  A) A  40 (  A) A  41 (  A) A
                   1.963       1.972       2.224       2.248       2.356
              42 (  A) A  43 (  A) A  44 (  A) A  45 (  A) A  46 (  A) A
                   2.423       2.493       2.623       2.679       2.795
              47 (  A) A  48 (  A) A
                   3.099       3.369
  Block   3:   9 (  A) B  10 (  A) B  11 (  A) B  12 (  A) B  13 (  A) B
                  0.1679      0.2026       0.231      0.2364       0.303
              14 (  A) B  15 (  A) B  16 (  A) B  17 (  A) B  18 (  A) B
                  0.4628      0.5798      0.6089      0.6887      0.7048
              19 (  A) B  20 (  A) B  21 (  A) B  22 (  A) B
                  0.7757      0.8074      0.8584       0.928
  Block   4:  23 (  A) B  24 (  A) B  25 (  A) B  26 (  A) B  27 (  A) B
                  0.9706       1.006        1.13       1.237       1.241
              28 (  A) B  29 (  A) B  30 (  A) B  31 (  A) B  32 (  A) B
                   1.263       1.291       1.593       1.728       1.744
              33 (  A) B  34 (  A) B  35 (  A) B  36 (  A) B
                   1.811       1.852       1.854       1.901
  Block   5:  37 (  A) B  38 (  A) B  39 (  A) B  40 (  A) B  41 (  A) B
                   1.963       1.972       2.224       2.248       2.356
              42 (  A) B  43 (  A) B  44 (  A) B  45 (  A) B  46 (  A) B
                   2.423       2.493       2.623       2.679       2.795
              47 (  A) B  48 (  A) B
                   3.099       3.369
  Import MO data ...  CPU 0.02 s  wall 0.52 s
  Import HF data ...  CPU 0.10 s  wall 0.20 s
  Import 2e integrals ...  CPU 0.84 s  wall 0.45 s

--------------------------------------------------------------------------------
                                   HF Summary                                   
--------------------------------------------------------------------------------
  Energy:                                                  -78.0396520611 a.u.
  Dip. moment [a.u.]:                  [  -0.000005,    0.000002,    0.000016]
  Total dipole [Debye]:                                               0.000043
  <r^2> [a.u.]:                        [ 175.823370,   35.297420,   11.680396]
  Total <r^2> [a.u.]:                                               222.801187
--------------------------------------------------------------------------------
  HF properties ...  CPU 0.02 s  wall 0.07 s
  MP(1) calculation ...  CPU 0.01 s  wall 0.05 s
  N^6 prerequesite intermediates ...  CPU 0.54 s  wall 0.22 s
  Difference density matrix of state mp2_gs printed to ASCII file 'State_mp2_gs_Difference.txt'
Exporting MP density matrix to file 'Densmat_MP.txt'.
Export successful
  Total density matrix of state mp2_gs printed to ASCII file 'State_mp2_gs_Total.txt'
Exporting MP density matrix to file 'Densmat_MP.txt'.
Export successful

--------------------------------------------------------------------------------
                                 MP(2) Summary                                  
--------------------------------------------------------------------------------
  MP energy contribution:                                   -0.2804884595 a.u.
  Total energy:                                            -78.3201405206 a.u.
  Dip. moment [a.u.]:                  [  -0.000004,    0.000002,    0.000016]
  Total dipole [Debye]:                                               0.000042
  <r^2> [a.u.]:                        [ 175.863609,   35.333228,   11.507976]
  Total <r^2> [a.u.]:                                               222.704812

  Density matrix analysis:
  ------------------------
  NOs
    Occupation of frontier NOs:
       0.0455   1.9380
    Number of electrons: 16.000000
    Number of unpaired electrons: n_u =  0.40725, n_u,nl =  0.04580
    NO participation ratio (PR_NO): 13.896595
  
  
  Mulliken Population Analysis
  Atom      Charge (e)              h+              e-           Del q
  --------------------------------------------------------------------
   1 H        0.054969        0.013907       -0.011309        0.002598
   2 C       -0.109940        0.094594       -0.099789       -0.005195
   3 H        0.054978        0.013906       -0.011309        0.002597
   4 C       -0.109950        0.094594       -0.099790       -0.005196
   5 H        0.054976        0.013907       -0.011309        0.002598
   6 H        0.054967        0.013907       -0.011309        0.002598
  --------------------------------------------------------------------
  Sum:       -0.000000        0.244815       -0.244815        0.000000
  
  Multipole moment analysis of the density matrix
    Molecular charge:                      -0.000000
    Number of electrons:                   16.000000
      Center of electronic charge [Ang]: [ -1.561338,  -0.065287,   0.002127]
    Total nuclear charge:                  16.000000
      Center of nuclear charge [Ang]:    [ -1.561339,  -0.065287,   0.002127]
    Dipole moment [D]:                     0.000042
      Cartesian components [D]:          [ -0.000011,   0.000004,   0.000040]
    RMS size of the density [Ang]:         1.206518
      Cartesian components [Ang]:        [  0.800093,   0.783666,   0.448782]
  
  Exciton analysis of the difference density matrix
    <r_h> [Ang]:                  [ -1.561338,  -0.065287,   0.002124]
    <r_e> [Ang]:                  [ -1.561339,  -0.065286,   0.002125]
    |<r_e - r_h>| [Ang]:            0.000001
    Hole size [Ang]:                1.401653
      Cartesian components [Ang]: [  0.853002,   0.840243,   0.728705]
    Electron size [Ang]:            1.361761
      Cartesian components [Ang]: [  0.879567,   0.864272,   0.577746]
--------------------------------------------------------------------------------
  MP(2) calculation ...  CPU 0.17 s  wall 0.27 s
  Start ADC(2)-s ...  CPU 0.01 s  wall 0.05 s
  ADC(2) intermediates ...  CPU 0.03 s  wall 0.01 s
  Starting Davidson for singlet states of irrep A ... 
--------------------------------------------------------------------------------
   It NVec Conv  Avg. Norm  Max. Norm  Conv. states           Remark
--------------------------------------------------------------------------------
        10    0  1.329e-01  4.687e-01  0.4117 n n n n n n n n Guess.
    1   20    0  2.312e-02  1.125e-01  0.3261 n n n n n n n n 
    2   30    0  5.846e-03  2.461e-02  0.3213 n n n n n n n n 
    3   40    0  1.751e-03  1.049e-02  0.3209 n n n n n n n n 
    4   50    0  4.963e-04  3.451e-03  0.3209 n n n n n n n n 
    5   20    0  2.543e-04  1.665e-03  0.3209 n n n n n n n n Subspace collapsed.
    6   30    0  1.086e-04  7.730e-04  0.3209 n n n n n n n n 
    7   40    0  6.712e-05  5.771e-04  0.3209 n n n n n n n n 
    8   50    0  3.850e-05  3.329e-04  0.3209 n n n n n n n n 
    9   20    1  2.503e-05  2.279e-04  0.3209 n y n n n n n n Subspace collapsed.
   10   30    5  2.028e-05  1.899e-04  0.3209 n y y y y y n n 
   11   40    5  8.679e-06  8.012e-05  0.3209 n y y y y y n n 
   12   50    6  3.498e-06  3.102e-05  0.3209 y y y y y y n n 
   13   20    8  2.015e-06  1.680e-05  0.3209 y y y y y y n y Subspace collapsed.
   14   30    8  1.296e-06  1.116e-05  0.3209 y y y y y y n y 
   15   40    8  9.522e-07  8.269e-06  0.3209 y y y y y y n y 
   16   50    8  4.068e-07  3.249e-06  0.3209 y y y y y y n y 
   17   20    8  1.797e-07  1.356e-06  0.3209 y y y y y y n y Subspace collapsed.
   18   30    8  1.559e-07  1.144e-06  0.3209 y y y y y y n y 
   19   40   10  9.689e-08  7.497e-07  0.3209 y y y y y y y y Converged.
--------------------------------------------------------------------------------
  Davidson Summary: 
 ------------------------------------------------------------
  State  0: excitation energy =   0.3209 a.u.   (converged)
  State  1: excitation energy =   0.3290 a.u.   (converged)
  State  2: excitation energy =   0.3360 a.u.   (converged)
  State  3: excitation energy =   0.3579 a.u.   (converged)
  State  4: excitation energy =   0.3733 a.u.   (converged)
  State  5: excitation energy =   0.3866 a.u.   (converged)
  State  6: excitation energy =   0.4202 a.u.   (converged)
  State  7: excitation energy =   0.4435 a.u.   (converged)
  State  8: excitation energy =   0.4537 a.u.   (converged)
  State  9: excitation energy =   0.4585 a.u.   (converged)
 ------------------------------------------------------------

  Singlet states of irrep A ...  CPU 54.89 s  wall 23.16 s
  TDMs ...  CPU 0.80 s  wall 0.35 s
  SDMs ...  CPU 2.40 s  wall 0.75 s
  Starting TPA DIIS iterations ... 
------------------------------------ 
   It     Res. Norm  Remark
------------------------------------
                       Guess.
    1     4.397e+00  
    2     5.834e+00  
    3     1.086e+00  
    4     2.633e-01  
    5     6.571e-02  
    6     2.778e-02  
    7     8.477e-03  
    8     1.551e-03  
    9     5.828e-04  
   10     9.776e-05  
   11     3.154e-05  
   12     4.881e-06  
   13     1.645e-06  
   14     4.796e-07  Converged.
   ... Converged in 14 steps (norm: 4.79573e-07)
------------------------------------
  Starting TPA DIIS iterations ... 
------------------------------------ 
   It     Res. Norm  Remark
------------------------------------
                       Guess.
    1     4.187e+00  
    2     5.545e+00  
    3     1.037e+00  
    4     2.614e-01  
    5     6.545e-02  
    6     2.777e-02  
    7     8.334e-03  
    8     1.571e-03  
    9     5.917e-04  
   10     9.730e-05  
   11     3.185e-05  
   12     4.849e-06  
   13     1.672e-06  
   14     4.750e-07  Converged.
   ... Converged in 14 steps (norm: 4.74952e-07)
------------------------------------
  Starting TPA DIIS iterations ... 
------------------------------------ 
   It     Res. Norm  Remark
------------------------------------
                       Guess.
    1     6.855e-01  
    2     4.794e-01  
    3     1.687e-01  
    4     6.349e-02  
    5     1.873e-02  
    6     6.689e-03  
    7     1.073e-03  
    8     4.586e-04  
    9     1.262e-04  
   10     3.105e-05  
   11     5.054e-06  
   12     1.796e-06  
   13     8.599e-07  Converged.
   ... Converged in 13 steps (norm: 8.59864e-07)
------------------------------------
  Starting TPA DIIS iterations ... 
------------------------------------ 
   It     Res. Norm  Remark
------------------------------------
                       Guess.
    1     4.593e+00  
    2     6.185e+00  
    3     1.142e+00  
    4     2.833e-01  
    5     7.139e-02  
    6     3.038e-02  
    7     9.259e-03  
    8     1.693e-03  
    9     6.393e-04  
   10     1.077e-04  
   11     3.497e-05  
   12     5.444e-06  
   13     1.844e-06  
   14     5.363e-07  Converged.
   ... Converged in 14 steps (norm: 5.36285e-07)
------------------------------------
  Starting TPA DIIS iterations ... 
------------------------------------ 
   It     Res. Norm  Remark
------------------------------------
                       Guess.
    1     4.373e+00  
    2     5.879e+00  
    3     1.090e+00  
    4     2.811e-01  
    5     7.110e-02  
    6     3.039e-02  
    7     9.104e-03  
    8     1.715e-03  
    9     6.494e-04  
   10     1.072e-04  
   11     3.530e-05  
   12     5.406e-06  
   13     1.875e-06  
   14     5.309e-07  Converged.
   ... Converged in 14 steps (norm: 5.30909e-07)
------------------------------------
  Starting TPA DIIS iterations ... 
------------------------------------ 
   It     Res. Norm  Remark
------------------------------------
                       Guess.
    1     6.938e-01  
    2     4.912e-01  
    3     1.753e-01  
    4     6.918e-02  
    5     1.971e-02  
    6     7.109e-03  
    7     1.165e-03  
    8     5.140e-04  
    9     1.439e-04  
   10     3.443e-05  
   11     5.503e-06  
   12     2.011e-06  
   13     9.990e-07  Converged.
   ... Converged in 13 steps (norm: 9.99035e-07)
------------------------------------
  Starting TPA DIIS iterations ... 
------------------------------------ 
   It     Res. Norm  Remark
------------------------------------
                       Guess.
    1     4.773e+00  
    2     6.512e+00  
    3     1.193e+00  
    4     3.022e-01  
    5     7.675e-02  
    6     3.285e-02  
    7     9.998e-03  
    8     1.827e-03  
    9     6.929e-04  
   10     1.171e-04  
   11     3.826e-05  
   12     5.986e-06  
   13     2.037e-06  
   14     5.908e-07  Converged.
   ... Converged in 14 steps (norm: 5.90806e-07)
------------------------------------
  Starting TPA DIIS iterations ... 
------------------------------------ 
   It     Res. Norm  Remark
------------------------------------
                       Guess.
    1     4.544e+00  
    2     6.189e+00  
    3     1.138e+00  
    4     2.996e-01  
    5     7.645e-02  
    6     3.287e-02  
    7     9.832e-03  
    8     1.852e-03  
    9     7.041e-04  
   10     1.166e-04  
   11     3.860e-05  
   12     5.941e-06  
   13     2.072e-06  
   14     5.847e-07  Converged.
   ... Converged in 14 steps (norm: 5.84713e-07)
------------------------------------
  Starting TPA DIIS iterations ... 
------------------------------------ 
   It     Res. Norm  Remark
------------------------------------
                       Guess.
    1     7.011e-01  
    2     5.018e-01  
    3     1.813e-01  
    4     7.463e-02  
    5     2.059e-02  
    6     7.504e-03  
    7     1.254e-03  
    8     5.683e-04  
    9     1.612e-04  
   10     3.720e-05  
   11     5.921e-06  
   12     2.220e-06  
   13     1.140e-06  
   14     4.146e-07  Converged.
   ... Converged in 14 steps (norm: 4.14645e-07)
------------------------------------
  Starting TPA DIIS iterations ... 
------------------------------------ 
   It     Res. Norm  Remark
------------------------------------
                       Guess.
    1     5.423e+00  
    2     7.722e+00  
    3     1.377e+00  
    4     3.743e-01  
    5     9.726e-02  
    6     4.240e-02  
    7     1.283e-02  
    8     2.339e-03  
    9     9.002e-04  
   10     1.536e-04  
   11     5.123e-05  
   12     8.126e-06  
   13     2.814e-06  
   14     8.077e-07  Converged.
   ... Converged in 14 steps (norm: 8.07656e-07)
------------------------------------
  Starting TPA DIIS iterations ... 
------------------------------------ 
   It     Res. Norm  Remark
------------------------------------
                       Guess.
    1     5.161e+00  
    2     7.338e+00  
    3     1.313e+00  
    4     3.705e-01  
    5     9.691e-02  
    6     4.249e-02  
    7     1.262e-02  
    8     2.376e-03  
    9     9.156e-04  
   10     1.530e-04  
   11     5.163e-05  
   12     8.054e-06  
   13     2.866e-06  
   14     7.989e-07  Converged.
   ... Converged in 14 steps (norm: 7.98889e-07)
------------------------------------
  Starting TPA DIIS iterations ... 
------------------------------------ 
   It     Res. Norm  Remark
------------------------------------
                       Guess.
    1     7.252e-01  
    2     5.380e-01  
    3     2.026e-01  
    4     9.603e-02  
    5     2.377e-02  
    6     9.018e-03  
    7     1.605e-03  
    8     7.863e-04  
    9     2.296e-04  
   10     4.414e-05  
   11     7.487e-06  
   12     3.068e-06  
   13     1.760e-06  
   14     5.921e-07  Converged.
   ... Converged in 14 steps (norm: 5.92127e-07)
------------------------------------
  Starting TPA DIIS iterations ... 
------------------------------------ 
   It     Res. Norm  Remark
------------------------------------
                       Guess.
    1     5.973e+00  
    2     8.780e+00  
    3     1.531e+00  
    4     4.400e-01  
    5     1.159e-01  
    6     5.121e-02  
    7     1.541e-02  
    8     2.804e-03  
    9     1.091e-03  
   10     1.873e-04  
   11     6.341e-05  
   12     1.014e-05  
   13     3.562e-06  
   14     1.016e-06  
   15     3.305e-07  Converged.
   ... Converged in 15 steps (norm: 3.30474e-07)
------------------------------------
  Starting TPA DIIS iterations ... 
------------------------------------ 
   It     Res. Norm  Remark
------------------------------------
                       Guess.
    1     5.683e+00  
    2     8.342e+00  
    3     1.460e+00  
    4     4.349e-01  
    5     1.155e-01  
    6     5.135e-02  
    7     1.517e-02  
    8     2.852e-03  
    9     1.110e-03  
   10     1.865e-04  
   11     6.383e-05  
   12     1.004e-05  
   13     3.628e-06  
   14     1.005e-06  
   15     3.292e-07  Converged.
   ... Converged in 15 steps (norm: 3.29197e-07)
------------------------------------
  Starting TPA DIIS iterations ... 
------------------------------------ 
   It     Res. Norm  Remark
------------------------------------
                       Guess.
    1     7.432e-01  
    2     5.667e-01  
    3     2.199e-01  
    4     1.160e-01  
    5     2.649e-02  
    6     1.040e-02  
    7     1.942e-03  
    8     9.857e-04  
    9     2.905e-04  
   10     4.689e-05  
   11     8.903e-06  
   12     3.878e-06  
   13     2.411e-06  
   14     7.599e-07  Converged.
   ... Converged in 14 steps (norm: 7.59879e-07)
------------------------------------
  Starting TPA DIIS iterations ... 
------------------------------------ 
   It     Res. Norm  Remark
------------------------------------
                       Guess.
    1     6.524e+00  
    2     9.869e+00  
    3     1.685e+00  
    4     5.097e-01  
    5     1.357e-01  
    6     6.065e-02  
    7     1.815e-02  
    8     3.295e-03  
    9     1.295e-03  
   10     2.234e-04  
   11     7.656e-05  
   12     1.231e-05  
   13     4.380e-06  
   14     1.247e-06  
   15     4.090e-07  Converged.
   ... Converged in 15 steps (norm: 4.08982e-07)
------------------------------------
  Starting TPA DIIS iterations ... 
------------------------------------ 
   It     Res. Norm  Remark
------------------------------------
                       Guess.
    1     6.206e+00  
    2     9.377e+00  
    3     1.606e+00  
    4     5.031e-01  
    5     1.352e-01  
    6     6.086e-02  
    7     1.787e-02  
    8     3.356e-03  
    9     1.318e-03  
   10     2.225e-04  
   11     7.699e-05  
   12     1.217e-05  
   13     4.462e-06  
   14     1.234e-06  
   15     4.070e-07  Converged.
   ... Converged in 15 steps (norm: 4.06959e-07)
------------------------------------
  Starting TPA DIIS iterations ... 
------------------------------------ 
   It     Res. Norm  Remark
------------------------------------
                       Guess.
    1     7.594e-01  
    2     5.938e-01  
    3     2.368e-01  
    4     1.376e-01  
    5     2.929e-02  
    6     1.187e-02  
    7     2.315e-03  
    8     1.185e-03  
    9     3.509e-04  
   10     4.826e-05  
   11     1.043e-05  
   12     4.757e-06  
   13     3.166e-06  
   14     9.407e-07  Converged.
   ... Converged in 14 steps (norm: 9.40655e-07)
------------------------------------
  Starting TPA DIIS iterations ... 
------------------------------------ 
   It     Res. Norm  Remark
------------------------------------
                       Guess.
    1     8.345e+00  
    2     1.366e+01  
    3     2.185e+00  
    4     7.632e-01  
    5     2.077e-01  
    6     9.571e-02  
    7     2.814e-02  
    8     5.080e-03  
    9     2.050e-03  
   10     3.566e-04  
   11     1.248e-04  
   12     2.040e-05  
   13     7.399e-06  
   14     2.193e-06  
   15     7.057e-07  Converged.
   ... Converged in 15 steps (norm: 7.05702e-07)
------------------------------------
  Starting TPA DIIS iterations ... 
------------------------------------ 
   It     Res. Norm  Remark
------------------------------------
                       Guess.
    1     7.934e+00  
    2     1.298e+01  
    3     2.081e+00  
    4     7.505e-01  
    5     2.071e-01  
    6     9.624e-02  
    7     2.771e-02  
    8     5.188e-03  
    9     2.089e-03  
   10     3.552e-04  
   11     1.251e-04  
   12     2.013e-05  
   13     7.525e-06  
   14     2.170e-06  
   15     7.001e-07  Converged.
   ... Converged in 15 steps (norm: 7.00077e-07)
------------------------------------
  Starting TPA DIIS iterations ... 
------------------------------------ 
   It     Res. Norm  Remark
------------------------------------
                       Guess.
    1     8.039e-01  
    2     6.749e-01  
    3     2.896e-01  
    4     2.158e-01  
    5     3.916e-02  
    6     1.722e-02  
    7     3.776e-03  
    8     1.730e-03  
    9     5.363e-04  
   10     5.535e-05  
   11     1.630e-05  
   12     7.932e-06  
   13     6.214e-06  
   14     1.599e-06  
   15     5.988e-07  Converged.
   ... Converged in 15 steps (norm: 5.9878e-07)
------------------------------------
  Starting TPA DIIS iterations ... 
------------------------------------ 
   It     Res. Norm  Remark
------------------------------------
                       Guess.
    1     1.014e+01  
    2     1.767e+01  
    3     2.668e+00  
    4     1.041e+00  
    5     2.873e-01  
    6     1.354e-01  
    7     3.920e-02  
    8     7.045e-03  
    9     2.901e-03  
   10     5.058e-04  
   11     1.764e-04  
   12     2.963e-05  
   13     1.062e-05  
   14     3.396e-06  
   15     1.091e-06  
   16     2.417e-07  Converged.
   ... Converged in 16 steps (norm: 2.41716e-07)
------------------------------------
  Starting TPA DIIS iterations ... 
------------------------------------ 
   It     Res. Norm  Remark
------------------------------------
                       Guess.
    1     9.641e+00  
    2     1.678e+01  
    3     2.539e+00  
    4     1.021e+00  
    5     2.865e-01  
    6     1.364e-01  
    7     3.861e-02  
    8     7.210e-03  
    9     2.957e-03  
   10     5.036e-04  
   11     1.767e-04  
   12     2.921e-05  
   13     1.079e-05  
   14     3.350e-06  
   15     1.085e-06  
   16     2.493e-07  Converged.
   ... Converged in 16 steps (norm: 2.49322e-07)
------------------------------------
  Starting TPA DIIS iterations ... 
------------------------------------ 
   It     Res. Norm  Remark
------------------------------------
                       Guess.
    1     8.385e-01  
    2     7.458e-01  
    3     3.381e-01  
    4     2.959e-01  
    5     4.969e-02  
    6     2.291e-02  
    7     5.482e-03  
    8     2.029e-03  
    9     6.995e-04  
   10     7.184e-05  
   11     2.316e-05  
   12     1.119e-05  
   13     9.713e-06  
   14     2.292e-06  
   15     7.893e-07  Converged.
   ... Converged in 15 steps (norm: 7.89337e-07)
------------------------------------
  Starting TPA DIIS iterations ... 
------------------------------------ 
   It     Res. Norm  Remark
------------------------------------
                       Guess.
    1     1.114e+01  
    2     1.997e+01  
    3     2.929e+00  
    4     1.203e+00  
    5     3.343e-01  
    6     1.592e-01  
    7     4.573e-02  
    8     8.201e-03  
    9     3.407e-03  
   10     5.941e-04  
   11     2.057e-04  
   12     3.530e-05  
   13     1.252e-05  
   14     4.160e-06  
   15     1.390e-06  
   16     3.052e-07  Converged.
   ... Converged in 16 steps (norm: 3.0517e-07)
------------------------------------
  Starting TPA DIIS iterations ... 
------------------------------------ 
   It     Res. Norm  Remark
------------------------------------
                       Guess.
    1     1.058e+01  
    2     1.897e+01  
    3     2.787e+00  
    4     1.178e+00  
    5     3.334e-01  
    6     1.604e-01  
    7     4.505e-02  
    8     8.401e-03  
    9     3.474e-03  
   10     5.914e-04  
   11     2.061e-04  
   12     3.477e-05  
   13     1.272e-05  
   14     4.093e-06  
   15     1.386e-06  
   16     3.132e-07  Converged.
   ... Converged in 16 steps (norm: 3.13202e-07)
------------------------------------
  Starting TPA DIIS iterations ... 
------------------------------------ 
   It     Res. Norm  Remark
------------------------------------
                       Guess.
    1     8.548e-01  
    2     7.821e-01  
    3     3.636e-01  
    4     3.383e-01  
    5     5.573e-02  
    6     2.607e-02  
    7     6.496e-03  
    8     2.118e-03  
    9     7.839e-04  
   10     8.333e-05  
   11     2.730e-05  
   12     1.301e-05  
   13     1.177e-05  
   14     2.671e-06  
   15     8.669e-07  Converged.
   ... Converged in 15 steps (norm: 8.66865e-07)
------------------------------------
  Starting TPA DIIS iterations ... 
------------------------------------ 
   It     Res. Norm  Remark
------------------------------------
                       Guess.
    1     1.165e+01  
    2     2.120e+01  
    3     3.063e+00  
    4     1.290e+00  
    5     3.595e-01  
    6     1.721e-01  
    7     4.923e-02  
    8     8.821e-03  
    9     3.681e-03  
   10     6.415e-04  
   11     2.211e-04  
   12     3.842e-05  
   13     1.357e-05  
   14     4.584e-06  
   15     1.578e-06  
   16     3.414e-07  Converged.
   ... Converged in 16 steps (norm: 3.41351e-07)
------------------------------------
  Starting TPA DIIS iterations ... 
------------------------------------ 
   It     Res. Norm  Remark
------------------------------------
                       Guess.
    1     1.107e+01  
    2     2.014e+01  
    3     2.915e+00  
    4     1.262e+00  
    5     3.585e-01  
    6     1.734e-01  
    7     4.850e-02  
    8     9.040e-03  
    9     3.753e-03  
   10     6.385e-04  
   11     2.217e-04  
   12     3.784e-05  
   13     1.379e-05  
   14     4.505e-06  
   15     1.574e-06  
   16     3.481e-07  Converged.
   ... Converged in 16 steps (norm: 3.48132e-07)
------------------------------------
  Starting TPA DIIS iterations ... 
------------------------------------ 
   It     Res. Norm  Remark
------------------------------------
                       Guess.
    1     8.627e-01  
    2     8.003e-01  
    3     3.765e-01  
    4     3.594e-01  
    5     5.893e-02  
    6     2.770e-02  
    7     7.038e-03  
    8     2.151e-03  
    9     8.267e-04  
   10     8.964e-05  
   11     2.954e-05  
   12     1.397e-05  
   13     1.290e-05  
   14     2.863e-06  
   15     9.010e-07  Converged.
   ... Converged in 15 steps (norm: 9.00996e-07)
------------------------------------
  Two-photon absorbption ...  CPU 64.15 s  wall 20.75 s
  Transition density matrix of state singlet_A_1 printed to ASCII file 'State_singlet_A_1_Transition.txt'
  Transition density matrix of state singlet_A_2 printed to ASCII file 'State_singlet_A_2_Transition.txt'
  Transition density matrix of state singlet_A_3 printed to ASCII file 'State_singlet_A_3_Transition.txt'
  Transition density matrix of state singlet_A_4 printed to ASCII file 'State_singlet_A_4_Transition.txt'
  Transition density matrix of state singlet_A_5 printed to ASCII file 'State_singlet_A_5_Transition.txt'
  Transition density matrix of state singlet_A_6 printed to ASCII file 'State_singlet_A_6_Transition.txt'
  Transition density matrix of state singlet_A_7 printed to ASCII file 'State_singlet_A_7_Transition.txt'
  Transition density matrix of state singlet_A_8 printed to ASCII file 'State_singlet_A_8_Transition.txt'
  Transition density matrix of state singlet_A_9 printed to ASCII file 'State_singlet_A_9_Transition.txt'
  Transition density matrix of state singlet_A_10 printed to ASCII file 'State_singlet_A_10_Transition.txt'
  Transition properties ...  CPU 0.30 s  wall 0.82 s
  Difference density matrix of state singlet_A_1 printed to ASCII file 'State_singlet_A_1_Difference.txt'
  Total density matrix of state singlet_A_1 printed to ASCII file 'State_singlet_A_1_Total.txt'
  Difference density matrix of state singlet_A_2 printed to ASCII file 'State_singlet_A_2_Difference.txt'
  Total density matrix of state singlet_A_2 printed to ASCII file 'State_singlet_A_2_Total.txt'
  Difference density matrix of state singlet_A_3 printed to ASCII file 'State_singlet_A_3_Difference.txt'
  Total density matrix of state singlet_A_3 printed to ASCII file 'State_singlet_A_3_Total.txt'
  Difference density matrix of state singlet_A_4 printed to ASCII file 'State_singlet_A_4_Difference.txt'
  Total density matrix of state singlet_A_4 printed to ASCII file 'State_singlet_A_4_Total.txt'
  Difference density matrix of state singlet_A_5 printed to ASCII file 'State_singlet_A_5_Difference.txt'
  Total density matrix of state singlet_A_5 printed to ASCII file 'State_singlet_A_5_Total.txt'
  Difference density matrix of state singlet_A_6 printed to ASCII file 'State_singlet_A_6_Difference.txt'
  Total density matrix of state singlet_A_6 printed to ASCII file 'State_singlet_A_6_Total.txt'
  Difference density matrix of state singlet_A_7 printed to ASCII file 'State_singlet_A_7_Difference.txt'
  Total density matrix of state singlet_A_7 printed to ASCII file 'State_singlet_A_7_Total.txt'
  Difference density matrix of state singlet_A_8 printed to ASCII file 'State_singlet_A_8_Difference.txt'
  Total density matrix of state singlet_A_8 printed to ASCII file 'State_singlet_A_8_Total.txt'
  Difference density matrix of state singlet_A_9 printed to ASCII file 'State_singlet_A_9_Difference.txt'
  Total density matrix of state singlet_A_9 printed to ASCII file 'State_singlet_A_9_Total.txt'
  Difference density matrix of state singlet_A_10 printed to ASCII file 'State_singlet_A_10_Difference.txt'
  Total density matrix of state singlet_A_10 printed to ASCII file 'State_singlet_A_10_Total.txt'
  Properties ...  CPU 0.52 s  wall 1.25 s
  ISR TDMS ...  CPU 13.24 s  wall 4.45 s
  ISR transition properties ...  CPU 0.22 s  wall 0.11 s
  Sum-over-states TPA ...  CPU 0.00 s  wall 0.00 s

--------------------------------------------------------------------------------
                   State-averaged natural transition orbitals
--------------------------------------------------------------------------------
--------------------------------------------------------------------------------
  SA-NTO decomposition ...  CPU 0.01 s  wall 0.04 s

--------------------------------------------------------------------------------
                             Excited State Summary
--------------------------------------------------------------------------------
--------------------------------------------------------------------------------

  Excited state 1 (singlet, A)                                     [converged]
  ----------------------------------------------------------------------------
  Term symbol:  2 (1) A                                     R^2 =  3.73293e-10

  Total energy:                                            -77.9992522011 a.u.
  Excitation energy:                                               8.731815 eV

  Osc. strength:                                                      0.446208
  Trans. dip. moment [a.u.]:           [   1.047181,   -0.994548,   -0.009709]
  <i|r^2|0> [a.u.]:                    [   6.179376,   -0.245449,    0.000156]
  Two-photon absorption cross-section (SoS) [a.u.]:                   0.000000
  Two-photon absorption matrix (SoS) [a.u.]:
                                       |    0.000033   -0.000005    0.000032 |
                                       |   -0.000005    0.000010    0.000064 |
                                       |    0.000032    0.000064    0.000027 |
  Two-photon absorption cross-section [a.u.]:                         0.000001
  Two-photon absorption matrix [a.u.]:
                                       |    0.000022    0.000017   -0.000252 |
                                       |    0.000017   -0.000010   -0.000208 |
                                       |   -0.000252   -0.000208   -0.000041 |

  Dip. moment [a.u.]:                  [  -0.000004,    0.000000,    0.000019]
  Total dipole [Debye]:                                               0.000050
  <r^2> [a.u.]:                        [ 176.610274,   36.019509,   11.918953]
  Total <r^2> [a.u.]:                                               224.548736

  V1^2 = 0.9713, V2^2 = 0.0287

  Important amplitudes:
      occ i     occ j     vir a      vir b          v   
    -----------------------------------------------------
     8 (A) A              9 (A) A                 0.6809
     6 (A) A             14 (A) A                -0.0617
     4 (A) A             10 (A) A                 0.0614
     7 (A) A             16 (A) A                -0.0575
     5 (A) A             13 (A) A                -0.0527
     6 (A) A             23 (A) A                -0.0485
     8 (A) A             20 (A) A                 0.0348
     6 (A) A             19 (A) A                -0.0302
     3 (A) A             12 (A) A                -0.0285
     5 (A) A             22 (A) A                 0.0218
     4 (A) A             24 (A) A                 0.0188
     3 (A) A             26 (A) A                 0.0187
     7 (A) A             11 (A) A                 0.0186
     8 (A) A   8 (A) B   17 (A) A   20 (A) B     -0.0184
     8 (A) A   8 (A) B    9 (A) A   28 (A) B     -0.0168
     6 (A) A             26 (A) A                 0.0163
     7 (A) A             21 (A) A                -0.0152
     3 (A) A             14 (A) A                -0.0143
     6 (A) A             12 (A) A                 0.0136
     3 (A) A   4 (A) B    9 (A) A    9 (A) B     -0.0129
     3 (A) A             19 (A) A                -0.0121
     8 (A) A   8 (A) B   18 (A) A   19 (A) B      0.0111
     7 (A) A             32 (A) A                -0.0097
     7 (A) A             36 (A) A                -0.0086
     3 (A) A             23 (A) A                -0.0082
     8 (A) A   8 (A) B   25 (A) A   29 (A) B     -0.0076
     6 (A) A             35 (A) A                 0.0072
     6 (A) A             40 (A) A                -0.0067
     3 (A) A   6 (A) B    9 (A) A   28 (A) B     -0.0065
     5 (A) A   8 (A) B   11 (A) A    9 (A) B     -0.0062
     7 (A) A   8 (A) B   13 (A) A   20 (A) B     -0.0060
     5 (A) A   8 (A) B   11 (A) A   20 (A) B      0.0060
     5 (A) A   7 (A) B    9 (A) A    9 (A) B      0.0060
     6 (A) A   8 (A) A   19 (A) A   28 (A) A     -0.0060
     5 (A) A             27 (A) A                -0.0060
     5 (A) A   8 (A) B   16 (A) A    9 (A) B     -0.0059
     3 (A) A   5 (A) B    9 (A) A   25 (A) B     -0.0058
     7 (A) A   8 (A) B   22 (A) A   20 (A) B      0.0057
     3 (A) A             40 (A) A                -0.0056
     8 (A) A   8 (A) B   19 (A) A   30 (A) B      0.0056
    -----------------------------------------------------

  Density matrix analysis:
  ------------------------
  NOs
    Occupation of frontier NOs:
       0.9491   1.0219
    Number of electrons: 16.000000
    Number of unpaired electrons: n_u =  2.31678, n_u,nl =  2.03329
    NO participation ratio (PR_NO):  2.874063
  
  
  Mulliken Population Analysis
  Atom      Charge (e)              h+              e-           Del q
  --------------------------------------------------------------------
   1 H        0.062988        0.020437       -0.012418        0.008019
   2 C       -0.125979        0.490666       -0.506704       -0.016039
   3 H        0.062998        0.020439       -0.012418        0.008020
   4 C       -0.125990        0.490665       -0.506706       -0.016041
   5 H        0.062997        0.020439       -0.012418        0.008021
   6 H        0.062986        0.020437       -0.012418        0.008019
  --------------------------------------------------------------------
  Sum:       -0.000000        1.063083       -1.063083        0.000000
  
  Multipole moment analysis of the density matrix
    Molecular charge:                      -0.000000
    Number of electrons:                   16.000000
      Center of electronic charge [Ang]: [ -1.561338,  -0.065287,   0.002126]
    Total nuclear charge:                  16.000000
      Center of nuclear charge [Ang]:    [ -1.561339,  -0.065287,   0.002127]
    Dipole moment [D]:                     0.000050
      Cartesian components [D]:          [ -0.000010,   0.000001,   0.000049]
    RMS size of the density [Ang]:         1.219819
      Cartesian components [Ang]:        [  0.808218,   0.791292,   0.456726]
  
  Exciton analysis of the difference density matrix
    <r_h> [Ang]:                  [ -1.561336,  -0.065287,   0.002119]
    <r_e> [Ang]:                  [ -1.561336,  -0.065287,   0.002117]
    |<r_e - r_h>| [Ang]:            0.000002
    Hole size [Ang]:                1.287296
      Cartesian components [Ang]: [  0.730184,   0.714790,   0.782968]
    Electron size [Ang]:            1.463845
      Cartesian components [Ang]: [  0.854312,   0.831684,   0.849291]

  Transition density matrix analysis:
  -----------------------------------
  
  CT numbers (Mulliken)
    omega =     0.9532
    <Phe> =    -0.1603
  
  Exciton analysis of the transition density matrix
    Trans. dipole moment [D]:             1.835436
      Cartesian components [D]:         [  1.330834,  -1.263945,  -0.012339]
    <r_h> [Ang]:                        [ -1.561335,  -0.065289,   0.002120]
    <r_e> [Ang]:                        [ -1.561336,  -0.065287,   0.002116]
    |<r_e - r_h>| [Ang]:                  0.000005
    Hole size [Ang]:                      1.214402
      Cartesian components [Ang]:       [  0.649921,   0.637059,   0.804072]
    Electron size [Ang]:                  1.486740
      Cartesian components [Ang]:       [  0.864777,   0.840557,   0.869494]
    RMS electron-hole separation [Ang]:   1.937164
      Cartesian components [Ang]:       [  1.106771,   1.076278,   1.170166]
    Covariance(r_h, r_e) [Ang^2]:        -0.033718
    Correlation coefficient:             -0.018675
    Center-of-mass size [Ang]:            0.951017
      Cartesian components [Ang]:       [  0.528094,   0.516329,   0.599127]

  Decomposition into state-averaged NTOs
    H- 0 -> L+ 0:  0.6697 ( 89.7%)
    H- 2 -> L+ 5:  0.0830 (  1.4%)
                   omega =  95.3%
  ----------------------------------------------------------------------------


  Excited state 2 (singlet, A)                                     [converged]
  ----------------------------------------------------------------------------
  Term symbol:  3 (1) A                                     R^2 =  1.07397e-11

  Total energy:                                            -77.9911432604 a.u.
  Excitation energy:                                               8.952471 eV

  Osc. strength:                                                      0.000000
  Trans. dip. moment [a.u.]:           [  -0.000546,    0.000502,    0.000010]
  <i|r^2|0> [a.u.]:                    [  -0.069163,   -0.086714,    0.152778]
  Two-photon absorption cross-section (SoS) [a.u.]:                   4.564804
  Two-photon absorption matrix (SoS) [a.u.]:
                                       |   -0.049922   -0.057403    0.514401 |
                                       |   -0.057403   -0.065534    0.540960 |
                                       |    0.514401    0.540960    0.115457 |
  Two-photon absorption cross-section [a.u.]:                         0.172404
  Two-photon absorption matrix [a.u.]:
                                       |    0.008915    0.011116   -0.100021 |
                                       |    0.011116    0.013522   -0.105070 |
                                       |   -0.100021   -0.105070   -0.022436 |

  Dip. moment [a.u.]:                  [  -0.000049,    0.000053,    0.000037]
  Total dipole [Debye]:                                               0.000206
  <r^2> [a.u.]:                        [ 174.946152,   34.365857,   13.214938]
  Total <r^2> [a.u.]:                                               222.526948

  V1^2 = 0.9541, V2^2 = 0.0459

  Important amplitudes:
      occ i     occ j     vir a      vir b          v   
    -----------------------------------------------------
     7 (A) A              9 (A) A                -0.6685
     8 (A) A             11 (A) A                -0.1513
     7 (A) A             20 (A) A                -0.0756
     5 (A) A   8 (A) B    9 (A) A    9 (A) B     -0.0315
     8 (A) A             16 (A) A                -0.0281
     8 (A) A             21 (A) A                 0.0178
     5 (A) A             28 (A) A                -0.0150
     4 (A) A   7 (A) B    9 (A) A   19 (A) B     -0.0136
     5 (A) A   7 (A) B    9 (A) A   16 (A) B     -0.0134
     7 (A) A   8 (A) B   20 (A) A   17 (A) B      0.0106
     7 (A) A   8 (A) A    9 (A) A   28 (A) A     -0.0098
     5 (A) A   8 (A) B    9 (A) A   20 (A) B     -0.0094
     4 (A) A   6 (A) B    9 (A) A   16 (A) B     -0.0091
     5 (A) A   6 (A) A    9 (A) A   23 (A) A     -0.0090
     5 (A) A   6 (A) A    9 (A) A   14 (A) A     -0.0089
     5 (A) A   6 (A) B    9 (A) A   19 (A) B     -0.0086
     8 (A) A   7 (A) B    9 (A) A   28 (A) B      0.0085
     6 (A) A   7 (A) B    9 (A) A   18 (A) B      0.0085
     4 (A) A   5 (A) A    9 (A) A   10 (A) A     -0.0085
     5 (A) A   6 (A) B    9 (A) A   23 (A) B     -0.0080
     3 (A) A   7 (A) B    9 (A) A   18 (A) B     -0.0080
     5 (A) A   7 (A) A    9 (A) A   16 (A) A     -0.0078
     4 (A) A   8 (A) B    9 (A) A   25 (A) B     -0.0076
     4 (A) A   7 (A) B   19 (A) A    9 (A) B     -0.0075
     7 (A) A   8 (A) B   17 (A) A   20 (A) B      0.0074
     5 (A) A   5 (A) B    9 (A) A   13 (A) B     -0.0073
     7 (A) A   8 (A) B   19 (A) A   18 (A) B     -0.0071
     4 (A) A   5 (A) B    9 (A) A   18 (A) B      0.0069
     5 (A) A   8 (A) A    9 (A) A   20 (A) A     -0.0068
     7 (A) A   7 (A) B   20 (A) A   22 (A) B     -0.0066
     7 (A) A   8 (A) B   17 (A) A    9 (A) B      0.0065
     5 (A) A   6 (A) B    9 (A) A   14 (A) B     -0.0063
     5 (A) A   7 (A) B   11 (A) A   20 (A) B     -0.0062
     4 (A) A   5 (A) B   10 (A) A    9 (A) B      0.0061
     4 (A) A   7 (A) A    9 (A) A   19 (A) A     -0.0061
     5 (A) A             38 (A) A                -0.0060
     4 (A) A   6 (A) B   16 (A) A    9 (A) B     -0.0058
     4 (A) A   8 (A) A    9 (A) A   25 (A) A     -0.0057
     6 (A) A   7 (A) A   19 (A) A   28 (A) A      0.0056
     5 (A) A   7 (A) A   11 (A) A   20 (A) A     -0.0054
    -----------------------------------------------------

  Density matrix analysis:
  ------------------------
  NOs
    Occupation of frontier NOs:
       0.9560   1.0553
    Number of electrons: 16.000000
    Number of unpaired electrons: n_u =  2.35842, n_u,nl =  2.06490
    NO participation ratio (PR_NO):  3.045342
  
  
  Mulliken Population Analysis
  Atom      Charge (e)              h+              e-           Del q
  --------------------------------------------------------------------
   1 H        0.155080        0.124906       -0.024794        0.100111
   2 C       -0.310151        0.272574       -0.472784       -0.200210
   3 H        0.155064        0.124889       -0.024803        0.100086
   4 C       -0.310158        0.272592       -0.472800       -0.200208
   5 H        0.155077        0.124898       -0.024797        0.100101
   6 H        0.155088        0.124918       -0.024798        0.100121
  --------------------------------------------------------------------
  Sum:       -0.000000        1.044776       -1.044776        0.000000
  
  Multipole moment analysis of the density matrix
    Molecular charge:                      -0.000000
    Number of electrons:                   16.000000
      Center of electronic charge [Ang]: [ -1.561337,  -0.065288,   0.002126]
    Total nuclear charge:                  16.000000
      Center of nuclear charge [Ang]:    [ -1.561339,  -0.065287,   0.002127]
    Dipole moment [D]:                     0.000206
      Cartesian components [D]:          [ -0.000124,   0.000135,   0.000095]
    RMS size of the density [Ang]:         1.205229
      Cartesian components [Ang]:        [  0.789998,   0.772788,   0.480916]
  
  Exciton analysis of the difference density matrix
    <r_h> [Ang]:                  [ -1.561370,  -0.065262,   0.002129]
    <r_e> [Ang]:                  [ -1.561348,  -0.065288,   0.002118]
    |<r_e - r_h>| [Ang]:            0.000036
    Hole size [Ang]:                1.496148
      Cartesian components [Ang]: [  1.013898,   1.001262,   0.456009]
    Electron size [Ang]:            1.480153
      Cartesian components [Ang]: [  0.884395,   0.862114,   0.815755]

  Transition density matrix analysis:
  -----------------------------------
  
  CT numbers (Mulliken)
    omega =     0.9214
    <Phe> =    -0.0114
  
  Exciton analysis of the transition density matrix
    Trans. dipole moment [D]:             0.000943
      Cartesian components [D]:         [ -0.000694,   0.000638,   0.000013]
    <r_h> [Ang]:                        [ -1.561376,  -0.065257,   0.002131]
    <r_e> [Ang]:                        [ -1.561344,  -0.065291,   0.002116]
    |<r_e - r_h>| [Ang]:                  0.000049
    Hole size [Ang]:                      1.527093
      Cartesian components [Ang]:       [  1.038706,   1.026037,   0.447608]
    Electron size [Ang]:                  1.475564
      Cartesian components [Ang]:       [  0.873339,   0.850284,   0.831616]
    RMS electron-hole separation [Ang]:   2.103539
      Cartesian components [Ang]:       [  1.341048,   1.317568,   0.943652]
    Covariance(r_h, r_e) [Ang^2]:         0.042213
    Correlation coefficient:              0.018734
    Center-of-mass size [Ang]:            1.071649
      Cartesian components [Ang]:       [  0.686450,   0.673699,   0.472598]

  Decomposition into state-averaged NTOs
    H- 1 -> L+ 0: -0.6608 ( 87.3%)
    H- 0 -> L+ 2:  0.1513 (  4.6%)
                   omega =  92.1%
  ----------------------------------------------------------------------------


  Excited state 3 (singlet, A)                                     [converged]
  ----------------------------------------------------------------------------
  Term symbol:  4 (1) A                                     R^2 =  2.95154e-11

  Total energy:                                            -77.9841904825 a.u.
  Excitation energy:                                               9.141665 eV

  Osc. strength:                                                      0.023581
  Trans. dip. moment [a.u.]:           [   0.015403,    0.019672,   -0.323519]
  <i|r^2|0> [a.u.]:                    [   0.090673,    0.005050,    0.002609]
  Two-photon absorption cross-section (SoS) [a.u.]:                   0.000016
  Two-photon absorption matrix (SoS) [a.u.]:
                                       |   -0.001361   -0.000071   -0.000152 |
                                       |   -0.000071    0.001426    0.000032 |
                                       |   -0.000152    0.000032    0.000133 |
  Two-photon absorption cross-section [a.u.]:                         0.000009
  Two-photon absorption matrix [a.u.]:
                                       |   -0.000923   -0.000074   -0.000134 |
                                       |   -0.000074    0.001091    0.000038 |
                                       |   -0.000134    0.000038    0.000078 |

  Dip. moment [a.u.]:                  [   0.000037,    0.000054,   -0.000016]
  Total dipole [Debye]:                                               0.000170
  <r^2> [a.u.]:                        [ 181.388417,   41.008916,   11.057311]
  Total <r^2> [a.u.]:                                               233.454645

  V1^2 = 0.9580, V2^2 = 0.0420

  Important amplitudes:
      occ i     occ j     vir a      vir b          v   
    -----------------------------------------------------
     8 (A) A             10 (A) A                 0.6887
     8 (A) A             24 (A) A                 0.0508
     8 (A) A             18 (A) A                -0.0332
     4 (A) A              9 (A) A                 0.0247
     8 (A) A   8 (A) B    9 (A) A   12 (A) B     -0.0223
     8 (A) A   8 (A) B   10 (A) A   17 (A) B      0.0172
     5 (A) A   8 (A) B   11 (A) A   10 (A) B     -0.0169
     8 (A) A             15 (A) A                 0.0149
     7 (A) A   8 (A) B   13 (A) A   10 (A) B      0.0143
     4 (A) A   8 (A) B   12 (A) A   10 (A) B     -0.0113
     6 (A) A   8 (A) A   10 (A) A   15 (A) A     -0.0112
     7 (A) A   8 (A) B   22 (A) A   10 (A) B     -0.0109
     6 (A) A   8 (A) B   15 (A) A   10 (A) B      0.0109
     4 (A) A   8 (A) A   10 (A) A   12 (A) A      0.0108
     7 (A) A   8 (A) A   10 (A) A   22 (A) A      0.0099
     7 (A) A   8 (A) A   10 (A) A   13 (A) A     -0.0098
     5 (A) A   8 (A) A   10 (A) A   11 (A) A      0.0097
     5 (A) A   8 (A) B   21 (A) A   10 (A) B      0.0094
     6 (A) A   8 (A) B   10 (A) A   10 (A) B     -0.0090
     6 (A) A   8 (A) A   10 (A) A   18 (A) A     -0.0086
     7 (A) A   8 (A) A   12 (A) A   16 (A) A      0.0084
     3 (A) A   4 (A) B   10 (A) A    9 (A) B     -0.0080
     5 (A) A   8 (A) A   10 (A) A   21 (A) A     -0.0079
     4 (A) A   8 (A) B   19 (A) A   10 (A) B     -0.0076
     8 (A) A   8 (A) B    9 (A) A   23 (A) B      0.0075
     8 (A) A   8 (A) B   10 (A) A   28 (A) B     -0.0074
     5 (A) A   8 (A) B   10 (A) A   11 (A) B     -0.0072
     7 (A) A   8 (A) B   16 (A) A   12 (A) B     -0.0072
     3 (A) A   8 (A) A   10 (A) A   24 (A) A     -0.0072
     3 (A) A   8 (A) B   10 (A) A   10 (A) B      0.0071
     8 (A) A   8 (A) B    9 (A) A   19 (A) B     -0.0070
     3 (A) A   8 (A) B   10 (A) A   18 (A) B     -0.0068
     6 (A) A   8 (A) B   18 (A) A   10 (A) B      0.0065
     3 (A) A   6 (A) B   10 (A) A   28 (A) B     -0.0062
     7 (A) A   8 (A) B   12 (A) A   11 (A) B     -0.0059
     6 (A) A             28 (A) A                 0.0058
     5 (A) A   8 (A) A   10 (A) A   16 (A) A      0.0057
     3 (A) A   5 (A) B   10 (A) A   25 (A) B     -0.0056
     6 (A) A   8 (A) A   11 (A) A   16 (A) A      0.0055
     4 (A) A   8 (A) A   10 (A) A   23 (A) A     -0.0055
    -----------------------------------------------------

  Density matrix analysis:
  ------------------------
  NOs
    Occupation of frontier NOs:
       0.9812   0.9847
    Number of electrons: 16.000000
    Number of unpaired electrons: n_u =  2.28863, n_u,nl =  2.02504
    NO participation ratio (PR_NO):  2.701202
  
  
  Mulliken Population Analysis
  Atom      Charge (e)              h+              e-           Del q
  --------------------------------------------------------------------
   1 H       -0.155087        0.054352       -0.264408       -0.210056
   2 C        0.310176        0.538090       -0.117974        0.420117
   3 H       -0.155088        0.054353       -0.264419       -0.210066
   4 C        0.310168        0.538086       -0.117969        0.420118
   5 H       -0.155070        0.054354       -0.264401       -0.210047
   6 H       -0.155099        0.054352       -0.264418       -0.210066
  --------------------------------------------------------------------
  Sum:       -0.000000        1.293588       -1.293588        0.000000
  
  Multipole moment analysis of the density matrix
    Molecular charge:                      -0.000000
    Number of electrons:                   16.000000
      Center of electronic charge [Ang]: [ -1.561340,  -0.065288,   0.002128]
    Total nuclear charge:                  16.000000
      Center of nuclear charge [Ang]:    [ -1.561339,  -0.065287,   0.002127]
    Dipole moment [D]:                     0.000170
      Cartesian components [D]:          [  0.000093,   0.000136,  -0.000042]
    RMS size of the density [Ang]:         1.282117
      Cartesian components [Ang]:        [  0.858393,   0.844669,   0.439907]
  
  Exciton analysis of the difference density matrix
    <r_h> [Ang]:                  [ -1.561337,  -0.065288,   0.002122]
    <r_e> [Ang]:                  [ -1.561354,  -0.065309,   0.002135]
    |<r_e - r_h>| [Ang]:            0.000030
    Hole size [Ang]:                1.412900
      Cartesian components [Ang]: [  0.836551,   0.822684,   0.787185]
    Electron size [Ang]:            2.079253
      Cartesian components [Ang]: [  1.376860,   1.380379,   0.722567]

  Transition density matrix analysis:
  -----------------------------------
  
  CT numbers (Mulliken)
    omega =     0.9250
    <Phe> =    -0.0109
  
  Exciton analysis of the transition density matrix
    Trans. dipole moment [D]:             0.412375
      Cartesian components [D]:         [  0.019576,   0.025000,  -0.411151]
    <r_h> [Ang]:                        [ -1.561334,  -0.065288,   0.002118]
    <r_e> [Ang]:                        [ -1.561359,  -0.065318,   0.002139]
    |<r_e - r_h>| [Ang]:                  0.000044
    Hole size [Ang]:                      1.212750
      Cartesian components [Ang]:       [  0.636285,   0.623745,   0.822707]
    Electron size [Ang]:                  2.301788
      Cartesian components [Ang]:       [  1.523316,   1.529518,   0.798945]
    RMS electron-hole separation [Ang]:   2.591630
      Cartesian components [Ang]:       [  1.643221,   1.644664,   1.145184]
    Covariance(r_h, r_e) [Ang^2]:         0.026223
    Correlation coefficient:              0.009394
    Center-of-mass size [Ang]:            1.305894
      Cartesian components [Ang]:       [  0.829235,   0.829464,   0.574211]

  Decomposition into state-averaged NTOs
    H- 0 -> L+ 1:  0.6794 ( 92.3%)
                   omega =  92.5%
  ----------------------------------------------------------------------------


  Excited state 4 (singlet, A)                                     [converged]
  ----------------------------------------------------------------------------
  Term symbol:  5 (1) A                                     R^2 =  1.62130e-11

  Total energy:                                            -77.9622664412 a.u.
  Excitation energy:                                               9.738249 eV

  Osc. strength:                                                      0.000000
  Trans. dip. moment [a.u.]:           [   0.000165,   -0.000154,   -0.000007]
  <i|r^2|0> [a.u.]:                    [  -0.012794,   -0.018243,    0.031974]
  Two-photon absorption cross-section (SoS) [a.u.]:                 134.682542
  Two-photon absorption matrix (SoS) [a.u.]:
                                       |   -0.270695   -0.311783    2.794424 |
                                       |   -0.311783   -0.356438    2.938110 |
                                       |    2.794424    2.938110    0.627134 |
  Two-photon absorption cross-section [a.u.]:                        80.039940
  Two-photon absorption matrix [a.u.]:
                                       |   -0.209286   -0.240383    2.154116 |
                                       |   -0.240383   -0.274172    2.265091 |
                                       |    2.154116    2.265091    0.483459 |

  Dip. moment [a.u.]:                  [  -0.000054,   -0.000047,   -0.000028]
  Total dipole [Debye]:                                               0.000196
  <r^2> [a.u.]:                        [ 181.496134,   41.010704,   10.786841]
  Total <r^2> [a.u.]:                                               233.293679

  V1^2 = 0.9633, V2^2 = 0.0367

  Important amplitudes:
      occ i     occ j     vir a      vir b          v   
    -----------------------------------------------------
     8 (A) A             11 (A) A                -0.6688
     7 (A) A              9 (A) A                 0.1535
     8 (A) A             21 (A) A                 0.0779
     8 (A) A             16 (A) A                -0.0674
     8 (A) A   8 (A) B    9 (A) A   13 (A) B     -0.0167
     5 (A) A   8 (A) B   11 (A) A   11 (A) B      0.0157
     7 (A) A             20 (A) A                 0.0140
     8 (A) A   8 (A) B   11 (A) A   17 (A) B     -0.0137
     7 (A) A   8 (A) B   13 (A) A   11 (A) B     -0.0127
     4 (A) A   8 (A) B   12 (A) A   11 (A) B      0.0111
     8 (A) A   8 (A) B    9 (A) A   22 (A) B      0.0110
     5 (A) A   8 (A) A   11 (A) A   21 (A) A      0.0109
     7 (A) A   8 (A) A   11 (A) A   22 (A) A     -0.0095
     6 (A) A   8 (A) B   10 (A) A   11 (A) B      0.0091
     6 (A) A   8 (A) B   15 (A) A   11 (A) B     -0.0089
     7 (A) A   8 (A) B   22 (A) A   11 (A) B      0.0089
     3 (A) A   4 (A) B   11 (A) A    9 (A) B      0.0083
     3 (A) A   8 (A) B   11 (A) A   18 (A) B      0.0080
     6 (A) A   8 (A) A   11 (A) A   15 (A) A      0.0079
     7 (A) A   8 (A) A   13 (A) A   16 (A) A      0.0079
     7 (A) A   8 (A) A   11 (A) A   13 (A) A      0.0075
     4 (A) A   8 (A) B   19 (A) A   11 (A) B      0.0070
     5 (A) A   8 (A) B   21 (A) A   11 (A) B     -0.0069
     5 (A) A   8 (A) B    9 (A) A    9 (A) B      0.0069
     4 (A) A   8 (A) A   11 (A) A   12 (A) A     -0.0062
     3 (A) A   6 (A) B   11 (A) A   28 (A) B      0.0060
     6 (A) A   8 (A) A   11 (A) A   18 (A) A      0.0059
     6 (A) A   8 (A) B   18 (A) A   11 (A) B     -0.0058
     7 (A) A   8 (A) B   16 (A) A   13 (A) B     -0.0057
     3 (A) A   8 (A) B   11 (A) A   30 (A) B      0.0056
     5 (A) A   8 (A) B   10 (A) A   10 (A) B      0.0055
     7 (A) A   8 (A) B   12 (A) A   10 (A) B      0.0055
     8 (A) A   8 (A) B   20 (A) A   22 (A) B      0.0055
     6 (A) A   8 (A) B   11 (A) A   10 (A) B      0.0055
     3 (A) A   5 (A) B   11 (A) A   25 (A) B      0.0054
     3 (A) A   8 (A) A   11 (A) A   18 (A) A      0.0054
     3 (A) A   8 (A) A   11 (A) A   24 (A) A      0.0053
     5 (A) A   8 (A) A   11 (A) A   16 (A) A     -0.0049
     6 (A) A   8 (A) A   10 (A) A   16 (A) A     -0.0047
     8 (A) A   8 (A) B   11 (A) A   28 (A) B      0.0043
    -----------------------------------------------------

  Density matrix analysis:
  ------------------------
  NOs
    Occupation of frontier NOs:
       0.9386   1.0295
    Number of electrons: 16.000000
    Number of unpaired electrons: n_u =  2.32235, n_u,nl =  2.05106
    NO participation ratio (PR_NO):  2.932759
  
  
  Mulliken Population Analysis
  Atom      Charge (e)              h+              e-           Del q
  --------------------------------------------------------------------
   1 H       -0.125419        0.046016       -0.226405       -0.180388
   2 C        0.251082        0.495253       -0.134230        0.361023
   3 H       -0.125660        0.046005       -0.226642       -0.180638
   4 C        0.251068        0.495253       -0.134236        0.361017
   5 H       -0.125674        0.046006       -0.226656       -0.180650
   6 H       -0.125397        0.046017       -0.226381       -0.180364
  --------------------------------------------------------------------
  Sum:       -0.000000        1.174549       -1.174549        0.000000
  
  Multipole moment analysis of the density matrix
    Molecular charge:                      -0.000000
    Number of electrons:                   16.000000
      Center of electronic charge [Ang]: [ -1.561337,  -0.065285,   0.002128]
    Total nuclear charge:                  16.000000
      Center of nuclear charge [Ang]:    [ -1.561339,  -0.065287,   0.002127]
    Dipole moment [D]:                     0.000196
      Cartesian components [D]:          [ -0.000138,  -0.000120,  -0.000070]
    RMS size of the density [Ang]:         1.281021
      Cartesian components [Ang]:        [  0.859496,   0.844688,   0.434493]
  
  Exciton analysis of the difference density matrix
    <r_h> [Ang]:                  [ -1.561337,  -0.065284,   0.002122]
    <r_e> [Ang]:                  [ -1.561314,  -0.065262,   0.002141]
    |<r_e - r_h>| [Ang]:            0.000037
    Hole size [Ang]:                1.394931
      Cartesian components [Ang]: [  0.819576,   0.806326,   0.789915]
    Electron size [Ang]:            2.114340
      Cartesian components [Ang]: [  1.419382,   1.415539,   0.672338]

  Transition density matrix analysis:
  -----------------------------------
  
  CT numbers (Mulliken)
    omega =     0.9293
    <Phe> =    -0.0146
  
  Exciton analysis of the transition density matrix
    Trans. dipole moment [D]:             0.000287
      Cartesian components [D]:         [  0.000210,  -0.000196,  -0.000008]
    <r_h> [Ang]:                        [ -1.561338,  -0.065286,   0.002119]
    <r_e> [Ang]:                        [ -1.561311,  -0.065257,   0.002144]
    |<r_e - r_h>| [Ang]:                  0.000047
    Hole size [Ang]:                      1.229185
      Cartesian components [Ang]:       [  0.662001,   0.649553,   0.806678]
    Electron size [Ang]:                  2.247901
      Cartesian components [Ang]:       [  1.508880,   1.506084,   0.712775]
    RMS electron-hole separation [Ang]:   2.550884
      Cartesian components [Ang]:       [  1.638865,   1.631992,   1.075980]
    Covariance(r_h, r_e) [Ang^2]:         0.028471
    Correlation coefficient:              0.010304
    Center-of-mass size [Ang]:            1.286555
      Cartesian components [Ang]:       [  0.828259,   0.824169,   0.538475]

  Decomposition into state-averaged NTOs
    H- 0 -> L+ 2:  0.6641 ( 88.2%)
    H- 1 -> L+ 0:  0.1514 (  4.6%)
                   omega =  92.9%
  ----------------------------------------------------------------------------


  Excited state 5 (singlet, A)                                     [converged]
  ----------------------------------------------------------------------------
  Term symbol:  6 (1) A                                     R^2 =  8.22143e-11

  Total energy:                                            -77.9468237364 a.u.
  Excitation energy:                                              10.158466 eV

  Osc. strength:                                                      0.000000
  Trans. dip. moment [a.u.]:           [  -0.000034,   -0.000021,    0.000001]
  <i|r^2|0> [a.u.]:                    [   0.081084,   -0.097017,    0.015794]
  Two-photon absorption cross-section (SoS) [a.u.]:                 223.510439
  Two-photon absorption matrix (SoS) [a.u.]:
                                       |    0.367984    0.056049   -3.824033 |
                                       |    0.056049   -0.437559    3.625806 |
                                       |   -3.824033    3.625806    0.071065 |
  Two-photon absorption cross-section [a.u.]:                       115.473703
  Two-photon absorption matrix [a.u.]:
                                       |    0.265060    0.040661   -2.748612 |
                                       |    0.040661   -0.313906    2.606146 |
                                       |   -2.748612    2.606146    0.050954 |

  Dip. moment [a.u.]:                  [   0.000036,   -0.000055,   -0.000001]
  Total dipole [Debye]:                                               0.000166
  <r^2> [a.u.]:                        [ 180.371029,   39.752039,   11.600241]
  Total <r^2> [a.u.]:                                               231.723310

  V1^2 = 0.9554, V2^2 = 0.0446

  Important amplitudes:
      occ i     occ j     vir a      vir b          v   
    -----------------------------------------------------
     8 (A) A             12 (A) A                -0.5698
     6 (A) A              9 (A) A                -0.3819
     8 (A) A             19 (A) A                -0.0525
     6 (A) A             20 (A) A                -0.0520
     8 (A) A             23 (A) A                 0.0293
     8 (A) A   8 (A) B    9 (A) A   10 (A) B      0.0205
     8 (A) A             26 (A) A                 0.0185
     3 (A) A              9 (A) A                -0.0158
     4 (A) A   8 (A) B    9 (A) A    9 (A) B     -0.0158
     5 (A) A   8 (A) B   11 (A) A   12 (A) B      0.0149
     8 (A) A   8 (A) B   12 (A) A   17 (A) B     -0.0133
     7 (A) A   8 (A) B   13 (A) A   12 (A) B     -0.0130
     4 (A) A   8 (A) B   12 (A) A   12 (A) B      0.0124
     5 (A) A   8 (A) A   11 (A) A   12 (A) A      0.0109
     6 (A) A   8 (A) B   15 (A) A   12 (A) B     -0.0102
     7 (A) A   8 (A) B   22 (A) A   12 (A) B      0.0094
     6 (A) A   8 (A) A   12 (A) A   15 (A) A      0.0091
     6 (A) A   8 (A) B   10 (A) A   12 (A) B      0.0087
     7 (A) A   8 (A) A   12 (A) A   22 (A) A     -0.0086
     8 (A) A             14 (A) A                -0.0085
[...]
    16   -1.429264557076e-03
    17   -1.737904380196e-03
    18    1.360341088653e-04
    19   -2.906013940080e-03
    20    1.150700632759e-02
    21    9.278053599638e-01
    22   -5.081467290652e-04
    23    1.372885637741e-02
    24    8.065758593263e-04
    25    7.035124969321e-02
    26   -5.224069572984e-02
    27   -1.383696035527e+00
    28    9.984767741708e-02
    29   -9.482263631129e-02
    30   -9.640094651774e-04
    31    3.850019234715e-01
    32   -3.656261498409e-01
    33   -3.717611506519e-03
    34    1.506784492817e-02
    35   -1.426952347451e-03
    36   -1.736705533701e-03
    37    1.361984975532e-04
    38   -2.905334564595e-03
    39    1.150264662957e-02
    40    9.278025378778e-01
    41    5.078566128138e-04
    42   -1.372864219822e-02
    43   -8.061200149485e-04
    44    1.150730174993e-02
    45    9.278110645586e-01
    46    1.374339103843e-02
    47    1.950818679691e-04
    48    6.698824714367e-04
Sym=X
Ene= 0.231048
Spin=Alpha
Occup=0
     1   -2.986207058906e-02
     2   -1.167722437934e+00
     3    1.294720755056e-02
     4    3.507134302797e-03
     5    8.339584229551e-04
     6    5.938751976835e-05
     7   -6.300494220633e-05
     8   -9.340864509498e-04
     9    1.545445511359e-01
    10    1.626308881894e-01
    11    1.726087750464e-02
    12    5.300526260036e-01
    13    5.579072776341e-01
    14    5.921558488280e-02
    15    1.246963581299e-05
    16   -7.369391452079e-05
    17    7.571583180081e-05
    18   -1.384469052038e-03
    19   -7.768833159813e-05
    20    2.989454483190e-02
    21    1.169098864771e+00
    22    2.854789108139e-03
    23    1.312041628583e-02
    24    9.309886959531e-04
    25   -6.078918557937e-05
    26    6.412645798434e-05
    27    9.692098764230e-04
    28    1.545423821573e-01
    29    1.626366845727e-01
    30    1.723315317372e-02
    31    5.300134947032e-01
    32    5.578989067493e-01
    33    5.910238731167e-02
    34   -1.249712684268e-05
    35    7.532585327954e-05
    36   -7.652770561165e-05
    37    1.383051063808e-03
    38    7.757374097843e-05
    39   -2.989475659340e-02
    40   -1.169081432893e+00
    41    2.854626420835e-03
    42    1.312062132188e-02
    43    9.294942672502e-04
    44    2.986191500520e-02
    45    1.167660134537e+00
    46    1.294686371765e-02
    47    3.506898255537e-03
    48    8.323289877814e-04
Sym=X
Ene= 0.236441
Spin=Alpha
Occup=0
     1    1.931312870869e-02
     2    1.072997821925e+00
     3   -1.589542858151e-02
     4   -9.217152714017e-03
     5   -1.319990005381e-03
     6    8.712349178284e-02
     7   -8.232722249538e-02
     8   -1.545051295685e+00
     9   -5.898866824421e-02
    10    5.581176547631e-02
    11    5.431400112675e-04
    12   -2.424054212272e-01
    13    2.294559528032e-01
    14    2.226093900431e-03
    15    2.128334223739e-02
    16   -2.506114066305e-03
    17   -2.877762360750e-03
    18    6.137035756036e-04
    19   -1.241235062898e-02
    20    1.928290733903e-02
    21    1.071351868788e+00
    22    8.395452750393e-03
    23    1.631662892551e-02
    24    1.389589961884e-03
    25   -8.712218444359e-02
    26    8.232374589160e-02
    27    1.545042518820e+00
    28   -5.898960591659e-02
    29    5.581407343227e-02
    30    5.575374706615e-04
    31   -2.424034878073e-01
    32    2.294783746972e-01
    33    2.285309962689e-03
    34   -2.128340821207e-02
    35    2.503787968208e-03
    36    2.878053636886e-03
    37   -6.147069858417e-04
    38    1.241192380745e-02
    39   -1.928244159408e-02
    40   -1.071367636125e+00
    41    8.395925270677e-03
    42    1.631693434189e-02
    43    1.390094599663e-03
    44   -1.931196419367e-02
    45   -1.072968278023e+00
    46   -1.589469997600e-02
    47   -9.218121661239e-03
    48   -1.318629287919e-03
Sym=X
Ene= 0.302963
Spin=Alpha
Occup=0
     1   -2.107191475793e-02
     2    1.657836116865e+00
     3   -2.350827440258e-02
     4    4.038108756658e-04
     5   -1.105930352631e-03
     6    3.786604752317e-08
     7   -2.912051750233e-06
     8    1.270473479200e-05
     9   -1.356151462674e-01
    10   -1.426574396842e-01
    11   -1.513855529447e-02
    12   -1.124956534636e+00
    13   -1.183278153245e+00
    14   -1.255347985862e-01
    15    3.204632709824e-05
    16   -1.742808295173e-03
    17    1.974831844419e-03
    18   -3.408013519676e-02
    19   -1.741656939773e-03
    20    2.107137598679e-02
    21   -1.657835673851e+00
    22    1.602467969682e-03
    23   -2.344549254308e-02
    24   -1.339162827743e-03
    25    1.695302407957e-06
    26   -2.259917001941e-06
    27   -5.350761896307e-05
    28    1.356201481855e-01
    29    1.426619579056e-01
    30    1.512428058202e-02
    31    1.124928951033e+00
    32    1.183295916048e+00
    33    1.254857955036e-01
    34    3.359624797377e-05
    35   -1.739950693647e-03
    36    1.976153987386e-03
    37   -3.407864881494e-02
    38   -1.742549113901e-03
    39    2.106733804079e-02
    40   -1.657829797062e+00
    41   -1.603465633081e-03
    42    2.344491822129e-02
    43    1.338687875788e-03
    44   -2.106702165793e-02
    45    1.657864400226e+00
    46    2.350892834437e-02
    47   -4.041429479816e-04
    48    1.104195860007e-03
Sym=X
Ene= 0.462775
Spin=Alpha
Occup=0
     1   -1.144370125184e-01
     2   -6.987728020269e-01
     3   -1.496802556873e-02
     4   -1.030567351867e-02
     5   -1.342499839235e-03
     6    6.251415279959e-02
     7    1.658884884049e-02
     8   -3.641088381680e+00
     9    1.043406018242e-01
    10   -9.908796869692e-02
    11   -9.930653145780e-04
    12    2.433303561627e+00
    13   -2.310995319505e+00
    14   -2.258559268215e-02
    15    5.296982947251e-02
    16   -3.265534120022e-03
    17   -4.539507079870e-03
    18   -1.078086310605e-03
    19    2.011887319852e-02
    20   -1.144054773418e-01
    21   -6.988018341721e-01
    22    9.538897146727e-03
    23    1.546368285993e-02
    24    1.392846643745e-03
    25   -6.251524436465e-02
    26   -1.658164002645e-02
    27    3.641093968061e+00
    28    1.043544396385e-01
    29   -9.909679865201e-02
    30   -1.000903039173e-03
    31    2.433284082095e+00
    32   -2.310960107076e+00
    33   -2.261955260782e-02
    34   -5.296500314016e-02
    35    3.260998807168e-03
    36    4.533336088131e-03
    37    1.077341221693e-03
    38   -2.012504584448e-02
    39    1.143696441617e-01
    40    6.988350434685e-01
    41    9.538064336820e-03
    42    1.546289682912e-02
    43    1.390803292566e-03
    44    1.144074442968e-01
    45    6.987964772800e-01
    46   -1.496674988036e-02
    47   -1.030343712609e-02
    48   -1.341021752233e-03
Sym=X
Ene= 0.579808
Spin=Alpha
Occup=0
     1    2.377843528757e-01
     2    4.782581093419e-02
     3   -2.207094703490e-02
     4    2.697987352273e-02
     5    5.701146935209e-04
     6   -6.251210774689e-03
     7   -1.690021096423e-01
     8   -4.173830023081e-01
     9    3.055789555327e-01
    10   -2.901953414802e-01
    11   -2.838035808565e-03
    12   -7.482540450969e-01
    13    7.105335763387e-01
    14    6.996436142815e-03
    15   -1.984494870767e-03
    16    3.648502662062e-03
    17    3.286314559374e-03
    18   -3.048978367663e-03
    19    5.979138624112e-02
    20    2.377728887735e-01
    21    4.783885349329e-02
    22   -2.808353449260e-02
    23    2.065571045268e-02
    24   -1.008687488355e-04
    25   -6.259091264506e-03
    26   -1.690063366696e-01
    27   -4.170210369643e-01
    28   -3.055699900625e-01
    29    2.901775796021e-01
    30    2.836101779414e-03
    31    7.485239704538e-01
    32   -7.107553166809e-01
    33   -7.004543967084e-03
    34   -1.984090870285e-03
    35    3.648539292991e-03
    36    3.285736404328e-03
    37   -3.042503156501e-03
    38    5.979165001912e-02
    39    2.377320017553e-01
    40    4.796883667842e-02
    41    2.808997538866e-02
    42   -2.066090940477e-02
    43    9.991824843027e-05
    44    2.378046636057e-01
    45    4.791283180417e-02
    46    2.207023266408e-02
    47   -2.698067661379e-02
    48   -5.707969524852e-04
Sym=X
Ene= 0.608870
Spin=Alpha
Occup=0
     1   -5.193188930733e-01
     2    2.451396313772e-01
     3   -5.951712354242e-02
     4    3.705924993274e-02
     5   -6.186834509222e-04
     6    3.573919453703e-06
     7   -1.406505911052e-05
     8    2.161670466019e-04
     9   -3.564945133904e-02
    10   -3.750177342618e-02
    11   -3.973505434509e-03
    12    2.611288867083e-01
    13    2.748444295903e-01
    14    2.917476776628e-02
    15    1.206850145980e-04
    16   -7.596316426242e-03
    17    8.610920347414e-03
    18   -1.485864974966e-01
    19   -7.600009871600e-03
    20    5.194006315551e-01
    21   -2.451904456489e-01
    22    4.006416878912e-02
    23   -5.752659393630e-02
    24   -1.550245269407e-03
    25   -4.276985253391e-06
    26    1.499807911653e-05
    27   -1.680200758469e-04
    28   -3.563733579875e-02
    29   -3.751589406749e-02
    30   -3.982008481079e-03
    31    2.610944953785e-01
    32    2.749090649435e-01
    33    2.911678058593e-02
    34   -1.191639234071e-04
    35    7.589297139823e-03
    36   -8.616468597191e-03
    37    1.485949412847e-01
    38    7.598448120397e-03
    39   -5.194485280023e-01
    40    2.452253861782e-01
    41    4.005891295034e-02
    42   -5.752679926301e-02
    43   -1.554218145612e-03
    44    5.193146565098e-01
    45   -2.451810089757e-01
    46   -5.951890891274e-02
    47    3.705992609428e-02
    48   -6.185711460769e-04
Sym=X
Ene= 0.688652
Spin=Alpha
Occup=0
     1    4.525567550123e-05
     2    3.201075208334e-05
     3    9.039098221091e-04
     4    1.143028766558e-03
     5   -1.879858605892e-02
     6    2.452642485725e-06
     7   -2.732900226038e-06
     8    5.588946653592e-05
     9    3.221920791261e-02
    10    4.052883677212e-02
    11   -6.706333130368e-01
    12   -2.954863413358e-02
    13   -3.692583601042e-02
    14    6.126554513049e-01
    15   -1.333048043531e-03
    16    8.259990285952e-02
    17   -7.836458502600e-02
    18   -8.698243572184e-03
    19   -1.206820290513e-03
    20    3.971824186703e-05
    21    5.793358512054e-05
    22    8.994834032116e-04
    23    1.136754695356e-03
    24   -1.879456447244e-02
    25   -5.618208321351e-07
    26    3.259445672821e-05
    27   -7.800266368535e-05
    28    3.220134458126e-02
    29    4.049426100598e-02
    30   -6.706352913577e-01
    31   -2.952013313297e-02
    32   -3.688577005043e-02
    33    6.126568182883e-01
    34    1.321821551966e-03
    35   -8.259868136159e-02
    36    7.836585502687e-02
    37    8.707217789387e-03
    38    1.211473423370e-03
    39   -1.907857741596e-05
    40   -5.041853449667e-05
    41    8.973554010092e-04
    42    1.141673056961e-03
    43   -1.879421098869e-02
    44   -1.353006300979e-05
    45   -7.635467146321e-05
    46    8.937038038734e-04
    47    1.136306650447e-03
    48   -1.879927885941e-02
Sym=X
Ene= 0.704763
Spin=Alpha
Occup=0
     1   -4.879214512459e-01
     2    1.637537386445e-01
     3   -7.811052576465e-02
     4   -4.436377853202e-02
     5   -6.438658943953e-03
     6   -4.595733293955e-02
     7   -3.013129787875e-01
     8    4.637146958496e-01
     9    1.958958560914e-01
    10   -1.860827407405e-01
    11   -1.850928818120e-03
    12   -5.769114208346e-02
    13    5.494855389445e-02
    14    4.967930710946e-04
    15    1.911448244421e-01
    16   -2.047486646563e-02
    17   -2.405553905740e-02
    18    3.752227243535e-03
    19   -7.662212029451e-02
    20   -4.879585237618e-01
    21    1.639332854119e-01
    22    4.033734341038e-02
    23    8.024771552883e-02
    24    6.781674946241e-03
    25   -4.595168022460e-02
    26   -3.013136604341e-01
    27    4.634230574689e-01
    28   -1.958961688383e-01
    29    1.860830552298e-01
    30    1.810290273865e-03
    31    5.749256718631e-02
    32   -5.477747402988e-02
    33   -4.505085560218e-04
    34    1.911475903714e-01
    35   -2.046528644310e-02
    36   -2.404393691059e-02
    37    3.748532877114e-03
    38   -7.661228981727e-02
    39   -4.879345486774e-01
    40    1.638623949719e-01
    41   -4.033629708309e-02
    42   -8.024521078547e-02
    43   -6.779094133776e-03
    44   -4.879237915796e-01
    45    1.636927777797e-01
    46    7.811093784952e-02
    47    4.436281281510e-02
    48    6.433345035312e-03
Sym=X
Ene= 0.775740
Spin=Alpha
Occup=0
     1    5.387749029893e-01
     2   -4.806606824134e-01
     3    1.077400701663e-01
     4    2.643822589207e-02
     5    6.775711612276e-03
     6    8.893676246496e-02
     7   -2.266859542457e-01
     8   -5.667793664482e-01
     9    1.035319844781e-01
    10   -9.828767683125e-02
    11   -9.281120789425e-04
    12    2.941688545097e-01
    13   -2.795385488864e-01
    14   -2.786303725321e-03
    15   -2.032320943645e-01
    16    1.747023577995e-02
    17    2.178568451022e-02
    18   -1.998853783164e-04
    19    7.661430030617e-03
    20    5.386851195801e-01
    21   -4.807629282476e-01
    22   -2.093356884997e-02
    23   -1.088863982237e-01
    24   -7.584758694550e-03
    25   -8.893794058782e-02
    26    2.266877053576e-01
    27    5.668349533967e-01
    28    1.035462163710e-01
    29   -9.828445827563e-02
    30   -9.609910707003e-04
    31    2.941112639711e-01
    32   -2.795196859602e-01
    33   -2.712450940982e-03
    34    2.032389465815e-01
    35   -1.744660131935e-02
    36   -2.177360804518e-02
    37    2.041225227721e-04
    38   -7.660347006185e-03
    39   -5.387152410471e-01
    40    4.807673013011e-01
    41   -2.093488782907e-02
    42   -1.088889368762e-01
    43   -7.579743691068e-03
    44   -5.387975743817e-01
    45    4.806352970116e-01
    46    1.077364861462e-01
    47    2.644280501225e-02
    48    6.769713973347e-03
Sym=X
Ene= 0.807406
Spin=Alpha
Occup=0
     1    1.095840369247e-05
     2    2.985387240931e-05
     3    1.503804583493e-03
     4    1.897219341475e-03
     5   -3.143351571524e-02
     6    3.539351321936e-06
     7   -3.329979075519e-05
     8    1.710403181235e-05
     9    3.674940425143e-02
    10    4.617313244951e-02
    11   -7.642412279627e-01
    12   -5.406388198218e-02
    13   -6.794218027485e-02
    14    1.124364023588e+00
    15    1.045264710164e-03
    16   -6.537966532302e-02
    17    6.202930110807e-02
    18    6.878727264418e-03
    19    9.582388026562e-04
    20    1.275559922113e-05
    21   -4.336297178348e-05
    22    1.505793017331e-03
    23    1.896637588237e-03
    24   -3.142442098208e-02
    25   -5.005351700060e-07
    26   -2.482551187933e-05
    27    1.224984058274e-05
    28   -3.668430632402e-02
    29   -4.613957067874e-02
    30    7.642480298949e-01
    31    5.398687650079e-02
    32    6.785648918604e-02
    33   -1.124373093076e+00
    34    1.059013195389e-03
    35   -6.537932726527e-02
    36    6.202687618205e-02
    37    6.897750834453e-03
    38    9.636849417093e-04
    39   -9.887112264195e-06
    40    5.950370194020e-05
    41   -1.507804045555e-03
    42   -1.912953044572e-03
    43    3.142085159062e-02
    44   -8.076337482901e-06
    45   -1.368826121349e-05
    46   -1.502136212214e-03
    47   -1.904512313041e-03
    48    3.143215784506e-02
Sym=X
Ene= 0.858424
Spin=Alpha
Occup=0
     1    1.432618479250e-02
     2   -1.075766243251e+00
     3    1.463265934014e-01
     4    5.607574063277e-02
     5    1.041225665430e-02
     6    4.915984084154e-06
     7    7.282397136870e-06
     8    1.270234316479e-05
     9   -4.116914391681e-01
    10   -4.330561346766e-01
    11   -4.597387077720e-02
    12    9.372682659805e-01
    13    9.858449617694e-01
    14    1.046577574956e-01
    15   -2.247506308199e-04
    16    1.177790383873e-02
    17   -1.334757342509e-02
    18    2.303758853083e-01
    19    1.177669253650e-02
    20   -1.428024623752e-02
    21    1.075673580001e+00
    22    4.856207526191e-02
    23    1.489045932148e-01
    24    1.133620441226e-02
    25   -4.541664369846e-06
    26   -3.133506804656e-06
    27   -1.199255567560e-05
    28   -4.117034817249e-01
    29   -4.330761184044e-01
    30   -4.589458429720e-02
    31    9.372868820272e-01
    32    9.858949997557e-01
    33    1.044848094596e-01
    34    2.234966504822e-04
    35   -1.177745936396e-02
    36    1.334915913706e-02
    37   -2.303832651746e-01
    38   -1.178102199254e-02
    39    1.427573352769e-02
    40   -1.075681087388e+00
    41    4.855343285932e-02
    42    1.489091084495e-01
    43    1.133265263899e-02
    44   -1.432017198319e-02
    45    1.075771153725e+00
    46    1.463315654806e-01
    47    5.607117211404e-02
    48    1.040437032184e-02
Sym=X
Ene= 0.928010
Spin=Alpha
Occup=0
     1   -1.417400529400e-01
     2    1.231191478564e+00
     3   -1.827035611134e-01
     4    5.752722368931e-03
     5   -8.437452173649e-03
     6   -2.266053029352e-06
     7   -8.130635509191e-05
     8    1.289283535035e-04
     9    4.739753045346e-01
    10    4.985694640294e-01
    11    5.289429090326e-02
    12   -1.382801199429e+00
    13   -1.454619977212e+00
    14   -1.543194740154e-01
    15    1.285099024788e-04
    16   -6.438080890133e-03
    17    7.275467928857e-03
    18   -1.256374138137e-01
    19   -6.428200178575e-03
    20    1.417208493693e-01
    21   -1.231295969868e+00
    22    1.507516919794e-02
    23   -1.820828076256e-01
    24   -1.027335696589e-02
    25   -2.650651990976e-06
    26   -7.215178052734e-05
    27    1.350663382399e-04
    28   -4.739765899213e-01
    29   -4.985570825888e-01
    30   -5.286967195641e-02
    31    1.382801814148e+00
    32    1.454564054495e+00
    33    1.542487091841e-01
    34    1.331355583187e-04
    35   -6.419618268513e-03
    36    7.270737496853e-03
    37   -1.256331788450e-01
    38   -6.440737118959e-03
    39    1.417147796817e-01
    40   -1.231242643939e+00
    41   -1.508523288332e-02
    42    1.820739664585e-01
    43    1.026848457743e-02
    44   -1.417503338489e-01
    45    1.231200993961e+00
    46    1.827044516749e-01
    47   -5.753972011315e-03
    48    8.425326166965e-03
Sym=X
Ene= 0.970586
Spin=Alpha
Occup=0
     1   -5.973517493193e-02
     2    8.967597886580e-01
     3   -8.757738932610e-02
     4   -9.661939691648e-02
     5   -1.003637190106e-02
     6    2.706934731332e-02
     7    2.529170912379e-01
     8    5.138910838586e-01
     9    4.831032971290e-01
    10   -4.587973614169e-01
    11   -4.501748920525e-03
    12   -1.474811398862e+00
    13    1.400586739015e+00
    14    1.372812354319e-02
    15   -5.791957184968e-02
    16   -1.239110570176e-02
    17   -9.178927151652e-03
    18    1.518616446646e-02
    19   -2.963722134080e-01
    20   -5.975898115603e-02
    21    8.966983211415e-01
    22    9.206504594438e-02
    23    9.234233674545e-02
    24    1.000849071287e-02
    25   -2.706863589950e-02
    26   -2.528486044631e-01
    27   -5.140012201652e-01
    28    4.830895048005e-01
    29   -4.588033799189e-01
    30   -4.522350514868e-03
    31   -1.474764488421e+00
    32    1.400640293605e+00
    33    1.378770423233e-02
    34    5.791462886673e-02
    35    1.239041646859e-02
    36    9.181314272045e-03
    37   -1.518961489219e-02
    38    2.963591858824e-01
    39    5.975816976411e-02
    40   -8.967060581062e-01
    41    9.205928500475e-02
    42    9.234374115671e-02
    43    1.001039687537e-02
    44    5.974349123052e-02
    45   -8.966888881371e-01
    46   -8.756868391692e-02
    47   -9.661669778538e-02
    48   -1.002979345463e-02
[5D]

======= END OF MOLDEN-FORMATTED INPUT FILE =======


        *************************************************************
        *                                                           *
        *  Thank you very much for using Q-Chem.  Have a nice day.  *
        *                                                           *
        *************************************************************


