                  Welcome to Q-Chem
     A Quantum Leap Into The Future Of Chemistry


 Q-Chem 5.4 (devel), Q-Chem, Inc., Pleasanton, CA (2021)

 E. Epifanovsky,  A. T. B. Gilbert,  Xintian Feng,  Joonho Lee,  Yuezhi Mao,  
 N. Mardirossian,  P. Pokhilko,  A. White,  M. Wormit,  M. P. Coons,  
 A. L. Dempwolff,  Zhengting Gan,  D. Hait,  P. R. Horn,  L. D. Jacobson,  
 I. Kaliman,  J. Kussmann,  A. W. Lange,  Ka Un Lao,  D. S. Levine,  Jie Liu,  
 S. C. McKenzie,  A. F. Morrison,  K. Nanda,  F. Plasser,  D. R. Rehn,  
 M. L. Vidal,  Zhi-Qiang You,  Ying Zhu,  B. Alam,  B. Albrecht,  
 A. Aldossary,  E. Alguire,  J. H. Andersen,  D. Barton,  K. Begam,  A. Behn,  
 Y. A. Bernard,  E. J. Berquist,  H. Burton,  A. Carreras,  K. Carter-Fenk,  
 R. Chakraborty,  A. D. Chien,  K. D. Closser,  V. Cofer-Shabica,  
 S. Dasgupta,  Jia Deng,  M. de Wergifosse,  M. Diedenhofen,  Hainam Do,  
 S. Ehlert,  Po-Tung Fang,  S. Fatehi,  Qingguo Feng,  T. Friedhoff,  
 J. Gayvert,  Qinghui Ge,  G. Gidofalvi,  M. Goldey,  J. Gomes,  
 C. Gonzalez-Espinoza,  S. Gulania,  A. Gunina,  M. W. D. Hanson-Heine,  
 P. H. P. Harbach,  A. W. Hauser,  M. F. Herbst,  M. Hernandez Vera,  
 M. Hodecker,  Z. C. Holden,  S. Houck,  Xunkun Huang,  Kerwin Hui,  
 B. C. Huynh,  M. Ivanov,  Hyunjun Ji,  Hanjie Jiang,  B. Kaduk,  S. Kaehler,  
 K. Khistyaev,  Jaehoon Kim,  P. Klunzinger,  Z. Koczor-Benda,  
 Joong Hoon Koh,  D. Kosenkov,  L. Koulias,  T. Kowalczyk,  C. M. Krauter,  
 K. Kue,  A. Kunitsa,  T. Kus,  A. Landau,  K. V. Lawler,  D. Lefrancois,  
 S. Lehtola,  Rain Li,  Yi-Pei Li,  Jiashu Liang,  M. Liebenthal,  
 Hung-Hsuan Lin,  You-Sheng Lin,  Fenglai Liu,  Kuan-Yu Liu,  
 M. Loipersberger,  A. Luenser,  A. Manjanath,  P. Manohar,  E. Mansoor,  
 S. F. Manzer,  Shan-Ping Mao,  A. V. Marenich,  T. Markovich,  S. Mason,  
 S. A. Maurer,  P. F. McLaughlin,  M. F. S. J. Menger,  J.-M. Mewes,  
 S. A. Mewes,  P. Morgante,  J. W. Mullinax,  K. J. Oosterbaan,  G. Paran,  
 Alexander C. Paul,  Suranjan K. Paul,  F. Pavosevic,  Zheng Pei,  S. Prager,  
 E. I. Proynov,  E. Ramos,  B. Rana,  A. E. Rask,  A. Rettig,  R. M. Richard,  
 F. Rob,  E. Rossomme,  T. Scheele,  M. Scheurer,  M. Schneider,  
 N. Sergueev,  S. M. Sharada,  W. Skomorowski,  D. W. Small,  C. J. Stein,  
 Yu-Chuan Su,  E. J. Sundstrom,  Zhen Tao,  J. Thirman,  T. Tsuchimochi,  
 N. M. Tubman,  S. P. Veccham,  O. Vydrov,  J. Wenzel,  J. Witte,  A. Yamada,  
 Kun Yao,  S. Yeganeh,  S. R. Yost,  A. Zech,  Igor Ying Zhang,  Xing Zhang,  
 Yu Zhang,  D. Zuev,  A. Aspuru-Guzik,  A. T. Bell,  N. A. Besley,  
 K. B. Bravaya,  B. R. Brooks,  D. Casanova,  Jeng-Da Chai,  S. Coriani,  
 C. J. Cramer,  A. E. DePrince, III,  R. A. DiStasio Jr.,  A. Dreuw,  
 B. D. Dunietz,  T. R. Furlani,  W. A. Goddard III,  S. Grimme,  
 S. Hammes-Schiffer,  T. Head-Gordon,  W. J. Hehre,  Chao-Ping Hsu,  
 T.-C. Jagau,  Yousung Jung,  A. Klamt,  Jing Kong,  D. S. Lambrecht,  
 WanZhen Liang,  N. J. Mayhall,  C. W. McCurdy,  J. B. Neaton,  
 C. Ochsenfeld,  J. A. Parkhill,  R. Peverati,  V. A. Rassolov,  Yihan Shao,  
 L. V. Slipchenko,  T. Stauch,  R. P. Steele,  J. E. Subotnik,  
 A. J. W. Thom,  A. Tkatchenko,  D. G. Truhlar,  T. Van Voorhis,  
 T. A. Wesolowski,  K. B. Whaley,  H. L. Woodcock III,  P. M. Zimmerman,  
 S. Faraji,  P. M. W. Gill,  M. Head-Gordon,  J. M. Herbert,  A. I. Krylov

 Additional authors for Version 5.4.1: 
 S. Kotaru,  Shaozhi Li,  Xiangyuan Li,  F. Matz,  A. Molle,  Haisheng Ren,  
 Yingli Su,  Hung-Yi Tsai,  C. Utku,  Fang Wang

 Contributors to earlier versions of Q-Chem not listed above: 
 R. D. Adamson,  B. Austin,  R. Baer,  J. Baker,  G. J. O. Beran,  
 K. Brandhorst,  S. T. Brown,  E. F. C. Byrd,  A. K. Chakraborty,  
 G. K. L. Chan,  Chun-Min Chang,  Yunqing Chen,  C.-L. Cheng,  
 Siu Hung Chien,  D. M. Chipman,  D. L. Crittenden,  H. Dachsel,  
 R. J. Doerksen,  A. D. Dutoi,  R. G. Edgar,  J. Fosso-Tande,  
 L. Fusti-Molnar,  D. Ghosh,  A. Ghysels,  A. Golubeva-Zadorozhnaya,  
 J. Gonthier,  M. S. Gordon,  S. R. Gwaltney,  G. Hawkins,  J. E. Herr,  
 A. Heyden,  S. Hirata,  E. G. Hohenstein,  G. Kedziora,  F. J. Keil,  
 C. Kelley,  Jihan Kim,  R. A. King,  R. Z. Khaliullin,  P. P. Korambath,  
 W. Kurlancheek,  A. Laurent,  A. M. Lee,  M. S. Lee,  S. V. Levchenko,  
 Ching Yeh Lin,  D. Liotard,  E. Livshits,  R. C. Lochan,  I. Lotan,  
 L. A. Martinez-Martinez,  P. E. Maslen,  N. Nair,  D. P. O'Neill,  
 D. Neuhauser,  E. Neuscamman,  C. M. Oana,  R. Olivares-Amaya,  R. Olson,  
 T. M. Perrine,  B. Peters,  P. A. Pieniazek,  A. Prociuk,  Y. M. Rhee,  
 J. Ritchie,  M. A. Rohrdanz,  E. Rosta,  N. J. Russ,  H. F. Schaefer III,  
 M. W. Schmidt,  N. E. Schultz,  S. Sharma,  N. Shenvi,  C. D. Sherrill,  
 A. C. Simmonett,  A. Sodt,  T. Stein,  D. Stuck,  K. S. Thanthiriwatte,  
 V. Vanovschi,  L. Vogt,  Tao Wang,  A. Warshel,  M. A. Watson,  
 C. F. Williams,  Q. Wu,  X. Xu,  Jun Yang,  W. Zhang,  Yan Zhao

 Please cite Q-Chem as follows:
 Y. Shao et al., Mol. Phys. 113, 184-215 (2015)
 DOI: 10.1080/00268976.2014.952696

 Q-Chem 5.4.1 for Intel X86 EM64T Linux

 Parts of Q-Chem use Armadillo 9.800.1 (Horizon Scraper).
 http://arma.sourceforge.net/

 Q-Chem begins on Tue Mar 21 11:33:34 2023  

 Host: cpu186.baobab
0

     Scratch files written to /scratch/fum/qchem59075//
 Processing $rem in /home/share/wesolowski/qc5.aug2021.FDE/config/preferences:
 Processing $rem in /home/fum/.qchemrc:

 Checking the input file for inconsistencies... 	...done.

--------------------------------------------------------------
User input:
--------------------------------------------------------------
$comment
generated from CCJob.Templates
$end

$rem
sym_ignore = true
method = adc(2)
ee_states = 10
basis = cc-pVDZ
mem_static = 1024
mem_total = 40000
adc_davidson_maxiter = 900
adc_davidson_conv = 6
adc_print = 3
adc_prop_es = true
adc_prop_es2es = true
adc_prop_tpa = true
molden_format = True
state_analysis = true
print_orbitals = 15
gen_scfman = false
fde_export_density = true
fde_details = 3
$end

$molecule
0 1
H -0.023377199895750603 -0.24744281797532505 0.06501074128122916
C -1.0772730266968609 -0.5237484511916766 -0.0022919123885097267
H -1.3015745247601473 -1.5948889324984645 -0.07782515852088054
C -2.0441221926969826 0.3945124865082013 0.006680947911470883
H -1.821879667960069 1.4606329130018798 0.08179364397914854
H -3.102962615395401 0.11594632732476608 -0.060917328018728165                     
$end
--------------------------------------------------------------
 ----------------------------------------------------------------
             Standard Nuclear Orientation (Angstroms)
    I     Atom           X                Y                Z
 ----------------------------------------------------------------
    1      H      -0.0233771999    -0.2474428180     0.0650107413
    2      C      -1.0772730267    -0.5237484512    -0.0022919124
    3      H      -1.3015745248    -1.5948889325    -0.0778251585
    4      C      -2.0441221927     0.3945124865     0.0066809479
    5      H      -1.8218796680     1.4606329130     0.0817936440
    6      H      -3.1029626154     0.1159463273    -0.0609173280
 ----------------------------------------------------------------
 Nuclear Repulsion Energy =          33.21002382 hartrees
 There are        8 alpha and        8 beta electrons
 Requested basis set is cc-pVDZ
 There are 24 shells and 48 basis functions
 Total memory of 40000 MB is distributed as follows: 
   MEM_STATIC is set to 1024 MB
   QALLOC/CCMAN JOB total memory use is  38976 MB
 Warning: actual memory use might exceed 40000 MB

 Total QAlloc Memory Limit  40000 MB
 Mega-Array Size      1001 MB
 MEM_STATIC part      1024 MB

                       Distance Matrix (Angstroms)
             H (  1)   C (  2)   H (  3)   C (  4)   H (  5)
   C (  2)  1.091591
   H (  3)  1.862740  1.096977
   C (  4)  2.121066  1.333447  2.125144
   H (  5)  2.480406  2.121150  3.103612  1.091626
   H (  6)  3.103507  2.125103  2.484400  1.096956  1.862719

 A cutoff of  1.0D-11 yielded    300 shell pairs
 There are      1220 function pairs (      1329 Cartesian)
 Smallest overlap matrix eigenvalue = 4.81E-03

 Scale SEOQF with 1.000000e-01/1.000000e-01/1.000000e+00

 Standard Electronic Orientation quadrupole field applied
 Nucleus-field energy     =     0.0000000022 hartrees
 Guess from superposition of atomic densities
 Warning:  Energy on first SCF cycle will be non-variational
 SAD guess density has 16.000000 electrons
 A restricted Hartree-Fock SCF calculation will be
 performed using Pulay DIIS extrapolation
 SCF converges when DIIS error is below 1.0E-08
 using 10 threads for integral computing
 -------------------------------------------------------
 OpenMP Integral computing Module                
 Release: version 1.0, May 2013, Q-Chem Inc. Pittsburgh 
 -------------------------------------------------------
 ---------------------------------------
  Cycle       Energy         DIIS Error
 ---------------------------------------
    1     -78.3977839057      9.93E-02
    2     -78.0175707052      7.13E-03
    3     -78.0380373053      1.83E-03
    4     -78.0395134981      5.64E-04
    5     -78.0396311247      5.81E-05
    6     -78.0396329883      9.29E-06
    7     -78.0396330497      1.95E-06
    8     -78.0396330524      1.67E-07
    9     -78.0396330524      1.71E-08
   10     -78.0396330524      2.50E-09 Convergence criterion met
 ---------------------------------------
 SCF time:  CPU 2.25 s  wall 2.50 s
 SCF   energy in the final basis set = -78.03963305
 Total energy in the final basis set = -78.03963305
Exporting Density Matrix to file 'Densmat_SCF.txt'.
Export successful
================================================================================
|                                                                              |
|                                 A D C  M A N                                 |
|                                                                              |
 ------------------------------------------------------------------------------ 
|                                                                              |
| Components:                                                                  |
|                                                                              |
| - libvmm - 1.3-trunk                                                         |
|   Authors:                                                                   |
|   Evgeny Epifanovsky, Ilya Kaliman                                           |
|                                                                              |
| - libtensor - 2.5-trunk                                                      |
|   Authors:                                                                   |
|   Evgeny Epifanovsky, Michael Wormit, Dmitry Zuev, Sam Manzer,               |
|   Ilya Kaliman                                                               |
|                                                                              |
| - libwfa - 1.1-trunk                                                         |
|   Authors:                                                                   |
|   Felix Plasser, Stefanie Mewes (Baeppler), Benjamin Thomitzni,              |
|   Michael Wormit, Feng Chen, Anna I. Krylov, Pavel Pokhilko                  |
|                                                                              |
| - libadc - 1.1-trunk                                                         |
|   Authors:                                                                   |
|   Michael Wormit, Adrian L. Dempwolff, Philipp H. P. Harbach,                |
|   Caroline Krauter, Dirk Rehn, Matthias Schneider, Jan Wenzel                |
|                                                                              |
| - adcman - 2.6-trunk                                                         |
|   Authors:                                                                   |
|   Michael Wormit, Adrian L. Dempwolff, Philipp H. P. Harbach,                |
|   Caroline Krauter, Daniel Lefrancois, Jan-Michael Mewes, Dirk Rehn,         |
|   Matthias Schneider, Jan Wenzel, Andreas Dreuw                              |
|                                                                              |
| Authors of earlier versions of ADCMAN:                                       |
| Andreas Dreuw, Jan Hendrik Starcke, Dirk Rehn, Michael Wormit                |
|                                                                              |
================================================================================

 Created directory /scratch/fum/qchem59075/plots
  Import QC data ...  CPU 0.00 s  wall 0.00 s

 Alpha MOs, Restricted
 -- Occupied --                  
-11.239 -11.237  -1.030  -0.786  -0.635  -0.582  -0.500  -0.374
  1 A     2 A     3 A     4 A     5 A     6 A     7 A     8 A                  
 -- Virtual --                   
  0.168   0.203   0.231   0.236   0.303   0.463   0.580   0.609
  9 A    10 A    11 A    12 A    13 A    14 A    15 A    16 A                  
  0.689   0.705   0.776   0.807   0.858   0.928   0.971   1.006
 17 A    18 A    19 A    20 A    21 A    22 A    23 A    24 A                  
  1.130   1.237   1.241   1.263   1.291   1.593   1.728   1.744
 25 A    26 A    27 A    28 A    29 A    30 A    31 A    32 A                  
  1.811   1.852   1.854   1.901   1.963   1.973   2.224   2.248
 33 A    34 A    35 A    36 A    37 A    38 A    39 A    40 A                  
  2.356   2.423   2.493   2.623   2.679   2.795   3.099   3.369
 41 A    42 A    43 A    44 A    45 A    46 A    47 A    48 A                  

 Beta MOs, Restricted
 -- Occupied --                  
-11.239 -11.237  -1.030  -0.786  -0.635  -0.582  -0.500  -0.374
  1 A     2 A     3 A     4 A     5 A     6 A     7 A     8 A                  
 -- Virtual --                   
  0.168   0.203   0.231   0.236   0.303   0.463   0.580   0.609
  9 A    10 A    11 A    12 A    13 A    14 A    15 A    16 A                  
  0.689   0.705   0.776   0.807   0.858   0.928   0.971   1.006
 17 A    18 A    19 A    20 A    21 A    22 A    23 A    24 A                  
  1.130   1.237   1.241   1.263   1.291   1.593   1.728   1.744
 25 A    26 A    27 A    28 A    29 A    30 A    31 A    32 A                  
  1.811   1.852   1.854   1.901   1.963   1.973   2.224   2.248
 33 A    34 A    35 A    36 A    37 A    38 A    39 A    40 A                  
  2.356   2.423   2.493   2.623   2.679   2.795   3.099   3.369
 41 A    42 A    43 A    44 A    45 A    46 A    47 A    48 A                  
  Import AO data ...  CPU 0.01 s  wall 0.01 s
  Using point group: C1
  Irreducible representations in point group: A
  Molecular orbitals: 
  Occupied MOs:
  Block   0:   1 (  A) A   2 (  A) A   3 (  A) A   4 (  A) A   5 (  A) A
                  -11.24      -11.24       -1.03     -0.7859      -0.635
               6 (  A) A   7 (  A) A   8 (  A) A
                 -0.5823     -0.4995     -0.3744
  Block   1:   1 (  A) B   2 (  A) B   3 (  A) B   4 (  A) B   5 (  A) B
                  -11.24      -11.24       -1.03     -0.7859      -0.635
               6 (  A) B   7 (  A) B   8 (  A) B
                 -0.5823     -0.4995     -0.3744
  Virtual MOs:
  Block   0:   9 (  A) A  10 (  A) A  11 (  A) A  12 (  A) A  13 (  A) A
                  0.1679      0.2026       0.231      0.2364       0.303
              14 (  A) A  15 (  A) A  16 (  A) A  17 (  A) A  18 (  A) A
                  0.4628      0.5798      0.6089      0.6887      0.7048
              19 (  A) A  20 (  A) A  21 (  A) A  22 (  A) A
                  0.7757      0.8074      0.8584       0.928
  Block   1:  23 (  A) A  24 (  A) A  25 (  A) A  26 (  A) A  27 (  A) A
                  0.9706       1.006        1.13       1.237       1.241
              28 (  A) A  29 (  A) A  30 (  A) A  31 (  A) A  32 (  A) A
                   1.263       1.291       1.593       1.728       1.744
              33 (  A) A  34 (  A) A  35 (  A) A  36 (  A) A
                   1.811       1.852       1.854       1.901
  Block   2:  37 (  A) A  38 (  A) A  39 (  A) A  40 (  A) A  41 (  A) A
                   1.963       1.973       2.224       2.248       2.356
              42 (  A) A  43 (  A) A  44 (  A) A  45 (  A) A  46 (  A) A
                   2.423       2.493       2.623       2.679       2.795
              47 (  A) A  48 (  A) A
                   3.099       3.369
  Block   3:   9 (  A) B  10 (  A) B  11 (  A) B  12 (  A) B  13 (  A) B
                  0.1679      0.2026       0.231      0.2364       0.303
              14 (  A) B  15 (  A) B  16 (  A) B  17 (  A) B  18 (  A) B
                  0.4628      0.5798      0.6089      0.6887      0.7048
              19 (  A) B  20 (  A) B  21 (  A) B  22 (  A) B
                  0.7757      0.8074      0.8584       0.928
  Block   4:  23 (  A) B  24 (  A) B  25 (  A) B  26 (  A) B  27 (  A) B
                  0.9706       1.006        1.13       1.237       1.241
              28 (  A) B  29 (  A) B  30 (  A) B  31 (  A) B  32 (  A) B
                   1.263       1.291       1.593       1.728       1.744
              33 (  A) B  34 (  A) B  35 (  A) B  36 (  A) B
                   1.811       1.852       1.854       1.901
  Block   5:  37 (  A) B  38 (  A) B  39 (  A) B  40 (  A) B  41 (  A) B
                   1.963       1.973       2.224       2.248       2.356
              42 (  A) B  43 (  A) B  44 (  A) B  45 (  A) B  46 (  A) B
                   2.423       2.493       2.623       2.679       2.795
              47 (  A) B  48 (  A) B
                   3.099       3.369
  Import MO data ...  CPU 0.14 s  wall 0.04 s
  Import HF data ...  CPU 0.54 s  wall 0.18 s
  Import 2e integrals ...  CPU 1.24 s  wall 0.23 s

--------------------------------------------------------------------------------
                                   HF Summary                                   
--------------------------------------------------------------------------------
  Energy:                                                  -78.0396330524 a.u.
  Dip. moment [a.u.]:                  [   0.001120,    0.001183,    0.000142]
  Total dipole [Debye]:                                               0.004157
  <r^2> [a.u.]:                        [ 175.793776,   35.296186,   11.680396]
  Total <r^2> [a.u.]:                                               222.770359
--------------------------------------------------------------------------------
  HF properties ...  CPU 0.03 s  wall 0.02 s
  MP(1) calculation ...  CPU 0.01 s  wall 0.01 s
  N^6 prerequesite intermediates ...  CPU 0.57 s  wall 0.09 s
  Difference density matrix of state mp2_gs printed to ASCII file 'State_mp2_gs_Difference.txt'
Exporting MP density matrix to file 'Densmat_MP.txt'.
Export successful
  Total density matrix of state mp2_gs printed to ASCII file 'State_mp2_gs_Total.txt'
Exporting MP density matrix to file 'Densmat_MP.txt'.
Export successful

--------------------------------------------------------------------------------
                                 MP(2) Summary                                  
--------------------------------------------------------------------------------
  MP energy contribution:                                   -0.2804883755 a.u.
  Total energy:                                            -78.3201214280 a.u.
  Dip. moment [a.u.]:                  [   0.000917,    0.000969,    0.000119]
  Total dipole [Debye]:                                               0.003405
  <r^2> [a.u.]:                        [ 175.832812,   35.331935,   11.507974]
  Total <r^2> [a.u.]:                                               222.672721

  Density matrix analysis:
  ------------------------
  NOs
    Occupation of frontier NOs:
       0.0455   1.9380
    Number of electrons: 16.000000
    Number of unpaired electrons: n_u =  0.40725, n_u,nl =  0.04580
    NO participation ratio (PR_NO): 13.896541
  
  
  Mulliken Population Analysis
  Atom      Charge (e)              h+              e-           Del q
  --------------------------------------------------------------------
   1 H        0.054432        0.013936       -0.011304        0.002632
   2 C       -0.109926        0.094594       -0.099790       -0.005196
   3 H        0.055502        0.013878       -0.011314        0.002564
   4 C       -0.109941        0.094594       -0.099791       -0.005197
   5 H        0.054441        0.013935       -0.011304        0.002631
   6 H        0.055492        0.013879       -0.011314        0.002565
  --------------------------------------------------------------------
  Sum:        0.000000        0.244817       -0.244817       -0.000000
  
  Multipole moment analysis of the density matrix
    Molecular charge:                      -0.000000
    Number of electrons:                   16.000000
      Center of electronic charge [Ang]: [ -1.561166,  -0.065105,   0.002146]
    Total nuclear charge:                  16.000000
      Center of nuclear charge [Ang]:    [ -1.561135,  -0.065073,   0.002150]
    Dipole moment [D]:                     0.003405
      Cartesian components [D]:          [  0.002330,   0.002464,   0.000302]
    RMS size of the density [Ang]:         1.206519
      Cartesian components [Ang]:        [  0.800093,   0.783666,   0.448782]
  
  Exciton analysis of the difference density matrix
    <r_h> [Ang]:                  [ -1.561773,  -0.065743,   0.002076]
    <r_e> [Ang]:                  [ -1.561334,  -0.065280,   0.002125]
    |<r_e - r_h>| [Ang]:            0.000640
    Hole size [Ang]:                1.401660
      Cartesian components [Ang]: [  0.853006,   0.840248,   0.728706]
    Electron size [Ang]:            1.361763
      Cartesian components [Ang]: [  0.879568,   0.864273,   0.577746]
--------------------------------------------------------------------------------
  MP(2) calculation ...  CPU 0.33 s  wall 0.21 s
  Start ADC(2)-s ...  CPU 0.02 s  wall 0.01 s
  ADC(2) intermediates ...  CPU 0.04 s  wall 0.01 s
  Starting Davidson for singlet states of irrep A ... 
--------------------------------------------------------------------------------
   It NVec Conv  Avg. Norm  Max. Norm  Conv. states           Remark
--------------------------------------------------------------------------------
        10    0  1.329e-01  4.687e-01  0.4117 n n n n n n n n Guess.
    1   20    0  2.312e-02  1.125e-01  0.3261 n n n n n n n n 
    2   30    0  5.846e-03  2.461e-02  0.3213 n n n n n n n n 
    3   40    0  1.751e-03  1.049e-02  0.3209 n n n n n n n n 
    4   50    0  4.965e-04  3.452e-03  0.3209 n n n n n n n n 
    5   20    0  2.544e-04  1.665e-03  0.3209 n n n n n n n n Subspace collapsed.
    6   30    0  1.086e-04  7.732e-04  0.3209 n n n n n n n n 
    7   40    0  6.795e-05  5.862e-04  0.3209 n n n n n n n n 
    8   50    0  3.855e-05  3.322e-04  0.3209 n n n n n n n n 
    9   20    1  2.487e-05  2.253e-04  0.3209 n y n n n n n n Subspace collapsed.
   10   30    5  2.037e-05  1.908e-04  0.3209 n y y y y y n n 
   11   40    5  8.817e-06  8.064e-05  0.3209 n y y y y y n n 
   12   50    6  3.563e-06  3.115e-05  0.3209 y y y y y y n n 
   13   20    7  1.997e-06  1.670e-05  0.3209 y y y y y y n y Subspace collapsed.
   14   30    8  1.296e-06  1.154e-05  0.3209 y y y y y y n y 
   15   40    8  8.891e-07  8.429e-06  0.3209 y y y y y y n y 
   16   50    8  3.852e-07  3.217e-06  0.3209 y y y y y y n y 
   17   20    8  1.582e-07  1.196e-06  0.3209 y y y y y y n y Subspace collapsed.
   18   30    9  1.448e-07  1.091e-06  0.3209 y y y y y y n y 
   19   40   10  8.127e-08  6.030e-07  0.3209 y y y y y y y y Converged.
--------------------------------------------------------------------------------
  Davidson Summary: 
 ------------------------------------------------------------
  State  0: excitation energy =   0.3209 a.u.   (converged)
  State  1: excitation energy =   0.3290 a.u.   (converged)
  State  2: excitation energy =   0.3359 a.u.   (converged)
  State  3: excitation energy =   0.3579 a.u.   (converged)
  State  4: excitation energy =   0.3733 a.u.   (converged)
  State  5: excitation energy =   0.3866 a.u.   (converged)
  State  6: excitation energy =   0.4202 a.u.   (converged)
  State  7: excitation energy =   0.4435 a.u.   (converged)
  State  8: excitation energy =   0.4537 a.u.   (converged)
  State  9: excitation energy =   0.4585 a.u.   (converged)
 ------------------------------------------------------------

  Singlet states of irrep A ...  CPU 131.09 s  wall 42.36 s
  TDMs ...  CPU 2.45 s  wall 0.93 s
  SDMs ...  CPU 4.52 s  wall 1.43 s
  Starting TPA DIIS iterations ... 
------------------------------------ 
   It     Res. Norm  Remark
------------------------------------
                       Guess.
    1     4.397e+00  
    2     5.834e+00  
    3     1.086e+00  
    4     2.633e-01  
    5     6.571e-02  
    6     2.777e-02  
    7     8.477e-03  
    8     1.552e-03  
    9     5.830e-04  
   10     9.778e-05  
   11     3.155e-05  
   12     4.886e-06  
   13     1.646e-06  
   14     4.809e-07  Converged.
   ... Converged in 14 steps (norm: 4.8085e-07)
------------------------------------
  Starting TPA DIIS iterations ... 
------------------------------------ 
   It     Res. Norm  Remark
------------------------------------
                       Guess.
    1     4.187e+00  
    2     5.545e+00  
    3     1.037e+00  
    4     2.614e-01  
    5     6.544e-02  
    6     2.777e-02  
    7     8.334e-03  
    8     1.571e-03  
    9     5.919e-04  
   10     9.732e-05  
   11     3.186e-05  
   12     4.854e-06  
   13     1.675e-06  
   14     4.772e-07  Converged.
   ... Converged in 14 steps (norm: 4.77186e-07)
------------------------------------
  Starting TPA DIIS iterations ... 
------------------------------------ 
   It     Res. Norm  Remark
------------------------------------
                       Guess.
    1     6.855e-01  
    2     4.795e-01  
    3     1.687e-01  
    4     6.350e-02  
    5     1.873e-02  
    6     6.695e-03  
    7     1.081e-03  
    8     4.576e-04  
    9     1.322e-04  
   10     2.628e-05  
   11     8.651e-06  
   12     2.773e-06  
   13     1.931e-06  
   14     8.270e-07  Converged.
   ... Converged in 14 steps (norm: 8.26976e-07)
------------------------------------
  Starting TPA DIIS iterations ... 
------------------------------------ 
   It     Res. Norm  Remark
------------------------------------
                       Guess.
    1     4.593e+00  
    2     6.185e+00  
    3     1.142e+00  
    4     2.833e-01  
    5     7.138e-02  
    6     3.037e-02  
    7     9.258e-03  
    8     1.693e-03  
    9     6.394e-04  
   10     1.077e-04  
   11     3.498e-05  
   12     5.449e-06  
   13     1.846e-06  
   14     5.377e-07  Converged.
   ... Converged in 14 steps (norm: 5.37728e-07)
------------------------------------
  Starting TPA DIIS iterations ... 
------------------------------------ 
   It     Res. Norm  Remark
------------------------------------
                       Guess.
    1     4.373e+00  
    2     5.879e+00  
    3     1.090e+00  
    4     2.811e-01  
    5     7.110e-02  
    6     3.038e-02  
    7     9.103e-03  
    8     1.715e-03  
    9     6.495e-04  
   10     1.072e-04  
   11     3.531e-05  
   12     5.411e-06  
   13     1.878e-06  
   14     5.335e-07  Converged.
   ... Converged in 14 steps (norm: 5.3352e-07)
------------------------------------
  Starting TPA DIIS iterations ... 
------------------------------------ 
   It     Res. Norm  Remark
------------------------------------
                       Guess.
    1     6.939e-01  
    2     4.913e-01  
    3     1.753e-01  
    4     6.919e-02  
    5     1.971e-02  
    6     7.115e-03  
    7     1.174e-03  
    8     5.118e-04  
    9     1.497e-04  
   10     2.839e-05  
   11     9.624e-06  
   12     3.127e-06  
   13     2.253e-06  
   14     9.781e-07  Converged.
   ... Converged in 14 steps (norm: 9.78093e-07)
------------------------------------
  Starting TPA DIIS iterations ... 
------------------------------------ 
   It     Res. Norm  Remark
------------------------------------
                       Guess.
    1     4.773e+00  
    2     6.511e+00  
    3     1.193e+00  
    4     3.021e-01  
    5     7.673e-02  
    6     3.284e-02  
    7     9.997e-03  
    8     1.827e-03  
    9     6.930e-04  
   10     1.171e-04  
   11     3.827e-05  
   12     5.991e-06  
   13     2.039e-06  
   14     5.924e-07  Converged.
   ... Converged in 14 steps (norm: 5.92435e-07)
------------------------------------
  Starting TPA DIIS iterations ... 
------------------------------------ 
   It     Res. Norm  Remark
------------------------------------
                       Guess.
    1     4.544e+00  
    2     6.188e+00  
    3     1.138e+00  
    4     2.996e-01  
    5     7.644e-02  
    6     3.287e-02  
    7     9.831e-03  
    8     1.852e-03  
    9     7.042e-04  
   10     1.166e-04  
   11     3.861e-05  
   12     5.947e-06  
   13     2.076e-06  
   14     5.877e-07  Converged.
   ... Converged in 14 steps (norm: 5.87732e-07)
------------------------------------
  Starting TPA DIIS iterations ... 
------------------------------------ 
   It     Res. Norm  Remark
------------------------------------
                       Guess.
    1     7.012e-01  
    2     5.018e-01  
    3     1.813e-01  
    4     7.463e-02  
    5     2.059e-02  
    6     7.510e-03  
    7     1.263e-03  
    8     5.647e-04  
    9     1.668e-04  
   10     3.006e-05  
   11     1.057e-05  
   12     3.477e-06  
   13     2.577e-06  
   14     1.134e-06  
   15     4.405e-07  Converged.
   ... Converged in 15 steps (norm: 4.40502e-07)
------------------------------------
  Starting TPA DIIS iterations ... 
------------------------------------ 
   It     Res. Norm  Remark
------------------------------------
                       Guess.
    1     5.423e+00  
    2     7.722e+00  
    3     1.377e+00  
    4     3.744e-01  
    5     9.727e-02  
    6     4.241e-02  
    7     1.283e-02  
    8     2.340e-03  
    9     9.007e-04  
   10     1.537e-04  
   11     5.126e-05  
   12     8.137e-06  
   13     2.819e-06  
   14     8.104e-07  Converged.
   ... Converged in 14 steps (norm: 8.10448e-07)
------------------------------------
  Starting TPA DIIS iterations ... 
------------------------------------ 
   It     Res. Norm  Remark
------------------------------------
                       Guess.
    1     5.161e+00  
    2     7.338e+00  
    3     1.313e+00  
    4     3.706e-01  
    5     9.692e-02  
    6     4.249e-02  
    7     1.263e-02  
    8     2.376e-03  
    9     9.160e-04  
   10     1.530e-04  
   11     5.166e-05  
   12     8.066e-06  
   13     2.874e-06  
   14     8.041e-07  Converged.
   ... Converged in 14 steps (norm: 8.04129e-07)
------------------------------------
  Starting TPA DIIS iterations ... 
------------------------------------ 
   It     Res. Norm  Remark
------------------------------------
                       Guess.
    1     7.252e-01  
    2     5.381e-01  
    3     2.026e-01  
    4     9.605e-02  
    5     2.378e-02  
    6     9.026e-03  
    7     1.617e-03  
    8     7.761e-04  
    9     2.338e-04  
   10     3.420e-05  
   11     1.440e-05  
   12     4.957e-06  
   13     3.970e-06  
   14     1.838e-06  
   15     6.926e-07  Converged.
   ... Converged in 15 steps (norm: 6.92564e-07)
------------------------------------
  Starting TPA DIIS iterations ... 
------------------------------------ 
   It     Res. Norm  Remark
------------------------------------
                       Guess.
    1     5.973e+00  
    2     8.779e+00  
    3     1.531e+00  
    4     4.400e-01  
    5     1.159e-01  
    6     5.121e-02  
    7     1.541e-02  
    8     2.804e-03  
    9     1.091e-03  
   10     1.873e-04  
   11     6.344e-05  
   12     1.015e-05  
   13     3.567e-06  
   14     1.019e-06  
   15     3.319e-07  Converged.
   ... Converged in 15 steps (norm: 3.31947e-07)
------------------------------------
  Starting TPA DIIS iterations ... 
------------------------------------ 
   It     Res. Norm  Remark
------------------------------------
                       Guess.
    1     5.683e+00  
    2     8.342e+00  
    3     1.460e+00  
    4     4.349e-01  
    5     1.155e-01  
    6     5.135e-02  
    7     1.517e-02  
    8     2.852e-03  
    9     1.111e-03  
   10     1.866e-04  
   11     6.386e-05  
   12     1.005e-05  
   13     3.639e-06  
   14     1.012e-06  
   15     3.380e-07  Converged.
   ... Converged in 15 steps (norm: 3.37979e-07)
------------------------------------
  Starting TPA DIIS iterations ... 
------------------------------------ 
   It     Res. Norm  Remark
------------------------------------
                       Guess.
    1     7.432e-01  
    2     5.667e-01  
    3     2.200e-01  
    4     1.160e-01  
    5     2.650e-02  
    6     1.041e-02  
    7     1.956e-03  
    8     9.671e-04  
    9     2.934e-04  
   10     3.668e-05  
   11     1.818e-05  
   12     6.495e-06  
   13     5.412e-06  
   14     2.605e-06  
   15     9.609e-07  Converged.
   ... Converged in 15 steps (norm: 9.60926e-07)
------------------------------------
  Starting TPA DIIS iterations ... 
------------------------------------ 
   It     Res. Norm  Remark
------------------------------------
                       Guess.
    1     6.524e+00  
    2     9.869e+00  
    3     1.685e+00  
    4     5.096e-01  
    5     1.357e-01  
    6     6.064e-02  
    7     1.815e-02  
    8     3.296e-03  
    9     1.295e-03  
   10     2.234e-04  
   11     7.661e-05  
   12     1.233e-05  
   13     4.388e-06  
   14     1.252e-06  
   15     4.113e-07  Converged.
   ... Converged in 15 steps (norm: 4.11317e-07)
------------------------------------
  Starting TPA DIIS iterations ... 
------------------------------------ 
   It     Res. Norm  Remark
------------------------------------
                       Guess.
    1     6.206e+00  
    2     9.377e+00  
    3     1.606e+00  
    4     5.031e-01  
    5     1.352e-01  
    6     6.086e-02  
    7     1.787e-02  
    8     3.356e-03  
    9     1.319e-03  
   10     2.225e-04  
   11     7.703e-05  
   12     1.219e-05  
   13     4.479e-06  
   14     1.244e-06  
   15     4.206e-07  Converged.
   ... Converged in 15 steps (norm: 4.20551e-07)
------------------------------------
  Starting TPA DIIS iterations ... 
------------------------------------ 
   It     Res. Norm  Remark
------------------------------------
                       Guess.
    1     7.594e-01  
    2     5.939e-01  
    3     2.369e-01  
    4     1.376e-01  
    5     2.930e-02  
    6     1.188e-02  
    7     2.331e-03  
    8     1.157e-03  
    9     3.531e-04  
   10     3.998e-05  
   11     2.251e-05  
   12     8.330e-06  
   13     7.092e-06  
   14     3.533e-06  
   15     1.306e-06  
   16     5.614e-07  Converged.
   ... Converged in 16 steps (norm: 5.61366e-07)
------------------------------------
  Starting TPA DIIS iterations ... 
------------------------------------ 
   It     Res. Norm  Remark
------------------------------------
                       Guess.
    1     8.344e+00  
    2     1.366e+01  
    3     2.185e+00  
    4     7.630e-01  
    5     2.076e-01  
    6     9.570e-02  
    7     2.814e-02  
    8     5.080e-03  
    9     2.051e-03  
   10     3.567e-04  
   11     1.249e-04  
   12     2.044e-05  
   13     7.420e-06  
   14     2.203e-06  
   15     7.139e-07  Converged.
   ... Converged in 15 steps (norm: 7.13896e-07)
------------------------------------
  Starting TPA DIIS iterations ... 
------------------------------------ 
   It     Res. Norm  Remark
------------------------------------
                       Guess.
    1     7.933e+00  
    2     1.298e+01  
    3     2.081e+00  
    4     7.503e-01  
    5     2.070e-01  
    6     9.622e-02  
    7     2.771e-02  
    8     5.188e-03  
    9     2.090e-03  
   10     3.552e-04  
   11     1.252e-04  
   12     2.016e-05  
   13     7.572e-06  
   14     2.194e-06  
   15     7.441e-07  Converged.
   ... Converged in 15 steps (norm: 7.44068e-07)
------------------------------------
  Starting TPA DIIS iterations ... 
------------------------------------ 
   It     Res. Norm  Remark
------------------------------------
                       Guess.
    1     8.039e-01  
    2     6.750e-01  
    3     2.897e-01  
    4     2.157e-01  
    5     3.918e-02  
    6     1.722e-02  
    7     3.796e-03  
    8     1.668e-03  
    9     5.401e-04  
   10     6.386e-05  
   11     4.061e-05  
   12     1.676e-05  
   13     1.390e-05  
   14     7.625e-06  
   15     3.125e-06  
   16     1.395e-06  
   17     3.746e-07  Converged.
   ... Converged in 17 steps (norm: 3.74573e-07)
------------------------------------
  Starting TPA DIIS iterations ... 
------------------------------------ 
   It     Res. Norm  Remark
------------------------------------
                       Guess.
    1     1.014e+01  
    2     1.767e+01  
    3     2.668e+00  
    4     1.041e+00  
    5     2.873e-01  
    6     1.354e-01  
    7     3.920e-02  
    8     7.047e-03  
    9     2.902e-03  
   10     5.060e-04  
   11     1.765e-04  
   12     2.971e-05  
   13     1.066e-05  
   14     3.414e-06  
   15     1.114e-06  
   16     2.345e-07  Converged.
   ... Converged in 16 steps (norm: 2.34529e-07)
------------------------------------
  Starting TPA DIIS iterations ... 
------------------------------------ 
   It     Res. Norm  Remark
------------------------------------
                       Guess.
    1     9.641e+00  
    2     1.678e+01  
    3     2.539e+00  
    4     1.021e+00  
    5     2.865e-01  
    6     1.364e-01  
    7     3.862e-02  
    8     7.212e-03  
    9     2.958e-03  
   10     5.037e-04  
   11     1.769e-04  
   12     2.926e-05  
   13     1.090e-05  
   14     3.397e-06  
   15     1.191e-06  
   16     3.043e-07  Converged.
   ... Converged in 16 steps (norm: 3.0429e-07)
------------------------------------
  Starting TPA DIIS iterations ... 
------------------------------------ 
   It     Res. Norm  Remark
------------------------------------
                       Guess.
    1     8.385e-01  
    2     7.459e-01  
    3     3.382e-01  
    4     2.959e-01  
    5     4.973e-02  
    6     2.290e-02  
    7     5.503e-03  
    8     1.949e-03  
    9     7.100e-04  
   10     1.001e-04  
   11     6.397e-05  
   12     2.909e-05  
   13     2.145e-05  
   14     1.271e-05  
   15     5.972e-06  
   16     2.765e-06  
   17     9.125e-07  Converged.
   ... Converged in 17 steps (norm: 9.12494e-07)
------------------------------------
  Starting TPA DIIS iterations ... 
------------------------------------ 
   It     Res. Norm  Remark
------------------------------------
                       Guess.
    1     1.114e+01  
    2     1.997e+01  
    3     2.929e+00  
    4     1.203e+00  
    5     3.343e-01  
    6     1.592e-01  
    7     4.573e-02  
    8     8.203e-03  
    9     3.409e-03  
   10     5.944e-04  
   11     2.059e-04  
   12     3.540e-05  
   13     1.259e-05  
   14     4.183e-06  
   15     1.426e-06  
   16     2.941e-07  Converged.
   ... Converged in 16 steps (norm: 2.94059e-07)
------------------------------------
  Starting TPA DIIS iterations ... 
------------------------------------ 
   It     Res. Norm  Remark
------------------------------------
                       Guess.
    1     1.058e+01  
    2     1.897e+01  
    3     2.787e+00  
    4     1.178e+00  
    5     3.334e-01  
    6     1.604e-01  
    7     4.505e-02  
    8     8.403e-03  
    9     3.475e-03  
   10     5.916e-04  
   11     2.063e-04  
   12     3.485e-05  
   13     1.288e-05  
   14     4.157e-06  
   15     1.541e-06  
   16     3.937e-07  Converged.
   ... Converged in 16 steps (norm: 3.93657e-07)
------------------------------------
  Starting TPA DIIS iterations ... 
------------------------------------ 
   It     Res. Norm  Remark
------------------------------------
                       Guess.
    1     8.549e-01  
    2     7.822e-01  
    3     3.636e-01  
    4     3.383e-01  
    5     5.578e-02  
    6     2.605e-02  
    7     6.516e-03  
    8     2.035e-03  
    9     7.996e-04  
   10     1.222e-04  
   11     7.899e-05  
   12     3.770e-05  
   13     2.580e-05  
   14     1.531e-05  
   15     8.021e-06  
   16     3.778e-06  
   17     1.368e-06  
   18     5.067e-07  Converged.
   ... Converged in 18 steps (norm: 5.06736e-07)
------------------------------------
  Starting TPA DIIS iterations ... 
------------------------------------ 
   It     Res. Norm  Remark
------------------------------------
                       Guess.
    1     1.165e+01  
    2     2.120e+01  
    3     3.063e+00  
    4     1.290e+00  
    5     3.595e-01  
    6     1.721e-01  
    7     4.924e-02  
    8     8.824e-03  
    9     3.683e-03  
   10     6.419e-04  
   11     2.214e-04  
   12     3.854e-05  
   13     1.366e-05  
   14     4.609e-06  
   15     1.623e-06  
   16     3.285e-07  Converged.
   ... Converged in 16 steps (norm: 3.28454e-07)
------------------------------------
  Starting TPA DIIS iterations ... 
------------------------------------ 
   It     Res. Norm  Remark
------------------------------------
                       Guess.
    1     1.107e+01  
    2     2.014e+01  
    3     2.915e+00  
    4     1.262e+00  
    5     3.585e-01  
    6     1.734e-01  
    7     4.851e-02  
    8     9.043e-03  
    9     3.755e-03  
   10     6.388e-04  
   11     2.219e-04  
   12     3.792e-05  
   13     1.398e-05  
   14     4.580e-06  
   15     1.759e-06  
   16     4.466e-07  Converged.
   ... Converged in 16 steps (norm: 4.46642e-07)
------------------------------------
  Starting TPA DIIS iterations ... 
------------------------------------ 
   It     Res. Norm  Remark
------------------------------------
                       Guess.
    1     8.628e-01  
    2     8.004e-01  
    3     3.765e-01  
    4     3.594e-01  
    5     5.898e-02  
    6     2.767e-02  
    7     7.057e-03  
    8     2.068e-03  
    9     8.455e-04  
   10     1.340e-04  
   11     8.739e-05  
   12     4.269e-05  
   13     2.822e-05  
   14     1.632e-05  
   15     9.236e-06  
   16     4.361e-06  
   17     1.630e-06  
   18     5.649e-07  Converged.
   ... Converged in 18 steps (norm: 5.64881e-07)
------------------------------------
  Two-photon absorbption ...  CPU 169.00 s  wall 45.23 s
  Transition density matrix of state singlet_A_1 printed to ASCII file 'State_singlet_A_1_Transition.txt'
  Transition density matrix of state singlet_A_2 printed to ASCII file 'State_singlet_A_2_Transition.txt'
  Transition density matrix of state singlet_A_3 printed to ASCII file 'State_singlet_A_3_Transition.txt'
  Transition density matrix of state singlet_A_4 printed to ASCII file 'State_singlet_A_4_Transition.txt'
  Transition density matrix of state singlet_A_5 printed to ASCII file 'State_singlet_A_5_Transition.txt'
  Transition density matrix of state singlet_A_6 printed to ASCII file 'State_singlet_A_6_Transition.txt'
  Transition density matrix of state singlet_A_7 printed to ASCII file 'State_singlet_A_7_Transition.txt'
  Transition density matrix of state singlet_A_8 printed to ASCII file 'State_singlet_A_8_Transition.txt'
  Transition density matrix of state singlet_A_9 printed to ASCII file 'State_singlet_A_9_Transition.txt'
  Transition density matrix of state singlet_A_10 printed to ASCII file 'State_singlet_A_10_Transition.txt'
  Transition properties ...  CPU 0.34 s  wall 0.57 s
  Difference density matrix of state singlet_A_1 printed to ASCII file 'State_singlet_A_1_Difference.txt'
  Total density matrix of state singlet_A_1 printed to ASCII file 'State_singlet_A_1_Total.txt'
  Difference density matrix of state singlet_A_2 printed to ASCII file 'State_singlet_A_2_Difference.txt'
  Total density matrix of state singlet_A_2 printed to ASCII file 'State_singlet_A_2_Total.txt'
  Difference density matrix of state singlet_A_3 printed to ASCII file 'State_singlet_A_3_Difference.txt'
  Total density matrix of state singlet_A_3 printed to ASCII file 'State_singlet_A_3_Total.txt'
  Difference density matrix of state singlet_A_4 printed to ASCII file 'State_singlet_A_4_Difference.txt'
  Total density matrix of state singlet_A_4 printed to ASCII file 'State_singlet_A_4_Total.txt'
  Difference density matrix of state singlet_A_5 printed to ASCII file 'State_singlet_A_5_Difference.txt'
  Total density matrix of state singlet_A_5 printed to ASCII file 'State_singlet_A_5_Total.txt'
  Difference density matrix of state singlet_A_6 printed to ASCII file 'State_singlet_A_6_Difference.txt'
  Total density matrix of state singlet_A_6 printed to ASCII file 'State_singlet_A_6_Total.txt'
  Difference density matrix of state singlet_A_7 printed to ASCII file 'State_singlet_A_7_Difference.txt'
  Total density matrix of state singlet_A_7 printed to ASCII file 'State_singlet_A_7_Total.txt'
  Difference density matrix of state singlet_A_8 printed to ASCII file 'State_singlet_A_8_Difference.txt'
  Total density matrix of state singlet_A_8 printed to ASCII file 'State_singlet_A_8_Total.txt'
  Difference density matrix of state singlet_A_9 printed to ASCII file 'State_singlet_A_9_Difference.txt'
  Total density matrix of state singlet_A_9 printed to ASCII file 'State_singlet_A_9_Total.txt'
  Difference density matrix of state singlet_A_10 printed to ASCII file 'State_singlet_A_10_Difference.txt'
  Total density matrix of state singlet_A_10 printed to ASCII file 'State_singlet_A_10_Total.txt'
  Properties ...  CPU 0.85 s  wall 0.98 s
  ISR TDMS ...  CPU 27.69 s  wall 9.06 s
  ISR transition properties ...  CPU 0.49 s  wall 0.24 s
  Sum-over-states TPA ...  CPU 0.00 s  wall 0.00 s

--------------------------------------------------------------------------------
                   State-averaged natural transition orbitals
--------------------------------------------------------------------------------
--------------------------------------------------------------------------------
  SA-NTO decomposition ...  CPU 0.01 s  wall 0.04 s

--------------------------------------------------------------------------------
                             Excited State Summary
--------------------------------------------------------------------------------
--------------------------------------------------------------------------------

  Excited state 1 (singlet, A)                                     [converged]
  ----------------------------------------------------------------------------
  Term symbol:  2 (1) A                                     R^2 =  7.14182e-10

  Total energy:                                            -77.9992330123 a.u.
  Excitation energy:                                               8.731818 eV

  Osc. strength:                                                      0.446213
  Trans. dip. moment [a.u.]:           [  -1.047187,    0.994555,    0.009707]
  <i|r^2|0> [a.u.]:                    [  -6.183497,    0.249527,   -0.000150]
  Two-photon absorption cross-section (SoS) [a.u.]:                   0.000273
  Two-photon absorption matrix (SoS) [a.u.]:
                                       |   -0.005852   -0.000303   -0.000322 |
                                       |   -0.000303    0.005787    0.000279 |
                                       |   -0.000322    0.000279   -0.000010 |
  Two-photon absorption cross-section [a.u.]:                         0.000300
  Two-photon absorption matrix [a.u.]:
                                       |   -0.006098   -0.000333   -0.000059 |
                                       |   -0.000333    0.006082    0.000559 |
                                       |   -0.000059    0.000559    0.000057 |

  Dip. moment [a.u.]:                  [   0.000772,    0.000815,    0.000106]
  Total dipole [Debye]:                                               0.002866
  <r^2> [a.u.]:                        [ 176.578623,   36.018179,   11.918948]
  Total <r^2> [a.u.]:                                               224.515750

  V1^2 = 0.9713, V2^2 = 0.0287

  Important amplitudes:
      occ i     occ j     vir a      vir b          v   
    -----------------------------------------------------
     8 (A) A              9 (A) A                -0.6809
     6 (A) A             14 (A) A                 0.0617
     4 (A) A             10 (A) A                -0.0614
     7 (A) A             16 (A) A                -0.0575
     5 (A) A             13 (A) A                 0.0527
     6 (A) A             23 (A) A                 0.0484
     8 (A) A             20 (A) A                -0.0348
     6 (A) A             19 (A) A                 0.0302
     3 (A) A             12 (A) A                -0.0285
     5 (A) A             22 (A) A                -0.0218
     4 (A) A             24 (A) A                -0.0188
     3 (A) A             26 (A) A                -0.0186
     7 (A) A             11 (A) A                 0.0186
     8 (A) A   8 (A) B   17 (A) A   20 (A) B      0.0184
     8 (A) A   8 (A) B    9 (A) A   28 (A) B     -0.0168
     6 (A) A             26 (A) A                -0.0163
     7 (A) A             21 (A) A                 0.0152
     3 (A) A             14 (A) A                 0.0143
     6 (A) A             12 (A) A                 0.0136
     3 (A) A   4 (A) B    9 (A) A    9 (A) B      0.0129
     3 (A) A             19 (A) A                 0.0121
     8 (A) A   8 (A) B   18 (A) A   19 (A) B     -0.0111
     7 (A) A             32 (A) A                 0.0097
     7 (A) A             36 (A) A                 0.0086
     3 (A) A             23 (A) A                 0.0082
     8 (A) A   8 (A) B   25 (A) A   29 (A) B      0.0076
     6 (A) A             35 (A) A                -0.0072
     6 (A) A             40 (A) A                 0.0067
     3 (A) A   6 (A) B    9 (A) A   28 (A) B     -0.0065
     5 (A) A   8 (A) B   11 (A) A    9 (A) B     -0.0062
     7 (A) A   8 (A) B   13 (A) A   20 (A) B      0.0060
     5 (A) A   8 (A) B   11 (A) A   20 (A) B      0.0060
     5 (A) A   7 (A) B    9 (A) A    9 (A) B     -0.0060
     6 (A) A   8 (A) A   19 (A) A   28 (A) A     -0.0060
     5 (A) A             27 (A) A                 0.0060
     5 (A) A   8 (A) B   16 (A) A    9 (A) B     -0.0059
     3 (A) A   5 (A) B    9 (A) A   25 (A) B      0.0058
     7 (A) A   8 (A) B   22 (A) A   20 (A) B     -0.0057
     3 (A) A             40 (A) A                 0.0056
     8 (A) A   8 (A) B   19 (A) A   30 (A) B     -0.0056
    -----------------------------------------------------

  Density matrix analysis:
  ------------------------
  NOs
    Occupation of frontier NOs:
       0.9491   1.0219
    Number of electrons: 16.000000
    Number of unpaired electrons: n_u =  2.31678, n_u,nl =  2.03329
    NO participation ratio (PR_NO):  2.874072
  
  
  Mulliken Population Analysis
  Atom      Charge (e)              h+              e-           Del q
  --------------------------------------------------------------------
   1 H        0.062413        0.020411       -0.012431        0.007981
   2 C       -0.125964        0.490665       -0.506703       -0.016038
   3 H        0.063560        0.020464       -0.012407        0.008058
   4 C       -0.125981        0.490664       -0.506705       -0.016040
   5 H        0.062424        0.020413       -0.012430        0.007983
   6 H        0.063548        0.020463       -0.012407        0.008056
  --------------------------------------------------------------------
  Sum:        0.000000        1.063082       -1.063082       -0.000000
  
  Multipole moment analysis of the density matrix
    Molecular charge:                      0.000000
    Number of electrons:                   16.000000
      Center of electronic charge [Ang]: [ -1.561161,  -0.065100,   0.002146]
    Total nuclear charge:                  16.000000
      Center of nuclear charge [Ang]:    [ -1.561135,  -0.065073,   0.002150]
    Dipole moment [D]:                     0.002866
      Cartesian components [D]:          [  0.001962,   0.002072,   0.000270]
    RMS size of the density [Ang]:         1.219820
      Cartesian components [Ang]:        [  0.808219,   0.791293,   0.456726]
  
  Exciton analysis of the difference density matrix
    <r_h> [Ang]:                  [ -1.560869,  -0.064797,   0.002171]
    <r_e> [Ang]:                  [ -1.560797,  -0.064720,   0.002177]
    |<r_e - r_h>| [Ang]:            0.000106
    Hole size [Ang]:                1.287296
      Cartesian components [Ang]: [  0.730184,   0.714790,   0.782967]
    Electron size [Ang]:            1.463845
      Cartesian components [Ang]: [  0.854312,   0.831685,   0.849290]

  Transition density matrix analysis:
  -----------------------------------
  
  CT numbers (Mulliken)
    omega =     0.9532
    <Phe> =    -0.1603
  
  Exciton analysis of the transition density matrix
    Trans. dipole moment [D]:             1.835448
      Cartesian components [D]:         [ -1.330842,   1.263953,   0.012337]
    <r_h> [Ang]:                        [ -1.560754,  -0.064678,   0.002185]
    <r_e> [Ang]:                        [ -1.560834,  -0.064759,   0.002171]
    |<r_e - r_h>| [Ang]:                  0.000115
    Hole size [Ang]:                      1.214402
      Cartesian components [Ang]:       [  0.649922,   0.637059,   0.804071]
    Electron size [Ang]:                  1.486740
      Cartesian components [Ang]:       [  0.864778,   0.840557,   0.869493]
    RMS electron-hole separation [Ang]:   1.937162
      Cartesian components [Ang]:       [  1.106770,   1.076277,   1.170165]
    Covariance(r_h, r_e) [Ang^2]:        -0.033714
    Correlation coefficient:             -0.018673
    Center-of-mass size [Ang]:            0.951018
      Cartesian components [Ang]:       [  0.528096,   0.516331,   0.599126]

  Decomposition into state-averaged NTOs
    H- 0 -> L+ 0:  0.6697 ( 89.7%)
    H- 2 -> L+ 5:  0.0830 (  1.4%)
                   omega =  95.3%
  ----------------------------------------------------------------------------


  Excited state 2 (singlet, A)                                     [converged]
  ----------------------------------------------------------------------------
  Term symbol:  3 (1) A                                     R^2 =  7.77205e-12

  Total energy:                                            -77.9911310688 a.u.
  Excitation energy:                                               8.952283 eV

  Osc. strength:                                                      0.000024
  Trans. dip. moment [a.u.]:           [  -0.001030,   -0.000141,    0.010401]
  <i|r^2|0> [a.u.]:                    [  -0.071993,   -0.086845,    0.152641]
  Two-photon absorption cross-section (SoS) [a.u.]:                   4.570653
  Two-photon absorption matrix (SoS) [a.u.]:
                                       |   -0.049922   -0.057437    0.514717 |
                                       |   -0.057437   -0.065610    0.541320 |
                                       |    0.514717    0.541320    0.115528 |
  Two-photon absorption cross-section [a.u.]:                         0.171583
  Two-photon absorption matrix [a.u.]:
                                       |    0.008904    0.011091   -0.099771 |
                                       |    0.011091    0.013473   -0.104832 |
                                       |   -0.099771   -0.104832   -0.022384 |

  Dip. moment [a.u.]:                  [   0.008603,    0.009178,    0.001004]
  Total dipole [Debye]:                                               0.032076
  <r^2> [a.u.]:                        [ 174.966549,   34.372249,   13.212823]
  Total <r^2> [a.u.]:                                               222.551621

  V1^2 = 0.9541, V2^2 = 0.0459

  Important amplitudes:
      occ i     occ j     vir a      vir b          v   
    -----------------------------------------------------
     7 (A) A              9 (A) A                -0.6682
     8 (A) A             11 (A) A                 0.1514
     7 (A) A             20 (A) A                -0.0756
     5 (A) A   8 (A) B    9 (A) A    9 (A) B     -0.0315
     8 (A) A             16 (A) A                 0.0281
     8 (A) A             10 (A) A                -0.0194
     8 (A) A             21 (A) A                 0.0178
     5 (A) A             28 (A) A                 0.0150
     4 (A) A   7 (A) B    9 (A) A   19 (A) B     -0.0136
     5 (A) A   7 (A) B    9 (A) A   16 (A) B      0.0134
     7 (A) A   8 (A) B   20 (A) A   17 (A) B      0.0106
     7 (A) A   8 (A) A    9 (A) A   28 (A) A      0.0098
     5 (A) A   8 (A) B    9 (A) A   20 (A) B     -0.0094
     4 (A) A   6 (A) B    9 (A) A   16 (A) B      0.0091
     5 (A) A   6 (A) A    9 (A) A   23 (A) A     -0.0090
     5 (A) A   6 (A) A    9 (A) A   14 (A) A     -0.0089
     5 (A) A   6 (A) B    9 (A) A   19 (A) B     -0.0086
     8 (A) A   7 (A) B    9 (A) A   28 (A) B     -0.0085
     6 (A) A   7 (A) B    9 (A) A   18 (A) B      0.0085
     4 (A) A   5 (A) A    9 (A) A   10 (A) A     -0.0085
     3 (A) A   7 (A) B    9 (A) A   18 (A) B     -0.0080
     5 (A) A   6 (A) B    9 (A) A   23 (A) B     -0.0080
     5 (A) A   7 (A) A    9 (A) A   16 (A) A      0.0078
     4 (A) A   8 (A) B    9 (A) A   25 (A) B     -0.0076
     4 (A) A   7 (A) B   19 (A) A    9 (A) B     -0.0075
     7 (A) A   8 (A) B   17 (A) A   20 (A) B      0.0074
     5 (A) A   5 (A) B    9 (A) A   13 (A) B     -0.0072
     7 (A) A   8 (A) B   19 (A) A   18 (A) B     -0.0071
     4 (A) A   5 (A) B    9 (A) A   18 (A) B      0.0069
     5 (A) A   8 (A) A    9 (A) A   20 (A) A     -0.0068
     7 (A) A   7 (A) B   20 (A) A   22 (A) B     -0.0066
     7 (A) A   8 (A) B   17 (A) A    9 (A) B      0.0065
     5 (A) A   6 (A) B    9 (A) A   14 (A) B     -0.0063
     5 (A) A   7 (A) B   11 (A) A   20 (A) B      0.0062
     4 (A) A   5 (A) B   10 (A) A    9 (A) B      0.0061
     4 (A) A   7 (A) A    9 (A) A   19 (A) A     -0.0061
     5 (A) A             38 (A) A                -0.0059
     4 (A) A   6 (A) B   16 (A) A    9 (A) B      0.0058
     4 (A) A   8 (A) A    9 (A) A   25 (A) A     -0.0057
     6 (A) A   7 (A) A   19 (A) A   28 (A) A     -0.0056
    -----------------------------------------------------

  Density matrix analysis:
  ------------------------
  NOs
    Occupation of frontier NOs:
       0.9552   1.0561
    Number of electrons: 16.000000
    Number of unpaired electrons: n_u =  2.35842, n_u,nl =  2.06547
    NO participation ratio (PR_NO):  3.050020
  
  
  Mulliken Population Analysis
  Atom      Charge (e)              h+              e-           Del q
  --------------------------------------------------------------------
   1 H        0.156112        0.123446       -0.021767        0.101680
   2 C       -0.309619        0.272547       -0.472239       -0.199693
   3 H        0.153498        0.126173       -0.028177        0.097996
   4 C       -0.309631        0.272569       -0.472259       -0.199690
   5 H        0.156116        0.123444       -0.021770        0.101674
   6 H        0.153524        0.126203       -0.028171        0.098032
  --------------------------------------------------------------------
  Sum:        0.000000        1.044383       -1.044383       -0.000000
  
  Multipole moment analysis of the density matrix
    Molecular charge:                      0.000000
    Number of electrons:                   16.000000
      Center of electronic charge [Ang]: [ -1.561420,  -0.065377,   0.002117]
    Total nuclear charge:                  16.000000
      Center of nuclear charge [Ang]:    [ -1.561135,  -0.065073,   0.002150]
    Dipole moment [D]:                     0.032076
      Cartesian components [D]:          [  0.021866,   0.023329,   0.002553]
    RMS size of the density [Ang]:         1.205296
      Cartesian components [Ang]:        [  0.790060,   0.772853,   0.480878]
  
  Exciton analysis of the difference density matrix
    <r_h> [Ang]:                  [ -1.565561,  -0.069656,   0.001662]
    <r_e> [Ang]:                  [ -1.569455,  -0.073815,   0.001214]
    |<r_e - r_h>| [Ang]:            0.005716
    Hole size [Ang]:                1.496133
      Cartesian components [Ang]: [  1.013771,   1.001149,   0.456489]
    Electron size [Ang]:            1.480925
      Cartesian components [Ang]: [  0.885016,   0.862777,   0.815783]

  Transition density matrix analysis:
  -----------------------------------
  
  CT numbers (Mulliken)
    omega =     0.9214
    <Phe> =    -0.0114
  
  Exciton analysis of the transition density matrix
    Trans. dipole moment [D]:             0.013285
      Cartesian components [D]:         [ -0.001309,  -0.000179,   0.013219]
    <r_h> [Ang]:                        [ -1.565774,  -0.069868,   0.001641]
    <r_e> [Ang]:                        [ -1.569754,  -0.074140,   0.001177]
    |<r_e - r_h>| [Ang]:                  0.005857
    Hole size [Ang]:                      1.526843
      Cartesian components [Ang]:       [  1.038414,   1.025754,   0.448078]
    Electron size [Ang]:                  1.476391
      Cartesian components [Ang]:       [  0.874060,   0.851047,   0.831547]
    RMS electron-hole separation [Ang]:   2.104002
      Cartesian components [Ang]:       [  1.341340,   1.317894,   0.943815]
    Covariance(r_h, r_e) [Ang^2]:         0.042096
    Correlation coefficient:              0.018675
    Center-of-mass size [Ang]:            1.071818
      Cartesian components [Ang]:       [  0.686548,   0.673810,   0.472680]

  Decomposition into state-averaged NTOs
    H- 1 -> L+ 0:  0.6605 ( 87.2%)
    H- 0 -> L+ 2: -0.1519 (  4.6%)
                   omega =  92.1%
  ----------------------------------------------------------------------------


  Excited state 3 (singlet, A)                                     [converged]
  ----------------------------------------------------------------------------
  Term symbol:  4 (1) A                                     R^2 =  2.22776e-11

  Total energy:                                            -77.9841814359 a.u.
  Excitation energy:                                               9.141392 eV

  Osc. strength:                                                      0.023530
  Trans. dip. moment [a.u.]:           [  -0.015370,   -0.019667,    0.323174]
  <i|r^2|0> [a.u.]:                    [  -0.088846,   -0.002900,   -0.006384]
  Two-photon absorption cross-section (SoS) [a.u.]:                   0.011982
  Two-photon absorption matrix (SoS) [a.u.]:
                                       |   -0.001215   -0.002863    0.026454 |
                                       |   -0.002863   -0.004749    0.027588 |
                                       |    0.026454    0.027588    0.005764 |
  Two-photon absorption cross-section [a.u.]:                         0.011360
  Two-photon absorption matrix [a.u.]:
                                       |   -0.001579   -0.002784    0.025748 |
                                       |   -0.002784   -0.004338    0.026881 |
                                       |    0.025748    0.026881    0.005668 |

  Dip. moment [a.u.]:                  [   0.048962,    0.051480,    0.005440]
  Total dipole [Debye]:                                               0.181108
  <r^2> [a.u.]:                        [ 181.634398,   41.013373,   11.059099]
  Total <r^2> [a.u.]:                                               233.706870

  V1^2 = 0.9580, V2^2 = 0.0420

  Important amplitudes:
      occ i     occ j     vir a      vir b          v   
    -----------------------------------------------------
     8 (A) A             10 (A) A                -0.6884
     8 (A) A             24 (A) A                -0.0508
     8 (A) A             18 (A) A                 0.0331
     4 (A) A              9 (A) A                -0.0247
     8 (A) A   8 (A) B    9 (A) A   12 (A) B     -0.0223
     7 (A) A              9 (A) A                 0.0209
     8 (A) A   8 (A) B   10 (A) A   17 (A) B     -0.0172
     5 (A) A   8 (A) B   11 (A) A   10 (A) B     -0.0169
     8 (A) A             15 (A) A                 0.0149
     7 (A) A   8 (A) B   13 (A) A   10 (A) B     -0.0143
     4 (A) A   8 (A) B   12 (A) A   10 (A) B     -0.0113
     6 (A) A   8 (A) A   10 (A) A   15 (A) A     -0.0112
     7 (A) A   8 (A) B   22 (A) A   10 (A) B      0.0109
     6 (A) A   8 (A) B   15 (A) A   10 (A) B      0.0109
     4 (A) A   8 (A) A   10 (A) A   12 (A) A      0.0108
     7 (A) A   8 (A) A   10 (A) A   22 (A) A     -0.0099
     7 (A) A   8 (A) A   10 (A) A   13 (A) A      0.0098
     5 (A) A   8 (A) A   10 (A) A   11 (A) A      0.0097
     5 (A) A   8 (A) B   21 (A) A   10 (A) B     -0.0093
     6 (A) A   8 (A) B   10 (A) A   10 (A) B      0.0090
     6 (A) A   8 (A) A   10 (A) A   18 (A) A      0.0086
     7 (A) A   8 (A) A   12 (A) A   16 (A) A     -0.0084
     3 (A) A   4 (A) B   10 (A) A    9 (A) B      0.0080
     5 (A) A   8 (A) A   10 (A) A   21 (A) A      0.0079
     4 (A) A   8 (A) B   19 (A) A   10 (A) B      0.0075
     8 (A) A   8 (A) B    9 (A) A   23 (A) B     -0.0075
     8 (A) A   8 (A) B   10 (A) A   28 (A) B     -0.0074
     5 (A) A   8 (A) B   10 (A) A   11 (A) B     -0.0072
     7 (A) A   8 (A) B   16 (A) A   12 (A) B      0.0072
     3 (A) A   8 (A) A   10 (A) A   24 (A) A      0.0072
     3 (A) A   8 (A) B   10 (A) A   10 (A) B     -0.0071
     8 (A) A   8 (A) B    9 (A) A   19 (A) B      0.0070
     3 (A) A   8 (A) B   10 (A) A   18 (A) B      0.0068
     6 (A) A   8 (A) B   18 (A) A   10 (A) B     -0.0065
     3 (A) A   6 (A) B   10 (A) A   28 (A) B     -0.0062
     7 (A) A   8 (A) B   12 (A) A   11 (A) B      0.0059
     6 (A) A             28 (A) A                 0.0058
     5 (A) A   8 (A) A   10 (A) A   16 (A) A      0.0057
     3 (A) A   5 (A) B   10 (A) A   25 (A) B      0.0056
     6 (A) A   8 (A) A   11 (A) A   16 (A) A     -0.0055
    -----------------------------------------------------

  Density matrix analysis:
  ------------------------
  NOs
    Occupation of frontier NOs:
       0.9821   0.9838
    Number of electrons: 16.000000
    Number of unpaired electrons: n_u =  2.29047, n_u,nl =  2.02545
    NO participation ratio (PR_NO):  2.705436
  
  
  Mulliken Population Analysis
  Atom      Charge (e)              h+              e-           Del q
  --------------------------------------------------------------------
   1 H       -0.147357        0.054674       -0.256463       -0.201789
   2 C        0.309505        0.537126       -0.117695        0.419431
   3 H       -0.162141        0.054146       -0.271789       -0.217643
   4 C        0.309492        0.537125       -0.117691        0.419433
   5 H       -0.147343        0.054676       -0.256461       -0.201784
   6 H       -0.162156        0.054145       -0.271793       -0.217648
  --------------------------------------------------------------------
  Sum:        0.000000        1.291892       -1.291892        0.000000
  
  Multipole moment analysis of the density matrix
    Molecular charge:                      0.000000
    Number of electrons:                   16.000000
      Center of electronic charge [Ang]: [ -1.562755,  -0.066776,   0.001970]
    Total nuclear charge:                  16.000000
      Center of nuclear charge [Ang]:    [ -1.561135,  -0.065073,   0.002150]
    Dipole moment [D]:                     0.181108
      Cartesian components [D]:          [  0.124448,   0.130849,   0.013827]
    RMS size of the density [Ang]:         1.282038
      Cartesian components [Ang]:        [  0.858326,   0.844599,   0.439943]
  
  Exciton analysis of the difference density matrix
    <r_h> [Ang]:                  [ -1.561439,  -0.065393,   0.002111]
    <r_e> [Ang]:                  [ -1.581119,  -0.086083,  -0.000069]
    |<r_e - r_h>| [Ang]:            0.028638
    Hole size [Ang]:                1.413092
      Cartesian components [Ang]: [  0.836763,   0.822906,   0.787072]
    Electron size [Ang]:            2.079327
      Cartesian components [Ang]: [  1.376906,   1.380413,   0.722627]

  Transition density matrix analysis:
  -----------------------------------
  
  CT numbers (Mulliken)
    omega =     0.9250
    <Phe> =    -0.0109
  
  Exciton analysis of the transition density matrix
    Trans. dipole moment [D]:             0.411937
      Cartesian components [D]:         [ -0.019533,  -0.024994,   0.410713]
    <r_h> [Ang]:                        [ -1.559648,  -0.063515,   0.002306]
    <r_e> [Ang]:                        [ -1.587923,  -0.093238,  -0.000824]
    |<r_e - r_h>| [Ang]:                  0.041144
    Hole size [Ang]:                      1.213089
      Cartesian components [Ang]:       [  0.636795,   0.624256,   0.822423]
    Electron size [Ang]:                  2.300728
      Cartesian components [Ang]:       [  1.522547,   1.528709,   0.798906]
    RMS electron-hole separation [Ang]:   2.591142
      Cartesian components [Ang]:       [  1.642925,   1.644349,   1.144960]
    Covariance(r_h, r_e) [Ang^2]:         0.026305
    Correlation coefficient:              0.009425
    Center-of-mass size [Ang]:            1.305521
      Cartesian components [Ang]:       [  0.828992,   0.829200,   0.574095]

  Decomposition into state-averaged NTOs
    H- 0 -> L+ 1:  0.6786 ( 92.1%)
                   omega =  92.5%
  ----------------------------------------------------------------------------


  Excited state 4 (singlet, A)                                     [converged]
  ----------------------------------------------------------------------------
  Term symbol:  5 (1) A                                     R^2 =  1.65617e-11

  Total energy:                                            -77.9622356425 a.u.
  Excitation energy:                                               9.738568 eV

  Osc. strength:                                                      0.000033
  Trans. dip. moment [a.u.]:           [  -0.000724,   -0.000552,    0.011671]
  <i|r^2|0> [a.u.]:                    [   0.009516,    0.018083,   -0.032099]
  Two-photon absorption cross-section (SoS) [a.u.]:                 134.685525
  Two-photon absorption matrix (SoS) [a.u.]:
                                       |    0.270726    0.311787   -2.794413 |
                                       |    0.311787    0.356417   -2.938183 |
                                       |   -2.794413   -2.938183   -0.627146 |
  Two-photon absorption cross-section [a.u.]:                        80.051356
  Two-photon absorption matrix [a.u.]:
                                       |    0.209319    0.240401   -2.154225 |
                                       |    0.240401    0.274173   -2.265295 |
                                       |   -2.154225   -2.265295   -0.483497 |

  Dip. moment [a.u.]:                  [  -0.067595,   -0.071152,   -0.007567]
  Total dipole [Debye]:                                               0.250190
  <r^2> [a.u.]:                        [ 181.061965,   40.992765,   10.787191]
  Total <r^2> [a.u.]:                                               232.841921

  V1^2 = 0.9633, V2^2 = 0.0367

  Important amplitudes:
      occ i     occ j     vir a      vir b          v   
    -----------------------------------------------------
     8 (A) A             11 (A) A                -0.6687
     7 (A) A              9 (A) A                -0.1533
     8 (A) A             21 (A) A                -0.0778
     8 (A) A             16 (A) A                -0.0674
     8 (A) A   8 (A) B    9 (A) A   13 (A) B      0.0167
     5 (A) A   8 (A) B   11 (A) A   11 (A) B     -0.0157
     7 (A) A             20 (A) A                -0.0140
     8 (A) A   8 (A) B   11 (A) A   17 (A) B     -0.0137
     7 (A) A   8 (A) B   13 (A) A   11 (A) B     -0.0127
     4 (A) A   8 (A) B   12 (A) A   11 (A) B     -0.0111
     8 (A) A   8 (A) B    9 (A) A   22 (A) B     -0.0110
     5 (A) A   8 (A) A   11 (A) A   21 (A) A      0.0109
     7 (A) A   8 (A) A   11 (A) A   22 (A) A     -0.0095
     8 (A) A             10 (A) A                -0.0093
     6 (A) A   8 (A) B   10 (A) A   11 (A) B      0.0091
     6 (A) A   8 (A) B   15 (A) A   11 (A) B      0.0089
     7 (A) A   8 (A) B   22 (A) A   11 (A) B      0.0089
     3 (A) A   4 (A) B   11 (A) A    9 (A) B      0.0083
     3 (A) A   8 (A) B   11 (A) A   18 (A) B      0.0080
     6 (A) A   8 (A) A   11 (A) A   15 (A) A     -0.0079
     7 (A) A   8 (A) A   13 (A) A   16 (A) A      0.0079
     7 (A) A   8 (A) A   11 (A) A   13 (A) A      0.0075
     4 (A) A   8 (A) B   19 (A) A   11 (A) B      0.0070
     5 (A) A   8 (A) B   21 (A) A   11 (A) B     -0.0069
     5 (A) A   8 (A) B    9 (A) A    9 (A) B     -0.0069
     4 (A) A   8 (A) A   11 (A) A   12 (A) A      0.0062
     3 (A) A   6 (A) B   11 (A) A   28 (A) B     -0.0060
     6 (A) A   8 (A) A   11 (A) A   18 (A) A      0.0059
     6 (A) A   8 (A) B   18 (A) A   11 (A) B     -0.0058
     7 (A) A   8 (A) B   16 (A) A   13 (A) B     -0.0057
     3 (A) A   8 (A) B   11 (A) A   30 (A) B      0.0056
     5 (A) A   8 (A) B   10 (A) A   10 (A) B     -0.0055
     7 (A) A   8 (A) B   12 (A) A   10 (A) B      0.0055
     8 (A) A   8 (A) B   20 (A) A   22 (A) B     -0.0055
     6 (A) A   8 (A) B   11 (A) A   10 (A) B      0.0055
     3 (A) A   5 (A) B   11 (A) A   25 (A) B      0.0054
     3 (A) A   8 (A) A   11 (A) A   18 (A) A      0.0054
     3 (A) A   8 (A) A   11 (A) A   24 (A) A      0.0053
     5 (A) A   8 (A) A   11 (A) A   16 (A) A      0.0049
     6 (A) A   8 (A) A   10 (A) A   16 (A) A     -0.0047
    -----------------------------------------------------

  Density matrix analysis:
  ------------------------
  NOs
    Occupation of frontier NOs:
       0.9387   1.0294
    Number of electrons: 16.000000
    Number of unpaired electrons: n_u =  2.32234, n_u,nl =  2.05100
    NO participation ratio (PR_NO):  2.932205
  
  
  Mulliken Population Analysis
  Atom      Charge (e)              h+              e-           Del q
  --------------------------------------------------------------------
   1 H       -0.139225        0.046127       -0.239784       -0.193657
   2 C        0.251278        0.495324       -0.134121        0.361204
   3 H       -0.112042        0.045898       -0.213442       -0.167544
   4 C        0.251264        0.495330       -0.134125        0.361205
   5 H       -0.139502        0.046117       -0.240060       -0.193943
   6 H       -0.111772        0.045911       -0.213175       -0.167264
  --------------------------------------------------------------------
  Sum:        0.000000        1.174707       -1.174707        0.000000
  
  Multipole moment analysis of the density matrix
    Molecular charge:                      0.000000
    Number of electrons:                   16.000000
      Center of electronic charge [Ang]: [ -1.558900,  -0.062720,   0.002400]
    Total nuclear charge:                  16.000000
      Center of nuclear charge [Ang]:    [ -1.561135,  -0.065073,   0.002150]
    Dipole moment [D]:                     0.250190
      Cartesian components [D]:          [ -0.171810,  -0.180849,  -0.019234]
    RMS size of the density [Ang]:         1.281031
      Cartesian components [Ang]:        [  0.859499,   0.844697,   0.434499]
  
  Exciton analysis of the difference density matrix
    <r_h> [Ang]:                  [ -1.559059,  -0.062883,   0.002376]
    <r_e> [Ang]:                  [ -1.528195,  -0.030394,   0.005838]
    |<r_e - r_h>| [Ang]:            0.044945
    Hole size [Ang]:                1.394954
      Cartesian components [Ang]: [  0.819592,   0.806342,   0.789923]
    Electron size [Ang]:            2.113842
      Cartesian components [Ang]: [  1.418995,   1.415152,   0.672405]

  Transition density matrix analysis:
  -----------------------------------
  
  CT numbers (Mulliken)
    omega =     0.9293
    <Phe> =    -0.0146
  
  Exciton analysis of the transition density matrix
    Trans. dipole moment [D]:             0.014877
      Cartesian components [D]:         [ -0.000920,  -0.000702,   0.014832]
    <r_h> [Ang]:                        [ -1.560966,  -0.064895,   0.002160]
    <r_e> [Ang]:                        [ -1.522168,  -0.024047,   0.006514]
    |<r_e - r_h>| [Ang]:                  0.056505
    Hole size [Ang]:                      1.229152
      Cartesian components [Ang]:       [  0.661953,   0.649503,   0.806708]
    Electron size [Ang]:                  2.247350
      Cartesian components [Ang]:       [  1.508448,   1.505645,   0.712881]
    RMS electron-hole separation [Ang]:   2.551001
      Cartesian components [Ang]:       [  1.638902,   1.632071,   1.076080]
    Covariance(r_h, r_e) [Ang^2]:         0.028492
    Correlation coefficient:              0.010314
    Center-of-mass size [Ang]:            1.286310
      Cartesian components [Ang]:       [  0.828055,   0.823962,   0.538522]

  Decomposition into state-averaged NTOs
    H- 0 -> L+ 2:  0.6634 ( 88.0%)
    H- 1 -> L+ 0:  0.1512 (  4.6%)
                   omega =  92.9%
  ----------------------------------------------------------------------------


  Excited state 5 (singlet, A)                                     [converged]
  ----------------------------------------------------------------------------
  Term symbol:  6 (1) A                                     R^2 =  5.07389e-11

  Total energy:                                            -77.9468064652 a.u.
  Excitation energy:                                              10.158417 eV

  Osc. strength:                                                      0.000000
  Trans. dip. moment [a.u.]:           [  -0.000034,   -0.000021,    0.000008]
  <i|r^2|0> [a.u.]:                    [   0.081084,   -0.097016,    0.015792]
  Two-photon absorption cross-section (SoS) [a.u.]:                 223.464373
  Two-photon absorption matrix (SoS) [a.u.]:
                                       |    0.367947    0.056046   -3.823706 |
                                       |    0.056046   -0.437515    3.625362 |
                                       |   -3.823706    3.625362    0.071041 |
  Two-photon absorption cross-section [a.u.]:                       115.442732
  Two-photon absorption matrix [a.u.]:
                                       |    0.265029    0.040660   -2.748290 |
                                       |    0.040660   -0.313862    2.605747 |
                                       |   -2.748290    2.605747    0.050935 |

  Dip. moment [a.u.]:                  [   0.006916,    0.007237,    0.000770]
  Total dipole [Debye]:                                               0.025519
  <r^2> [a.u.]:                        [ 180.375284,   39.751859,   11.600258]
  Total <r^2> [a.u.]:                                               231.727401

  V1^2 = 0.9554, V2^2 = 0.0446

  Important amplitudes:
      occ i     occ j     vir a      vir b          v   
    -----------------------------------------------------
     8 (A) A             12 (A) A                 0.5697
     6 (A) A              9 (A) A                -0.3819
     8 (A) A             19 (A) A                -0.0525
     6 (A) A             20 (A) A                -0.0520
     8 (A) A             23 (A) A                 0.0293
     8 (A) A   8 (A) B    9 (A) A   10 (A) B      0.0205
     8 (A) A             26 (A) A                 0.0184
     3 (A) A              9 (A) A                -0.0158
     4 (A) A   8 (A) B    9 (A) A    9 (A) B     -0.0158
     5 (A) A   8 (A) B   11 (A) A   12 (A) B      0.0149
     8 (A) A   8 (A) B   12 (A) A   17 (A) B      0.0133
     7 (A) A   8 (A) B   13 (A) A   12 (A) B      0.0130
     4 (A) A   8 (A) B   12 (A) A   12 (A) B      0.0124
[...]
    16   -1.443152293944e-03
    17   -1.721142269393e-03
    18   -1.448605379055e-04
    19   -2.917742429524e-03
    20    1.240091638680e-02
    21    9.375033574495e-01
    22   -4.342314140596e-04
    23    1.377282586239e-02
    24    8.128036231558e-04
    25    7.034712321165e-02
    26   -5.224025902431e-02
    27   -1.383538878908e+00
    28    1.019220396746e-01
    29   -9.263566766111e-02
    30   -7.327478435291e-04
    31    3.904658837869e-01
    32   -3.598078967913e-01
    33   -3.105055587282e-03
    34    1.506395762165e-02
    35   -1.412126234707e-03
    36   -1.752471235939e-03
    37    4.167214638905e-04
    38   -2.888540886293e-03
    39    1.062233467520e-02
    40    9.179039095179e-01
    41    5.834371006643e-04
    42   -1.367840209119e-02
    43   -7.994847835922e-04
    44    1.240210034009e-02
    45    9.375206935549e-01
    46    1.378370164298e-02
    47    2.711319306135e-04
    48    6.763907367541e-04
Sym=X
Ene= 0.231049
Spin=Alpha
Occup=0
     1    2.940891853802e-02
     2    1.181765801268e+00
     3   -1.324890973130e-02
     4   -3.584729500108e-03
     5   -8.531497064822e-04
     6    7.245167611533e-04
     7   -4.184361357830e-04
     8   -2.156994001936e-02
     9   -1.553674283544e-01
    10   -1.618223417253e-01
    11   -1.725154576296e-02
    12   -5.352843481780e-01
    13   -5.528723426912e-01
    14   -5.916191513237e-02
    15    3.597748235192e-04
    16    3.101220523298e-05
    17   -1.248117142483e-04
    18    1.391620074634e-03
    19   -1.177013682995e-04
    20   -3.033468726240e-02
    21   -1.154984965783e+00
    22   -2.790859129850e-03
    23   -1.281475999554e-02
    24   -9.094500442460e-04
    25    8.508304628493e-04
    26   -5.514700316445e-04
    27   -2.357476177445e-02
    28   -1.536883034527e-01
    29   -1.634215867274e-01
    30   -1.723960595001e-02
    31   -5.246993640065e-01
    32   -5.628795283559e-01
    33   -5.914910304731e-02
    34    3.861035377181e-04
    35   -1.178377121205e-04
    36    2.696576884529e-05
    37   -1.370472637583e-03
    38   -2.734237719923e-04
    39    2.944363704547e-02
    40    1.183195581989e+00
    41   -2.917184927030e-03
    42   -1.342683040715e-02
    43   -9.509901729730e-04
    44   -3.030010027200e-02
    45   -1.153474908363e+00
    46   -1.264382550637e-02
    47   -3.426899352357e-03
    48   -8.129516133453e-04
Sym=X
Ene= 0.236440
Spin=Alpha
Occup=0
     1   -1.952980388757e-02
     2   -1.074928136809e+00
     3    1.598924824236e-02
     4    9.191471381992e-03
     5    1.322940840250e-03
     6   -8.712383415812e-02
     7    8.232887900282e-02
     8    1.545068803272e+00
     9    5.829975864573e-02
    10   -5.653842509231e-02
    11   -6.200496892758e-04
    12    2.418030233382e-01
    13   -2.301186609254e-01
    14   -2.294698641447e-03
    15   -2.128287270830e-02
    16    2.507408951023e-03
    17    2.876112920282e-03
    18   -5.869429634602e-04
    19    1.241317435490e-02
    20   -1.906864631337e-02
    21   -1.069460352684e+00
    22   -8.425562082978e-03
    23   -1.622307167031e-02
    24   -1.385362700563e-03
    25    8.712064002322e-02
    26   -8.232402079332e-02
    27   -1.545003903516e+00
    28    5.968941434574e-02
    29   -5.507698884461e-02
    30   -4.794904679731e-04
    31    2.430612254411e-01
    32   -2.287928367087e-01
    33   -2.212608076663e-03
    34    2.128188236635e-02
    35   -2.502260489822e-03
    36   -2.879399452326e-03
    37    6.411551891139e-04
    38   -1.240957098845e-02
    39    1.949896641889e-02
    40    1.073176785201e+00
    41   -8.365187812442e-03
    42   -1.640739247768e-02
    43   -1.394103457558e-03
    44    1.910056135289e-02
    45    1.071127869543e+00
    46    1.579997269942e-02
    47    9.243418998796e-03
    48    1.315625215549e-03
Sym=X
Ene= 0.302961
Spin=Alpha
Occup=0
     1   -2.152294538895e-02
     2    1.663350645683e+00
     3   -2.356716564789e-02
     4    3.522167220874e-04
     5   -1.111875309813e-03
     6    5.667042282384e-05
     7    1.191688561010e-04
     8   -1.031842161206e-02
     9   -1.355582986196e-01
    10   -1.427130377284e-01
    11   -1.513908959289e-02
    12   -1.125692368370e+00
    13   -1.182560143606e+00
    14   -1.255263474633e-01
    15    2.420504215149e-04
    16   -1.769741280109e-03
    17    1.944294161181e-03
    18   -3.407058666305e-02
    19   -1.903246681298e-03
    20    2.061721480745e-02
    21   -1.652333522256e+00
    22    1.651963257248e-03
    23   -2.338155482480e-02
    24   -1.332905711082e-03
    25   -5.486849245092e-05
    26   -1.244042151663e-04
    27    1.026554364252e-02
    28    1.356783166802e-01
    29    1.426078670176e-01
    30    1.512385097406e-02
    31    1.124169312697e+00
    32    1.183987631235e+00
    33    1.254915004291e-01
    34   -1.761407599602e-04
    35   -1.712903914559e-03
    36    2.006427875771e-03
    37   -3.408476117129e-02
    38   -1.581072270687e-03
    39    2.151657368943e-02
    40   -1.663324113945e+00
    41   -1.554942511353e-03
    42    2.350622832129e-02
    43    1.344724150307e-03
    44   -2.061257060587e-02
    45    1.652354838789e+00
    46    2.344751688360e-02
    47   -4.566744282933e-04
    48    1.098077026104e-03
Sym=X
Ene= 0.462776
Spin=Alpha
Occup=0
     1   -1.138268097084e-01
     2   -7.065470189983e-01
     3   -1.495384190836e-02
     4   -1.032282991200e-02
     5   -1.342847175627e-03
     6    6.251434287441e-02
     7    1.658777490790e-02
     8   -3.641064463150e+00
     9    1.042566657773e-01
    10   -9.917587072160e-02
    11   -1.002339514692e-03
    12    2.437598313730e+00
    13   -2.306500380760e+00
    14   -2.210738771297e-02
    15    5.296916884593e-02
    16   -3.256122193640e-03
    17   -4.549998374567e-03
    18   -8.955677851708e-04
    19    2.012823695989e-02
    20   -1.150162368178e-01
    21   -6.910620704683e-01
    22    9.522363802409e-03
    23    1.547751571838e-02
    24    1.392889684930e-03
    25   -6.251570776469e-02
    26   -1.657990562523e-02
    27    3.641080917474e+00
    28    1.044393798438e-01
    29   -9.900981450770e-02
    30   -9.915926913499e-04
    31    2.429013622600e+00
    32   -2.315465598706e+00
    33   -2.309682855255e-02
    34   -5.296461054212e-02
    35    3.270258487386e-03
    36    4.522712028356e-03
    37    1.259556925697e-03
    38   -2.011636670463e-02
    39    1.137607836032e-01
    40    7.065955511401e-01
    41    9.555730815803e-03
    42    1.544959612467e-02
    43    1.390852411485e-03
    44    1.150152006997e-01
    45    6.910622945692e-01
    46   -1.498122772993e-02
    47   -1.028776136833e-02
    48   -1.340772532981e-03
Sym=X
Ene= 0.579806
Spin=Alpha
Occup=0
     1   -2.416941056725e-01
     2   -4.884556891768e-02
     3    2.142544992629e-02
     4   -2.651727282616e-02
     5   -5.731645331327e-04
     6    6.250925747914e-03
     7    1.689899460606e-01
     8    4.174594969189e-01
     9   -3.058844913160e-01
    10    2.898689327901e-01
    11    2.803670230780e-03
    12    7.520109716614e-01
    13   -7.065619205464e-01
    14   -6.575667812077e-03
    15    1.978373667853e-03
    16   -3.693502771716e-03
    17   -3.233387550493e-03
    18    2.151888785885e-03
    19   -5.983245291206e-02
    20   -2.337990193379e-01
    21   -4.691255828421e-02
    22    2.857463294125e-02
    23   -2.127618741321e-02
    24    8.698513490567e-05
    25    6.259488754976e-03
    26    1.689952351808e-01
    27    4.170597598177e-01
    28    3.052583337002e-01
    29   -2.904985141262e-01
    30   -2.870469769145e-03
    31   -7.447692812759e-01
    32    7.147227029923e-01
    33    7.424223005941e-03
    34    1.976758989561e-03
    35   -3.601837720605e-03
    36   -3.336861442268e-03
    37    3.940158657825e-03
    38   -5.974099366181e-02
    39   -2.416426778163e-01
    40   -4.898576087699e-02
    41   -2.759577918310e-02
    42    2.004080693988e-02
    43   -1.136582031540e-04
    44   -2.338295600614e-01
    45   -4.699699498529e-02
    46   -2.271577506646e-02
    47    2.743954660592e-02
    48    5.675264906061e-04
Sym=X
Ene= 0.608869
Spin=Alpha
Occup=0
     1    5.137592285323e-01
     2   -2.399684493444e-01
     3    5.942717813449e-02
     4   -3.739486284513e-02
     5    5.940743904757e-04
     6   -3.706550486763e-05
     7    2.172931701084e-03
     8   -3.500958400279e-03
     9    3.438634904814e-02
    10    3.868704700180e-02
    11    3.984202450084e-03
    12   -2.577858279634e-01
    13   -2.779320713255e-01
    14   -2.920047095295e-02
    15    8.987320099926e-04
    16    7.449965383894e-03
    17   -8.771174267616e-03
    18    1.486306026528e-01
    19    6.559987378992e-03
    20   -5.249143367223e-01
    21    2.504169794174e-01
    22   -3.972445115241e-02
    23    5.762206198286e-02
    24    1.572309768269e-03
    25   -2.914831133789e-05
    26    2.141935055579e-03
    27   -3.129391489528e-03
    28    3.688519275974e-02
    29    3.631340494465e-02
    30    3.969724476613e-03
    31   -2.643605078186e-01
    32   -2.717025481702e-01
    33   -2.908036528000e-02
    34    1.138454724961e-03
    35   -7.734754353949e-03
    36    8.455432358863e-03
    37   -1.485362530937e-01
    38   -8.637293509327e-03
    39    5.138927870395e-01
    40   -2.400801761622e-01
    41   -4.039000128097e-02
    42    5.742022964984e-02
    43    1.531919897605e-03
    44   -5.248307565200e-01
    45    2.504100716165e-01
    46    5.959730005322e-02
    47   -3.671580089030e-02
    48    6.431252287305e-04
Sym=X
Ene= 0.688651
Spin=Alpha
Occup=0
     1    4.549675349889e-05
     2    3.295392696906e-05
     3    9.269886975492e-04
     4    1.171980665799e-03
     5   -1.927824917046e-02
     6    2.472228179004e-06
     7   -2.552430400887e-06
     8    5.568753686426e-05
     9    3.221908142830e-02
    10    4.052870356764e-02
    11   -6.706307062250e-01
    12   -2.954930489492e-02
    13   -3.692665402406e-02
    14    6.126558211549e-01
    15   -1.326671481944e-03
    16    8.263353798665e-02
    17   -7.833010300896e-02
    18   -8.697806182162e-03
    19   -1.210520609058e-03
    20    3.978449191688e-05
    21    5.673444718504e-05
    22    8.764750595422e-04
    23    1.107822245601e-03
    24   -1.831709999008e-02
    25   -5.612978292066e-07
    26    3.274643544766e-05
    27   -7.804527990285e-05
    28    3.220143737988e-02
    29    4.049419653213e-02
    30   -6.706331887906e-01
    31   -2.951990615711e-02
    32   -3.688553117347e-02
    33    6.126570200224e-01
    34    1.328177858762e-03
    35   -8.256598241948e-02
    36    7.840077775154e-02
    37    8.707623586412e-03
    38    1.207827373803e-03
    39   -1.878593536630e-05
    40   -5.127103472596e-05
    41    9.203417564603e-04
    42    1.170675475699e-03
    43   -1.927259382666e-02
    44   -1.356992147445e-05
    45   -7.564584457792e-05
    46    8.708269529569e-04
    47    1.107475992372e-03
    48   -1.832169099448e-02
Sym=X
Ene= 0.704768
Spin=Alpha
Occup=0
     1   -4.901733005301e-01
     2    1.565444932773e-01
     3   -7.840999074141e-02
     4   -4.392581786950e-02
     5   -6.426578714310e-03
     6   -4.595692700790e-02
     7   -3.013275867636e-01
     8    4.638110961449e-01
     9    1.937889914990e-01
    10   -1.882985813432e-01
    11   -2.086255551256e-03
    12   -5.011081624770e-02
    13    6.288495611162e-02
    14    1.341066517545e-03
    15    1.911355971587e-01
    16   -2.050465999291e-02
    17   -2.401909126897e-02
    18    3.146251621224e-03
    19   -7.664742163138e-02
    20   -4.856550256623e-01
    21    1.710157780939e-01
    22    4.078916439847e-02
    23    7.996492639737e-02
    24    6.786288028191e-03
    25   -4.595302642334e-02
    26   -3.013203360181e-01
    27    4.635114880058e-01
    28   -1.979989069883e-01
    29    1.838671921919e-01
    30    1.575281700556e-03
    31    6.503588007879e-02
    32   -4.681794174502e-02
    33    3.923377569596e-04
    34    1.911421656338e-01
    35   -2.043364492170e-02
    36   -2.407832843413e-02
    37    4.354421952417e-03
    38   -7.657561839995e-02
    39   -4.902049392578e-01
    40    1.566837333467e-01
    41   -3.988357751790e-02
    42   -8.052420385387e-02
    43   -6.774286717276e-03
    44   -4.856319603166e-01
    45    1.707852009178e-01
    46    7.780733317099e-02
    47    4.479976793102e-02
    48    6.445207954447e-03
Sym=X
Ene= 0.775729
Spin=Alpha
Occup=0
     1    5.353516275778e-01
     2   -4.678602746889e-01
     3    1.068236423710e-01
     4    2.646396334248e-02
     5    6.733208315857e-03
     6    8.893243557689e-02
     7   -2.266740609960e-01
     8   -5.668453870015e-01
     9    1.078206583594e-01
    10   -9.373155906594e-02
    11   -4.465838951376e-04
    12    2.827176544928e-01
    13   -2.916455187063e-01
    14   -4.068382162484e-03
    15   -2.032135903257e-01
    16    1.742611462903e-02
    17    2.183263350888e-02
    18   -1.038918248207e-03
    19    7.624020093002e-03
    20    5.420852991070e-01
    21   -4.935383724824e-01
    22   -2.086563050400e-02
    23   -1.097882457090e-01
    24   -7.635977771035e-03
    25   -8.893207251723e-02
    26    2.266934374384e-01
    27    5.668707695672e-01
    28    9.922296892607e-02
    29   -1.027956292074e-01
    30   -1.441191991697e-03
    31    3.056111060836e-01
    32   -2.674853605377e-01
    33   -1.433045644795e-03
    34    2.032161596002e-01
    35   -1.748755333757e-02
    36   -2.172290149264e-02
    37   -6.325694154494e-04
    38   -7.706769389976e-03
    39   -5.352841896814e-01
    40    4.679876274752e-01
    41   -2.100730740885e-02
    42   -1.079742519499e-01
    43   -7.528010938368e-03
    44   -5.421879382577e-01
    45    4.933996975046e-01
    46    1.086376003718e-01
    47    2.641928777514e-02
    48    6.811561503498e-03
Sym=X
Ene= 0.807405
Spin=Alpha
Occup=0
     1    1.080660835550e-05
     2    2.969720429707e-05
     3    1.527861535351e-03
     4    1.927503168568e-03
     5   -3.193410056959e-02
     6    3.552435383653e-06
     7   -3.351193073570e-05
     8    1.718332091332e-05
     9    3.674922116171e-02
    10    4.617273772406e-02
    11   -7.642385156949e-01
    12   -5.406363654599e-02
    13   -6.794194343732e-02
    14    1.124364155650e+00
    15    1.049043288249e-03
    16   -6.535868405462e-02
    17    6.204888287542e-02
    18    6.878879943367e-03
    19    9.559833270980e-04
    20    1.310284320964e-05
    21   -4.348588151786e-05
    22    1.481860075835e-03
    23    1.866389705437e-03
    24   -3.092489288731e-02
    25   -5.311411980125e-07
    26   -2.494626075195e-05
    27    1.226573803857e-05
    28   -3.668447774412e-02
    29   -4.613993998186e-02
    30    7.642453650050e-01
    31    5.398758673472e-02
    32    6.785720295510e-02
    33   -1.124372598016e+00
    34    1.055239305509e-03
    35   -6.539803702763e-02
    36    6.200481086652e-02
    37    6.897260397099e-03
    38    9.659013823301e-04
    39   -1.001685960424e-05
    40    5.906116639111e-05
    41   -1.531700415436e-03
    42   -1.943133530894e-03
    43    3.192010339297e-02
    44   -8.200201968537e-06
    45   -1.286820847712e-05
    46   -1.478043633777e-03
    47   -1.874274664639e-03
    48    3.093228470337e-02
Sym=X
Ene= 0.858426
Spin=Alpha
Occup=0
     1    1.523442577746e-02
     2   -1.075130883860e+00
     3    1.464700286152e-01
     4    5.595549528830e-02
     5    1.041191084420e-02
     6    3.388396510663e-04
     7    7.269603400572e-03
     8   -5.809245146545e-03
     9   -4.108640195008e-01
    10   -4.338173005103e-01
    11   -4.597976622670e-02
    12    9.358527030531e-01
    13    9.870936844547e-01
    14    1.046647584669e-01
    15   -1.932619891306e-03
    16    1.193812798593e-02
    17   -1.315172908937e-02
    18    2.303519328256e-01
    19    1.207931328920e-02
    20   -1.336041723257e-02
    21    1.076188068026e+00
    22    4.868326756974e-02
    23    1.487538211372e-01
    24    1.133297718503e-02
    25    3.279054921831e-04
    26    7.260502596804e-03
    27   -5.839383165244e-03
    28   -4.125139675503e-01
    29   -4.323076167308e-01
    30   -4.588730665714e-02
    31    9.386254418415e-01
    32    9.845759179952e-01
    33    1.044697324011e-01
    34   -1.480155835979e-03
    35   -1.161666287975e-02
    36    1.354358574570e-02
    37   -2.303896012705e-01
    38   -1.147581810418e-02
    39    1.518611904386e-02
    40   -1.075062466134e+00
    41    4.842582465171e-02
    42    1.490486267448e-01
    43    1.133494654432e-02
    44   -1.341292130492e-02
    45    1.076309005245e+00
    46    1.461801646498e-01
    47    5.618382812220e-02
    48    1.040381655604e-02
Sym=X
Ene= 0.928007
Spin=Alpha
Occup=0
     1   -1.443067638934e-01
     2    1.218796813837e+00
     3   -1.823884300800e-01
     4    7.529247049202e-03
     5   -8.315111796417e-03
     6   -1.492458169774e-03
     7   -3.495415816225e-03
     8   -1.396951569079e-02
     9    4.625845188077e-01
    10    5.091523520009e-01
    11    5.298633176500e-02
    12   -1.354465880230e+00
    13   -1.480644552912e+00
    14   -1.545295079734e-01
    15    4.365073340964e-03
    16   -6.459813583223e-03
    17    7.119596459564e-03
    18   -1.258834947616e-01
    19   -7.417450661036e-04
    20    1.391106346382e-01
    21   -1.242846234479e+00
    22    1.332179073478e-02
    23   -1.823902348842e-01
    24   -1.037615141105e-02
    25    1.486954255746e-03
    26    3.318601347473e-03
    27    1.426750110424e-02
    28   -4.851216668363e-01
    29   -4.877216544035e-01
    30   -5.275022700386e-02
    31    1.410222882273e+00
    32    1.427591246432e+00
    33    1.539363481967e-01
    34   -4.101137035662e-03
    35   -6.393012098347e-03
    36    7.420067976030e-03
    37   -1.252828213535e-01
    38   -1.212036375406e-02
    39    1.442792670323e-01
    40   -1.218828728370e+00
    41   -1.684381080189e-02
    42    1.816660216930e-01
    43    1.015921795860e-02
    44   -1.391385169470e-01
    45    1.242710912024e+00
    46    1.829161985332e-01
    47   -3.989728947221e-03
    48    8.541920345668e-03
Sym=X
Ene= 0.970604
Spin=Alpha
Occup=0
     1   -6.012891002016e-02
     2    9.290433722958e-01
     3   -9.180409054377e-02
     4   -9.676379979323e-02
     5   -1.024856471657e-02
     6    2.704615727327e-02
     7    2.528741942660e-01
     8    5.136617816040e-01
     9    4.927720697510e-01
    10   -4.483631553031e-01
    11   -3.406645856244e-03
    12   -1.511285763692e+00
    13    1.361690397750e+00
    14    9.625386424696e-03
    15   -5.784619662560e-02
    16   -1.256165267228e-02
    17   -8.993899733097e-03
    18    1.190677732872e-02
    19   -2.964786562833e-01
    20   -5.944998180510e-02
    21    8.643095069486e-01
    22    9.209595608907e-02
    23    8.812474205915e-02
    24    9.755447956994e-03
    25   -2.704600691836e-02
    26   -2.528420634017e-01
    27   -5.137102362187e-01
    28    4.731655430394e-01
    29   -4.689898487815e-01
    30   -5.614147432087e-03
    31   -1.437786031206e+00
    32    1.439037566061e+00
    33    1.788262092181e-02
    34    5.784910875013e-02
    35    1.222499606666e-02
    36    9.374563551272e-03
    37   -1.845993919784e-02
    38    2.961330652287e-01
    39    6.015231654999e-02
    40   -9.289975974745e-01
    41    9.198853399815e-02
    42    9.657191377599e-02
    43    1.026203465255e-02
    44    5.943653808559e-02
    45   -8.643352110894e-01
    46   -8.335821938942e-02
    47   -9.643378035701e-02
    48   -9.816261684579e-03
[5D]

======= END OF MOLDEN-FORMATTED INPUT FILE =======


        *************************************************************
        *                                                           *
        *  Thank you very much for using Q-Chem.  Have a nice day.  *
        *                                                           *
        *************************************************************


