                  Welcome to Q-Chem
     A Quantum Leap Into The Future Of Chemistry


 Q-Chem 5.4 (devel), Q-Chem, Inc., Pleasanton, CA (2021)

 E. Epifanovsky,  A. T. B. Gilbert,  Xintian Feng,  Joonho Lee,  Yuezhi Mao,  
 N. Mardirossian,  P. Pokhilko,  A. White,  M. Wormit,  M. P. Coons,  
 A. L. Dempwolff,  Zhengting Gan,  D. Hait,  P. R. Horn,  L. D. Jacobson,  
 I. Kaliman,  J. Kussmann,  A. W. Lange,  Ka Un Lao,  D. S. Levine,  Jie Liu,  
 S. C. McKenzie,  A. F. Morrison,  K. Nanda,  F. Plasser,  D. R. Rehn,  
 M. L. Vidal,  Zhi-Qiang You,  Ying Zhu,  B. Alam,  B. Albrecht,  
 A. Aldossary,  E. Alguire,  J. H. Andersen,  D. Barton,  K. Begam,  A. Behn,  
 Y. A. Bernard,  E. J. Berquist,  H. Burton,  A. Carreras,  K. Carter-Fenk,  
 R. Chakraborty,  A. D. Chien,  K. D. Closser,  V. Cofer-Shabica,  
 S. Dasgupta,  Jia Deng,  M. de Wergifosse,  M. Diedenhofen,  Hainam Do,  
 S. Ehlert,  Po-Tung Fang,  S. Fatehi,  Qingguo Feng,  T. Friedhoff,  
 J. Gayvert,  Qinghui Ge,  G. Gidofalvi,  M. Goldey,  J. Gomes,  
 C. Gonzalez-Espinoza,  S. Gulania,  A. Gunina,  M. W. D. Hanson-Heine,  
 P. H. P. Harbach,  A. W. Hauser,  M. F. Herbst,  M. Hernandez Vera,  
 M. Hodecker,  Z. C. Holden,  S. Houck,  Xunkun Huang,  Kerwin Hui,  
 B. C. Huynh,  M. Ivanov,  Hyunjun Ji,  Hanjie Jiang,  B. Kaduk,  S. Kaehler,  
 K. Khistyaev,  Jaehoon Kim,  P. Klunzinger,  Z. Koczor-Benda,  
 Joong Hoon Koh,  D. Kosenkov,  L. Koulias,  T. Kowalczyk,  C. M. Krauter,  
 K. Kue,  A. Kunitsa,  T. Kus,  A. Landau,  K. V. Lawler,  D. Lefrancois,  
 S. Lehtola,  Rain Li,  Yi-Pei Li,  Jiashu Liang,  M. Liebenthal,  
 Hung-Hsuan Lin,  You-Sheng Lin,  Fenglai Liu,  Kuan-Yu Liu,  
 M. Loipersberger,  A. Luenser,  A. Manjanath,  P. Manohar,  E. Mansoor,  
 S. F. Manzer,  Shan-Ping Mao,  A. V. Marenich,  T. Markovich,  S. Mason,  
 S. A. Maurer,  P. F. McLaughlin,  M. F. S. J. Menger,  J.-M. Mewes,  
 S. A. Mewes,  P. Morgante,  J. W. Mullinax,  K. J. Oosterbaan,  G. Paran,  
 Alexander C. Paul,  Suranjan K. Paul,  F. Pavosevic,  Zheng Pei,  S. Prager,  
 E. I. Proynov,  E. Ramos,  B. Rana,  A. E. Rask,  A. Rettig,  R. M. Richard,  
 F. Rob,  E. Rossomme,  T. Scheele,  M. Scheurer,  M. Schneider,  
 N. Sergueev,  S. M. Sharada,  W. Skomorowski,  D. W. Small,  C. J. Stein,  
 Yu-Chuan Su,  E. J. Sundstrom,  Zhen Tao,  J. Thirman,  T. Tsuchimochi,  
 N. M. Tubman,  S. P. Veccham,  O. Vydrov,  J. Wenzel,  J. Witte,  A. Yamada,  
 Kun Yao,  S. Yeganeh,  S. R. Yost,  A. Zech,  Igor Ying Zhang,  Xing Zhang,  
 Yu Zhang,  D. Zuev,  A. Aspuru-Guzik,  A. T. Bell,  N. A. Besley,  
 K. B. Bravaya,  B. R. Brooks,  D. Casanova,  Jeng-Da Chai,  S. Coriani,  
 C. J. Cramer,  A. E. DePrince, III,  R. A. DiStasio Jr.,  A. Dreuw,  
 B. D. Dunietz,  T. R. Furlani,  W. A. Goddard III,  S. Grimme,  
 S. Hammes-Schiffer,  T. Head-Gordon,  W. J. Hehre,  Chao-Ping Hsu,  
 T.-C. Jagau,  Yousung Jung,  A. Klamt,  Jing Kong,  D. S. Lambrecht,  
 WanZhen Liang,  N. J. Mayhall,  C. W. McCurdy,  J. B. Neaton,  
 C. Ochsenfeld,  J. A. Parkhill,  R. Peverati,  V. A. Rassolov,  Yihan Shao,  
 L. V. Slipchenko,  T. Stauch,  R. P. Steele,  J. E. Subotnik,  
 A. J. W. Thom,  A. Tkatchenko,  D. G. Truhlar,  T. Van Voorhis,  
 T. A. Wesolowski,  K. B. Whaley,  H. L. Woodcock III,  P. M. Zimmerman,  
 S. Faraji,  P. M. W. Gill,  M. Head-Gordon,  J. M. Herbert,  A. I. Krylov

 Additional authors for Version 5.4.1: 
 S. Kotaru,  Shaozhi Li,  Xiangyuan Li,  F. Matz,  A. Molle,  Haisheng Ren,  
 Yingli Su,  Hung-Yi Tsai,  C. Utku,  Fang Wang

 Contributors to earlier versions of Q-Chem not listed above: 
 R. D. Adamson,  B. Austin,  R. Baer,  J. Baker,  G. J. O. Beran,  
 K. Brandhorst,  S. T. Brown,  E. F. C. Byrd,  A. K. Chakraborty,  
 G. K. L. Chan,  Chun-Min Chang,  Yunqing Chen,  C.-L. Cheng,  
 Siu Hung Chien,  D. M. Chipman,  D. L. Crittenden,  H. Dachsel,  
 R. J. Doerksen,  A. D. Dutoi,  R. G. Edgar,  J. Fosso-Tande,  
 L. Fusti-Molnar,  D. Ghosh,  A. Ghysels,  A. Golubeva-Zadorozhnaya,  
 J. Gonthier,  M. S. Gordon,  S. R. Gwaltney,  G. Hawkins,  J. E. Herr,  
 A. Heyden,  S. Hirata,  E. G. Hohenstein,  G. Kedziora,  F. J. Keil,  
 C. Kelley,  Jihan Kim,  R. A. King,  R. Z. Khaliullin,  P. P. Korambath,  
 W. Kurlancheek,  A. Laurent,  A. M. Lee,  M. S. Lee,  S. V. Levchenko,  
 Ching Yeh Lin,  D. Liotard,  E. Livshits,  R. C. Lochan,  I. Lotan,  
 L. A. Martinez-Martinez,  P. E. Maslen,  N. Nair,  D. P. O'Neill,  
 D. Neuhauser,  E. Neuscamman,  C. M. Oana,  R. Olivares-Amaya,  R. Olson,  
 T. M. Perrine,  B. Peters,  P. A. Pieniazek,  A. Prociuk,  Y. M. Rhee,  
 J. Ritchie,  M. A. Rohrdanz,  E. Rosta,  N. J. Russ,  H. F. Schaefer III,  
 M. W. Schmidt,  N. E. Schultz,  S. Sharma,  N. Shenvi,  C. D. Sherrill,  
 A. C. Simmonett,  A. Sodt,  T. Stein,  D. Stuck,  K. S. Thanthiriwatte,  
 V. Vanovschi,  L. Vogt,  Tao Wang,  A. Warshel,  M. A. Watson,  
 C. F. Williams,  Q. Wu,  X. Xu,  Jun Yang,  W. Zhang,  Yan Zhao

 Please cite Q-Chem as follows:
 Y. Shao et al., Mol. Phys. 113, 184-215 (2015)
 DOI: 10.1080/00268976.2014.952696

 Q-Chem 5.4.1 for Intel X86 EM64T Linux

 Parts of Q-Chem use Armadillo 9.800.1 (Horizon Scraper).
 http://arma.sourceforge.net/

 Q-Chem begins on Thu Nov 17 15:41:54 2022  

 Host: cpu186.baobab
0

     Scratch files written to /scratch/fum/qchem59737//
 Processing $rem in /home/share/wesolowski/qc5.aug2021.FDE/config/preferences:
 Processing $rem in /home/fum/.qchemrc:

 Checking the input file for inconsistencies... 	...done.

--------------------------------------------------------------
User input:
--------------------------------------------------------------
$comment
generated from CCJob.Templates
$end

$rem
sym_ignore = true
method = adc(2)
ee_states = 10
basis = cc-pVDZ
mem_static = 1024
mem_total = 40000
adc_davidson_maxiter = 900
adc_davidson_conv = 6
adc_print = 3
adc_prop_es = true
adc_prop_es2es = true
adc_prop_tpa = true
molden_format = True
state_analysis = true
print_orbitals = 15
gen_scfman = false
fde_export_density = true
fde_details = 3
$end

$molecule
0 1
H -0.0348278765 -0.2442097827 0.0636489606
C -1.0765972949 -0.5242748755 -0.0023551776
H -1.313264467 -1.5867591607 -0.0757276926
C -2.043634118 0.3926884087 0.0061254933
H -1.8137616575 1.4459188338 0.0804456828
H -3.085977293 0.114931858 -0.0593381042                     
$end
--------------------------------------------------------------
 ----------------------------------------------------------------
             Standard Nuclear Orientation (Angstroms)
    I     Atom           X                Y                Z
 ----------------------------------------------------------------
    1      H      -0.0348278765    -0.2442097827     0.0636489606
    2      C      -1.0765972949    -0.5242748755    -0.0023551776
    3      H      -1.3132644670    -1.5867591607    -0.0757276926
    4      C      -2.0436341180     0.3926884087     0.0061254933
    5      H      -1.8137616575     1.4459188338     0.0804456828
    6      H      -3.0859772930     0.1149318580    -0.0593381042
 ----------------------------------------------------------------
 Nuclear Repulsion Energy =          33.38847364 hartrees
 There are        8 alpha and        8 beta electrons
 Requested basis set is cc-pVDZ
 There are 24 shells and 48 basis functions
 Total memory of 40000 MB is distributed as follows: 
   MEM_STATIC is set to 1024 MB
   QALLOC/CCMAN JOB total memory use is  38976 MB
 Warning: actual memory use might exceed 40000 MB

 Total QAlloc Memory Limit  40000 MB
 Mega-Array Size      1001 MB
 MEM_STATIC part      1024 MB

                       Distance Matrix (Angstroms)
             H (  1)   C (  2)   H (  3)   C (  4)   H (  5)
   C (  2)  1.080776
   H (  3)  1.859103  1.090994
   C (  4)  2.108139  1.332687  2.111481
   H (  5)  2.453859  2.105215  3.077665  1.080583
   H (  6)  3.074674  2.109370  2.457342  1.080700  1.846510

 A cutoff of  1.0D-11 yielded    300 shell pairs
 There are      1220 function pairs (      1329 Cartesian)
 Smallest overlap matrix eigenvalue = 4.80E-03

 Scale SEOQF with 1.000000e-01/1.000000e-01/1.000000e+00

 Standard Electronic Orientation quadrupole field applied
 Nucleus-field energy     =     0.0000000022 hartrees
 Guess from superposition of atomic densities
 Warning:  Energy on first SCF cycle will be non-variational
 SAD guess density has 16.000000 electrons
 A restricted Hartree-Fock SCF calculation will be
 performed using Pulay DIIS extrapolation
 SCF converges when DIIS error is below 1.0E-08
 using 10 threads for integral computing
 -------------------------------------------------------
 OpenMP Integral computing Module                
 Release: version 1.0, May 2013, Q-Chem Inc. Pittsburgh 
 -------------------------------------------------------
 ---------------------------------------
  Cycle       Energy         DIIS Error
 ---------------------------------------
    1     -78.4318152800      1.01E-01
    2     -78.0176893549      7.20E-03
    3     -78.0382958796      1.84E-03
    4     -78.0397782436      5.73E-04
    5     -78.0398998077      5.89E-05
    6     -78.0399016973      1.15E-05
    7     -78.0399017690      4.71E-06
    8     -78.0399017771      9.98E-07
    9     -78.0399017778      1.67E-07
   10     -78.0399017778      5.40E-08
   11     -78.0399017778      7.86E-09 Convergence criterion met
 ---------------------------------------
 SCF time:  CPU 2.18 s  wall 3.48 s
 SCF   energy in the final basis set = -78.03990178
 Total energy in the final basis set = -78.03990178
Exporting Density Matrix to file 'Densmat_SCF.txt'.
Export successful
================================================================================
|                                                                              |
|                                 A D C  M A N                                 |
|                                                                              |
 ------------------------------------------------------------------------------ 
|                                                                              |
| Components:                                                                  |
|                                                                              |
| - libvmm - 1.3-trunk                                                         |
|   Authors:                                                                   |
|   Evgeny Epifanovsky, Ilya Kaliman                                           |
|                                                                              |
| - libtensor - 2.5-trunk                                                      |
|   Authors:                                                                   |
|   Evgeny Epifanovsky, Michael Wormit, Dmitry Zuev, Sam Manzer,               |
|   Ilya Kaliman                                                               |
|                                                                              |
| - libwfa - 1.1-trunk                                                         |
|   Authors:                                                                   |
|   Felix Plasser, Stefanie Mewes (Baeppler), Benjamin Thomitzni,              |
|   Michael Wormit, Feng Chen, Anna I. Krylov, Pavel Pokhilko                  |
|                                                                              |
| - libadc - 1.1-trunk                                                         |
|   Authors:                                                                   |
|   Michael Wormit, Adrian L. Dempwolff, Philipp H. P. Harbach,                |
|   Caroline Krauter, Dirk Rehn, Matthias Schneider, Jan Wenzel                |
|                                                                              |
| - adcman - 2.6-trunk                                                         |
|   Authors:                                                                   |
|   Michael Wormit, Adrian L. Dempwolff, Philipp H. P. Harbach,                |
|   Caroline Krauter, Daniel Lefrancois, Jan-Michael Mewes, Dirk Rehn,         |
|   Matthias Schneider, Jan Wenzel, Andreas Dreuw                              |
|                                                                              |
| Authors of earlier versions of ADCMAN:                                       |
| Andreas Dreuw, Jan Hendrik Starcke, Dirk Rehn, Michael Wormit                |
|                                                                              |
================================================================================

 Created directory /scratch/fum/qchem59737/plots
  Import QC data ...  CPU 0.00 s  wall 0.00 s

 Alpha MOs, Restricted
 -- Occupied --                  
-11.236 -11.234  -1.032  -0.789  -0.640  -0.582  -0.504  -0.374
  1 A     2 A     3 A     4 A     5 A     6 A     7 A     8 A                  
 -- Virtual --                   
  0.168   0.203   0.233   0.239   0.303   0.462   0.578   0.615
  9 A    10 A    11 A    12 A    13 A    14 A    15 A    16 A                  
  0.689   0.708   0.783   0.808   0.862   0.935   0.972   1.009
 17 A    18 A    19 A    20 A    21 A    22 A    23 A    24 A                  
  1.130   1.235   1.253   1.266   1.293   1.600   1.725   1.749
 25 A    26 A    27 A    28 A    29 A    30 A    31 A    32 A                  
  1.818   1.859   1.865   1.919   1.974   1.978   2.221   2.256
 33 A    34 A    35 A    36 A    37 A    38 A    39 A    40 A                  
  2.373   2.449   2.502   2.630   2.714   2.817   3.134   3.393
 41 A    42 A    43 A    44 A    45 A    46 A    47 A    48 A                  

 Beta MOs, Restricted
 -- Occupied --                  
-11.236 -11.234  -1.032  -0.789  -0.640  -0.582  -0.504  -0.374
  1 A     2 A     3 A     4 A     5 A     6 A     7 A     8 A                  
 -- Virtual --                   
  0.168   0.203   0.233   0.239   0.303   0.462   0.578   0.615
  9 A    10 A    11 A    12 A    13 A    14 A    15 A    16 A                  
  0.689   0.708   0.783   0.808   0.862   0.935   0.972   1.009
 17 A    18 A    19 A    20 A    21 A    22 A    23 A    24 A                  
  1.130   1.235   1.253   1.266   1.293   1.600   1.725   1.749
 25 A    26 A    27 A    28 A    29 A    30 A    31 A    32 A                  
  1.818   1.859   1.865   1.919   1.974   1.978   2.221   2.256
 33 A    34 A    35 A    36 A    37 A    38 A    39 A    40 A                  
  2.373   2.449   2.502   2.630   2.714   2.817   3.134   3.393
 41 A    42 A    43 A    44 A    45 A    46 A    47 A    48 A                  
  Import AO data ...  CPU 0.00 s  wall 0.00 s
  Using point group: C1
  Irreducible representations in point group: A
  Molecular orbitals: 
  Occupied MOs:
  Block   0:   1 (  A) A   2 (  A) A   3 (  A) A   4 (  A) A   5 (  A) A
                  -11.24      -11.23      -1.032     -0.7889     -0.6403
               6 (  A) A   7 (  A) A   8 (  A) A
                 -0.5818     -0.5038     -0.3741
  Block   1:   1 (  A) B   2 (  A) B   3 (  A) B   4 (  A) B   5 (  A) B
                  -11.24      -11.23      -1.032     -0.7889     -0.6403
               6 (  A) B   7 (  A) B   8 (  A) B
                 -0.5818     -0.5038     -0.3741
  Virtual MOs:
  Block   0:   9 (  A) A  10 (  A) A  11 (  A) A  12 (  A) A  13 (  A) A
                  0.1684      0.2034      0.2326       0.239      0.3032
              14 (  A) A  15 (  A) A  16 (  A) A  17 (  A) A  18 (  A) A
                   0.462      0.5777      0.6145       0.689      0.7079
              19 (  A) A  20 (  A) A  21 (  A) A  22 (  A) A
                  0.7831      0.8079      0.8616      0.9346
  Block   1:  23 (  A) A  24 (  A) A  25 (  A) A  26 (  A) A  27 (  A) A
                  0.9721       1.009        1.13       1.235       1.253
              28 (  A) A  29 (  A) A  30 (  A) A  31 (  A) A  32 (  A) A
                   1.266       1.293         1.6       1.725       1.749
              33 (  A) A  34 (  A) A  35 (  A) A  36 (  A) A
                   1.818       1.859       1.865       1.919
  Block   2:  37 (  A) A  38 (  A) A  39 (  A) A  40 (  A) A  41 (  A) A
                   1.974       1.978       2.221       2.256       2.373
              42 (  A) A  43 (  A) A  44 (  A) A  45 (  A) A  46 (  A) A
                   2.449       2.502        2.63       2.714       2.817
              47 (  A) A  48 (  A) A
                   3.134       3.393
  Block   3:   9 (  A) B  10 (  A) B  11 (  A) B  12 (  A) B  13 (  A) B
                  0.1684      0.2034      0.2326       0.239      0.3032
              14 (  A) B  15 (  A) B  16 (  A) B  17 (  A) B  18 (  A) B
                   0.462      0.5777      0.6145       0.689      0.7079
              19 (  A) B  20 (  A) B  21 (  A) B  22 (  A) B
                  0.7831      0.8079      0.8616      0.9346
  Block   4:  23 (  A) B  24 (  A) B  25 (  A) B  26 (  A) B  27 (  A) B
                  0.9721       1.009        1.13       1.235       1.253
              28 (  A) B  29 (  A) B  30 (  A) B  31 (  A) B  32 (  A) B
                   1.266       1.293         1.6       1.725       1.749
              33 (  A) B  34 (  A) B  35 (  A) B  36 (  A) B
                   1.818       1.859       1.865       1.919
  Block   5:  37 (  A) B  38 (  A) B  39 (  A) B  40 (  A) B  41 (  A) B
                   1.974       1.978       2.221       2.256       2.373
              42 (  A) B  43 (  A) B  44 (  A) B  45 (  A) B  46 (  A) B
                   2.449       2.502        2.63       2.714       2.817
              47 (  A) B  48 (  A) B
                   3.134       3.393
  Import MO data ...  CPU 0.01 s  wall 0.01 s
  Import HF data ...  CPU 0.16 s  wall 0.07 s
  Import 2e integrals ...  CPU 0.88 s  wall 0.16 s

--------------------------------------------------------------------------------
                                   HF Summary                                   
--------------------------------------------------------------------------------
  Energy:                                                  -78.0399017778 a.u.
  Dip. moment [a.u.]:                  [  -0.000501,    0.002490,    0.000741]
  Total dipole [Debye]:                                               0.006724
  <r^2> [a.u.]:                        [ 175.325168,   35.032992,   11.635082]
  Total <r^2> [a.u.]:                                               221.993243
--------------------------------------------------------------------------------
  HF properties ...  CPU 0.02 s  wall 0.01 s
  MP(1) calculation ...  CPU 0.01 s  wall 0.01 s
  N^6 prerequesite intermediates ...  CPU 0.67 s  wall 0.09 s
  Difference density matrix of state mp2_gs printed to ASCII file 'State_mp2_gs_Difference.txt'
Exporting MP density matrix to file 'Densmat_MP.txt'.
Export successful
  Total density matrix of state mp2_gs printed to ASCII file 'State_mp2_gs_Total.txt'
Exporting MP density matrix to file 'Densmat_MP.txt'.
Export successful

--------------------------------------------------------------------------------
                                 MP(2) Summary                                  
--------------------------------------------------------------------------------
  MP energy contribution:                                   -0.2798399120 a.u.
  Total energy:                                            -78.3197416898 a.u.
  Dip. moment [a.u.]:                  [  -0.000613,    0.002210,    0.000712]
  Total dipole [Debye]:                                               0.006102
  <r^2> [a.u.]:                        [ 175.370767,   35.072050,   11.466229]
  Total <r^2> [a.u.]:                                               221.909046

  Density matrix analysis:
  ------------------------
  NOs
    Occupation of frontier NOs:
       0.0453   1.9382
    Number of electrons: 16.000000
    Number of unpaired electrons: n_u =  0.40407, n_u,nl =  0.04520
    NO participation ratio (PR_NO): 13.865787
  
  
  Mulliken Population Analysis
  Atom      Charge (e)              h+              e-           Del q
  --------------------------------------------------------------------
   1 H        0.051239        0.014016       -0.011231        0.002785
   2 C       -0.105405        0.093848       -0.099155       -0.005307
   3 H        0.053044        0.013936       -0.011238        0.002698
   4 C       -0.099894        0.092882       -0.098885       -0.006004
   5 H        0.050312        0.014125       -0.011187        0.002938
   6 H        0.050703        0.014088       -0.011198        0.002889
  --------------------------------------------------------------------
  Sum:        0.000000        0.242894       -0.242894        0.000000
  
  Multipole moment analysis of the density matrix
    Molecular charge:                      0.000000
    Number of electrons:                   16.000000
      Center of electronic charge [Ang]: [ -1.560556,  -0.066300,   0.001955]
    Total nuclear charge:                  16.000000
      Center of nuclear charge [Ang]:    [ -1.560576,  -0.066227,   0.001978]
    Dipole moment [D]:                     0.006102
      Cartesian components [D]:          [ -0.001557,   0.005616,   0.001809]
    RMS size of the density [Ang]:         1.201694
      Cartesian components [Ang]:        [  0.796220,   0.780658,   0.447968]
  
  Exciton analysis of the difference density matrix
    <r_h> [Ang]:                  [ -1.559934,  -0.068024,   0.001783]
    <r_e> [Ang]:                  [ -1.559690,  -0.067414,   0.001848]
    |<r_e - r_h>| [Ang]:            0.000660
    Hole size [Ang]:                1.394972
      Cartesian components [Ang]: [  0.846610,   0.836221,   0.727965]
    Electron size [Ang]:            1.360044
      Cartesian components [Ang]: [  0.877541,   0.862772,   0.579020]
--------------------------------------------------------------------------------
  MP(2) calculation ...  CPU 0.34 s  wall 0.18 s
  Start ADC(2)-s ...  CPU 0.01 s  wall 0.01 s
  ADC(2) intermediates ...  CPU 0.03 s  wall 0.01 s
  Starting Davidson for singlet states of irrep A ... 
--------------------------------------------------------------------------------
   It NVec Conv  Avg. Norm  Max. Norm  Conv. states           Remark
--------------------------------------------------------------------------------
        10    0  1.330e-01  4.686e-01  0.4118 n n n n n n n n Guess.
    1   20    0  2.306e-02  1.110e-01  0.3263 n n n n n n n n 
    2   30    0  5.908e-03  2.676e-02  0.3215 n n n n n n n n 
    3   40    0  2.103e-03  1.511e-02  0.3211 n n n n n n n n 
    4   50    0  6.365e-04  4.841e-03  0.3211 n n n n n n n n 
    5   20    0  2.669e-04  1.912e-03  0.3211 n n n n n n n n Subspace collapsed.
    6   30    0  1.863e-04  1.683e-03  0.3211 n n n n n n n n 
    7   40    0  9.416e-05  8.182e-04  0.3211 n n n n n n n n 
    8   50    0  9.768e-05  9.210e-04  0.3211 n n n n n n n n 
    9   20    2  8.697e-05  8.288e-04  0.3211 n y n y n n n n Subspace collapsed.
   10   30    4  1.151e-04  1.140e-03  0.3211 n y y y y n n n 
   11   40    5  1.053e-04  1.051e-03  0.3211 n y y y y y n n 
   12   50    6  9.950e-05  9.945e-04  0.3211 y y y y y y n n 
   13   20    6  4.335e-05  4.331e-04  0.3211 y y y y y y n n Subspace collapsed.
   14   30    6  2.924e-05  2.921e-04  0.3211 y y y y y y n n 
   15   40    8  1.330e-05  1.324e-04  0.3211 y y y y y y n y 
   16   50    7  1.851e-05  1.850e-04  0.3211 y y y y y y n y 
   17   20    8  1.019e-05  1.019e-04  0.3211 y y y y y y n y Subspace collapsed.
   18   30    8  1.674e-05  1.674e-04  0.3211 y y y y y y n y 
   19   40    8  1.630e-05  1.630e-04  0.3211 y y y y y y n y 
   20   50    9  1.690e-05  1.690e-04  0.3211 y y y y y y y y 
   21   20    9  6.063e-06  6.063e-05  0.3211 y y y y y y y y Subspace collapsed.
   22   30    9  5.600e-06  5.600e-05  0.3211 y y y y y y y y 
   23   40    9  2.624e-06  2.623e-05  0.3211 y y y y y y y y 
   24   49    9  2.768e-06  2.768e-05  0.3211 y y y y y y y y 
   25   50    9  2.904e-06  2.904e-05  0.3211 y y y y y y y y 
   26   16    9  1.518e-06  1.518e-05  0.3211 y y y y y y y y Subspace collapsed.
   27   21    9  2.859e-06  2.859e-05  0.3211 y y y y y y y y 
   28   26    9  2.701e-06  2.701e-05  0.3211 y y y y y y y y 
   29   26    9  2.701e-06  2.701e-05  0.3211 y y y y y y y y 
   30   36    9  2.716e-06  2.716e-05  0.3211 y y y y y y y y 
   31   40    9  1.323e-06  1.323e-05  0.3211 y y y y y y y y 
   32   44    9  5.967e-07  5.967e-06  0.3211 y y y y y y y y 
   33   48    9  3.429e-07  3.429e-06  0.3211 y y y y y y y y 
   34   50    9  2.077e-07  2.077e-06  0.3211 y y y y y y y y 
   35   14   10  9.195e-08  9.195e-07  0.3211 y y y y y y y y Converged.
--------------------------------------------------------------------------------
  Davidson Summary: 
 ------------------------------------------------------------
  State  0: excitation energy =   0.3211 a.u.   (converged)
  State  1: excitation energy =   0.3322 a.u.   (converged)
  State  2: excitation energy =   0.3367 a.u.   (converged)
  State  3: excitation energy =   0.3608 a.u.   (converged)
  State  4: excitation energy =   0.3750 a.u.   (converged)
  State  5: excitation energy =   0.3870 a.u.   (converged)
  State  6: excitation energy =   0.4239 a.u.   (converged)
  State  7: excitation energy =   0.4466 a.u.   (converged)
  State  8: excitation energy =   0.4559 a.u.   (converged)
  State  9: excitation energy =   0.4637 a.u.   (converged)
 ------------------------------------------------------------

  Singlet states of irrep A ...  CPU 165.64 s  wall 52.18 s
  TDMs ...  CPU 1.58 s  wall 0.58 s
  SDMs ...  CPU 3.82 s  wall 1.09 s
  Starting TPA DIIS iterations ... 
------------------------------------ 
   It     Res. Norm  Remark
------------------------------------
                       Guess.
    1     4.405e+00  
    2     5.839e+00  
    3     1.076e+00  
    4     2.560e-01  
    5     6.555e-02  
    6     2.665e-02  
    7     8.249e-03  
    8     1.434e-03  
    9     5.326e-04  
   10     9.033e-05  
   11     2.811e-05  
   12     4.413e-06  
   13     1.457e-06  
   14     4.653e-07  Converged.
   ... Converged in 14 steps (norm: 4.6527e-07)
------------------------------------
  Starting TPA DIIS iterations ... 
------------------------------------ 
   It     Res. Norm  Remark
------------------------------------
                       Guess.
    1     4.179e+00  
    2     5.535e+00  
    3     1.032e+00  
    4     2.581e-01  
    5     6.552e-02  
    6     2.714e-02  
    7     8.170e-03  
    8     1.496e-03  
    9     5.546e-04  
   10     9.198e-05  
   11     2.947e-05  
   12     4.521e-06  
   13     1.489e-06  
   14     4.653e-07  Converged.
   ... Converged in 14 steps (norm: 4.65345e-07)
------------------------------------
  Starting TPA DIIS iterations ... 
------------------------------------ 
   It     Res. Norm  Remark
------------------------------------
                       Guess.
    1     6.881e-01  
    2     4.827e-01  
    3     1.701e-01  
    4     6.043e-02  
    5     1.844e-02  
    6     6.665e-03  
    7     1.054e-03  
    8     4.486e-04  
    9     1.293e-04  
   10     2.490e-05  
   11     8.183e-06  
   12     2.572e-06  
   13     1.767e-06  
   14     7.454e-07  Converged.
   ... Converged in 14 steps (norm: 7.4535e-07)
------------------------------------
  Starting TPA DIIS iterations ... 
------------------------------------ 
   It     Res. Norm  Remark
------------------------------------
                       Guess.
    1     4.678e+00  
    2     6.328e+00  
    3     1.153e+00  
    4     2.830e-01  
    5     7.342e-02  
    6     3.009e-02  
    7     9.299e-03  
    8     1.614e-03  
    9     6.036e-04  
   10     1.029e-04  
   11     3.235e-05  
   12     5.123e-06  
   13     1.707e-06  
   14     5.491e-07  Converged.
   ... Converged in 14 steps (norm: 5.49125e-07)
------------------------------------
  Starting TPA DIIS iterations ... 
------------------------------------ 
   It     Res. Norm  Remark
------------------------------------
                       Guess.
    1     4.437e+00  
    2     5.998e+00  
    3     1.106e+00  
    4     2.852e-01  
    5     7.340e-02  
    6     3.068e-02  
    7     9.214e-03  
    8     1.686e-03  
    9     6.291e-04  
   10     1.049e-04  
   11     3.391e-05  
   12     5.248e-06  
   13     1.740e-06  
   14     5.488e-07  Converged.
   ... Converged in 14 steps (norm: 5.48773e-07)
------------------------------------
  Starting TPA DIIS iterations ... 
------------------------------------ 
   It     Res. Norm  Remark
------------------------------------
                       Guess.
    1     6.995e-01  
    2     4.991e-01  
    3     1.795e-01  
    4     6.795e-02  
    5     1.979e-02  
    6     7.251e-03  
    7     1.182e-03  
    8     5.228e-04  
    9     1.532e-04  
   10     2.751e-05  
   11     9.433e-06  
   12     3.025e-06  
   13     2.185e-06  
   14     9.358e-07  Converged.
   ... Converged in 14 steps (norm: 9.35784e-07)
------------------------------------
  Starting TPA DIIS iterations ... 
------------------------------------ 
   It     Res. Norm  Remark
------------------------------------
                       Guess.
    1     4.797e+00  
    2     6.545e+00  
    3     1.187e+00  
    4     2.952e-01  
    5     7.697e-02  
    6     3.165e-02  
    7     9.772e-03  
    8     1.695e-03  
    9     6.358e-04  
   10     1.087e-04  
   11     3.429e-05  
   12     5.449e-06  
   13     1.824e-06  
   14     5.884e-07  Converged.
   ... Converged in 14 steps (norm: 5.88354e-07)
------------------------------------
  Starting TPA DIIS iterations ... 
------------------------------------ 
   It     Res. Norm  Remark
------------------------------------
                       Guess.
    1     4.550e+00  
    2     6.203e+00  
    3     1.138e+00  
    4     2.973e-01  
    5     7.696e-02  
    6     3.229e-02  
    7     9.685e-03  
    8     1.772e-03  
    9     6.629e-04  
   10     1.107e-04  
   11     3.594e-05  
   12     5.583e-06  
   13     1.856e-06  
   14     5.879e-07  Converged.
   ... Converged in 14 steps (norm: 5.8786e-07)
------------------------------------
  Starting TPA DIIS iterations ... 
------------------------------------ 
   It     Res. Norm  Remark
------------------------------------
                       Guess.
    1     7.043e-01  
    2     5.062e-01  
    3     1.835e-01  
    4     7.140e-02  
    5     2.037e-02  
    6     7.515e-03  
    7     1.241e-03  
    8     5.572e-04  
    9     1.643e-04  
   10     2.847e-05  
   11     1.001e-05  
   12     3.238e-06  
   13     2.386e-06  
   14     1.030e-06  
   15     4.075e-07  Converged.
   ... Converged in 15 steps (norm: 4.0751e-07)
------------------------------------
  Starting TPA DIIS iterations ... 
------------------------------------ 
   It     Res. Norm  Remark
------------------------------------
                       Guess.
    1     5.524e+00  
    2     7.900e+00  
    3     1.391e+00  
    4     3.735e-01  
    5     9.984e-02  
    6     4.180e-02  
    7     1.283e-02  
    8     2.215e-03  
    9     8.450e-04  
   10     1.460e-04  
   11     4.717e-05  
   12     7.625e-06  
   13     2.621e-06  
   14     8.619e-07  Converged.
   ... Converged in 14 steps (norm: 8.61924e-07)
------------------------------------
  Starting TPA DIIS iterations ... 
------------------------------------ 
   It     Res. Norm  Remark
------------------------------------
                       Guess.
    1     5.237e+00  
    2     7.486e+00  
    3     1.332e+00  
    4     3.757e-01  
    5     9.986e-02  
    6     4.274e-02  
    7     1.273e-02  
    8     2.324e-03  
    9     8.824e-04  
   10     1.489e-04  
   11     4.938e-05  
   12     7.816e-06  
   13     2.646e-06  
   14     8.620e-07  Converged.
   ... Converged in 14 steps (norm: 8.62e-07)
------------------------------------
  Starting TPA DIIS iterations ... 
------------------------------------ 
   It     Res. Norm  Remark
------------------------------------
                       Guess.
    1     7.309e-01  
    2     5.469e-01  
    3     2.075e-01  
    4     9.429e-02  
    5     2.388e-02  
    6     9.222e-03  
    7     1.635e-03  
    8     7.843e-04  
    9     2.367e-04  
   10     3.237e-05  
   11     1.393e-05  
   12     4.749e-06  
   13     3.850e-06  
   14     1.740e-06  
   15     6.514e-07  Converged.
   ... Converged in 15 steps (norm: 6.51393e-07)
------------------------------------
  Starting TPA DIIS iterations ... 
------------------------------------ 
   It     Res. Norm  Remark
------------------------------------
                       Guess.
    1     6.043e+00  
    2     8.899e+00  
    3     1.535e+00  
    4     4.336e-01  
    5     1.173e-01  
    6     4.967e-02  
    7     1.517e-02  
    8     2.611e-03  
    9     1.007e-03  
   10     1.749e-04  
   11     5.738e-05  
   12     9.358e-06  
   13     3.280e-06  
   14     1.096e-06  
   15     4.387e-07  Converged.
   ... Converged in 15 steps (norm: 4.38738e-07)
------------------------------------
  Starting TPA DIIS iterations ... 
------------------------------------ 
   It     Res. Norm  Remark
------------------------------------
                       Guess.
    1     5.727e+00  
    2     8.433e+00  
    3     1.470e+00  
    4     4.357e-01  
    5     1.174e-01  
    6     5.085e-02  
    7     1.506e-02  
    8     2.745e-03  
    9     1.052e-03  
   10     1.784e-04  
   11     6.000e-05  
   12     9.600e-06  
   13     3.289e-06  
   14     1.100e-06  
   15     3.235e-07  Converged.
   ... Converged in 15 steps (norm: 3.23502e-07)
------------------------------------
  Starting TPA DIIS iterations ... 
------------------------------------ 
   It     Res. Norm  Remark
------------------------------------
                       Guess.
    1     7.475e-01  
    2     5.739e-01  
    3     2.239e-01  
    4     1.124e-01  
    5     2.641e-02  
    6     1.054e-02  
    7     1.954e-03  
    8     9.536e-04  
    9     2.903e-04  
   10     3.448e-05  
   11     1.718e-05  
   12     6.067e-06  
   13     5.151e-06  
   14     2.395e-06  
   15     8.663e-07  Converged.
   ... Converged in 15 steps (norm: 8.66306e-07)
------------------------------------
  Starting TPA DIIS iterations ... 
------------------------------------ 
   It     Res. Norm  Remark
------------------------------------
                       Guess.
    1     6.546e+00  
    2     9.894e+00  
    3     1.674e+00  
    4     4.949e-01  
    5     1.352e-01  
    6     5.778e-02  
    7     1.756e-02  
    8     3.015e-03  
    9     1.174e-03  
   10     2.047e-04  
   11     6.801e-05  
   12     1.117e-05  
   13     3.987e-06  
   14     1.358e-06  
   15     5.600e-07  Converged.
   ... Converged in 15 steps (norm: 5.60019e-07)
------------------------------------
  Starting TPA DIIS iterations ... 
------------------------------------ 
   It     Res. Norm  Remark
------------------------------------
                       Guess.
    1     6.203e+00  
    2     9.375e+00  
    3     1.602e+00  
    4     4.969e-01  
    5     1.353e-01  
    6     5.923e-02  
    7     1.744e-02  
    8     3.175e-03  
    9     1.227e-03  
   10     2.089e-04  
   11     7.103e-05  
   12     1.147e-05  
   13     3.968e-06  
   14     1.368e-06  
   15     4.013e-07  Converged.
   ... Converged in 15 steps (norm: 4.01265e-07)
------------------------------------
  Starting TPA DIIS iterations ... 
------------------------------------ 
   It     Res. Norm  Remark
------------------------------------
                       Guess.
    1     7.622e-01  
    2     5.988e-01  
    3     2.395e-01  
    4     1.314e-01  
    5     2.893e-02  
    6     1.189e-02  
    7     2.292e-03  
    8     1.113e-03  
    9     3.420e-04  
   10     3.736e-05  
   11     2.073e-05  
   12     7.556e-06  
   13     6.619e-06  
   14     3.149e-06  
   15     1.127e-06  
   16     5.057e-07  Converged.
   ... Converged in 16 steps (norm: 5.05702e-07)
------------------------------------
  Starting TPA DIIS iterations ... 
------------------------------------ 
   It     Res. Norm  Remark
------------------------------------
                       Guess.
    1     8.600e+00  
    2     1.419e+01  
    3     2.233e+00  
    4     7.716e-01  
    5     2.160e-01  
    6     9.517e-02  
    7     2.838e-02  
    8     4.826e-03  
    9     1.940e-03  
   10     3.413e-04  
   11     1.168e-04  
   12     1.966e-05  
   13     7.458e-06  
   14     2.835e-06  
   15     1.247e-06  
   16     5.427e-07  Converged.
   ... Converged in 16 steps (norm: 5.4269e-07)
------------------------------------
  Starting TPA DIIS iterations ... 
------------------------------------ 
   It     Res. Norm  Remark
------------------------------------
                       Guess.
    1     8.146e+00  
    2     1.344e+01  
    3     2.135e+00  
    4     7.725e-01  
    5     2.163e-01  
    6     9.791e-02  
    7     2.822e-02  
    8     5.111e-03  
    9     2.031e-03  
   10     3.485e-04  
   11     1.213e-04  
   12     2.038e-05  
   13     7.138e-06  
   14     2.940e-06  
   15     8.707e-07  Converged.
   ... Converged in 15 steps (norm: 8.70744e-07)
------------------------------------
  Starting TPA DIIS iterations ... 
------------------------------------ 
   It     Res. Norm  Remark
------------------------------------
                       Guess.
    1     8.114e-01  
    2     6.902e-01  
    3     2.995e-01  
    4     2.181e-01  
    5     4.000e-02  
    6     1.796e-02  
    7     3.926e-03  
    8     1.613e-03  
    9     5.409e-04  
   10     6.351e-05  
   11     3.911e-05  
   12     1.602e-05  
   13     1.452e-05  
   14     7.361e-06  
   15     2.917e-06  
   16     1.323e-06  
   17     3.098e-07  Converged.
   ... Converged in 17 steps (norm: 3.09761e-07)
------------------------------------
  Starting TPA DIIS iterations ... 
------------------------------------ 
   It     Res. Norm  Remark
------------------------------------
                       Guess.
    1     1.044e+01  
    2     1.831e+01  
    3     2.720e+00  
    4     1.047e+00  
    5     2.972e-01  
    6     1.336e-01  
    7     3.924e-02  
    8     6.632e-03  
    9     2.723e-03  
   10     4.800e-04  
   11     1.648e-04  
   12     2.856e-05  
   13     1.123e-05  
   14     4.790e-06  
   15     2.153e-06  
   16     9.807e-07  Converged.
   ... Converged in 16 steps (norm: 9.80652e-07)
------------------------------------
  Starting TPA DIIS iterations ... 
------------------------------------ 
   It     Res. Norm  Remark
------------------------------------
                       Guess.
    1     9.885e+00  
    2     1.735e+01  
    3     2.599e+00  
    4     1.046e+00  
    5     2.978e-01  
    6     1.378e-01  
    7     3.905e-02  
    8     7.048e-03  
    9     2.854e-03  
   10     4.902e-04  
   11     1.705e-04  
   12     3.012e-05  
   13     1.036e-05  
   14     5.098e-06  
   15     1.662e-06  
   16     1.343e-06  
   17     6.344e-07  Converged.
   ... Converged in 17 steps (norm: 6.34352e-07)
------------------------------------
  Starting TPA DIIS iterations ... 
------------------------------------ 
   It     Res. Norm  Remark
------------------------------------
                       Guess.
    1     8.455e-01  
    2     7.619e-01  
    3     3.491e-01  
    4     3.005e-01  
    5     5.080e-02  
    6     2.372e-02  
    7     5.634e-03  
    8     1.837e-03  
    9     7.039e-04  
   10     9.775e-05  
   11     6.054e-05  
   12     2.713e-05  
   13     2.344e-05  
   14     1.249e-05  
   15     5.501e-06  
   16     2.453e-06  
   17     6.603e-07  Converged.
   ... Converged in 17 steps (norm: 6.60321e-07)
------------------------------------
  Starting TPA DIIS iterations ... 
------------------------------------ 
   It     Res. Norm  Remark
------------------------------------
                       Guess.
    1     1.137e+01  
    2     2.050e+01  
    3     2.964e+00  
    4     1.195e+00  
    5     3.413e-01  
    6     1.548e-01  
    7     4.514e-02  
    8     7.609e-03  
    9     3.154e-03  
   10     5.555e-04  
   11     1.901e-04  
   12     3.358e-05  
   13     1.344e-05  
   14     6.040e-06  
   15     2.745e-06  
   16     1.266e-06  
   17     4.409e-07  Converged.
   ... Converged in 17 steps (norm: 4.40878e-07)
------------------------------------
  Starting TPA DIIS iterations ... 
------------------------------------ 
   It     Res. Norm  Remark
------------------------------------
                       Guess.
    1     1.077e+01  
    2     1.942e+01  
    3     2.832e+00  
    4     1.193e+00  
    5     3.420e-01  
    6     1.598e-01  
    7     4.494e-02  
    8     8.098e-03  
    9     3.305e-03  
   10     5.675e-04  
   11     1.966e-04  
   12     3.581e-05  
   13     1.219e-05  
   14     6.488e-06  
   15     2.270e-06  
   16     1.817e-06  
   17     8.317e-07  Converged.
   ... Converged in 17 steps (norm: 8.3172e-07)
------------------------------------
  Starting TPA DIIS iterations ... 
------------------------------------ 
   It     Res. Norm  Remark
------------------------------------
                       Guess.
    1     8.605e-01  
    2     7.959e-01  
    3     3.732e-01  
    4     3.415e-01  
    5     5.654e-02  
    6     2.663e-02  
    7     6.560e-03  
    8     1.902e-03  
    9     7.838e-04  
   10     1.165e-04  
   11     7.314e-05  
   12     3.416e-05  
   13     2.846e-05  
   14     1.553e-05  
   15     7.147e-06  
   16     3.181e-06  
   17     9.291e-07  Converged.
   ... Converged in 17 steps (norm: 9.29075e-07)
------------------------------------
  Starting TPA DIIS iterations ... 
------------------------------------ 
   It     Res. Norm  Remark
------------------------------------
                       Guess.
    1     1.226e+01  
    2     2.262e+01  
    3     3.191e+00  
    4     1.338e+00  
    5     3.843e-01  
    6     1.756e-01  
    7     5.089e-02  
    8     8.559e-03  
    9     3.575e-03  
   10     6.292e-04  
   11     2.143e-04  
   12     3.862e-05  
   13     1.572e-05  
   14     7.379e-06  
   15     3.398e-06  
   16     1.570e-06  
   17     5.583e-07  Converged.
   ... Converged in 17 steps (norm: 5.58255e-07)
------------------------------------
  Starting TPA DIIS iterations ... 
------------------------------------ 
   It     Res. Norm  Remark
------------------------------------
                       Guess.
    1     1.161e+01  
    2     2.143e+01  
    3     3.048e+00  
    4     1.334e+00  
    5     3.852e-01  
    6     1.813e-01  
    7     5.068e-02  
    8     9.120e-03  
    9     3.747e-03  
   10     6.428e-04  
   11     2.217e-04  
   12     4.163e-05  
   13     1.408e-05  
   14     7.972e-06  
   15     2.984e-06  
   16     2.351e-06  
   17     1.029e-06  
   18     5.814e-07  Converged.
   ... Converged in 18 steps (norm: 5.81373e-07)
------------------------------------
  Starting TPA DIIS iterations ... 
------------------------------------ 
   It     Res. Norm  Remark
------------------------------------
                       Guess.
    1     8.734e-01  
    2     8.265e-01  
    3     3.952e-01  
    4     3.783e-01  
    5     6.204e-02  
    6     2.929e-02  
    7     7.450e-03  
    8     1.950e-03  
    9     8.575e-04  
   10     1.346e-04  
   11     8.594e-05  
   12     4.161e-05  
   13     3.352e-05  
   14     1.863e-05  
   15     8.889e-06  
   16     3.956e-06  
   17     1.237e-06  
   18     6.168e-07  Converged.
   ... Converged in 18 steps (norm: 6.16823e-07)
------------------------------------
  Two-photon absorbption ...  CPU 135.08 s  wall 33.24 s
  Transition density matrix of state singlet_A_1 printed to ASCII file 'State_singlet_A_1_Transition.txt'
  Transition density matrix of state singlet_A_2 printed to ASCII file 'State_singlet_A_2_Transition.txt'
  Transition density matrix of state singlet_A_3 printed to ASCII file 'State_singlet_A_3_Transition.txt'
  Transition density matrix of state singlet_A_4 printed to ASCII file 'State_singlet_A_4_Transition.txt'
  Transition density matrix of state singlet_A_5 printed to ASCII file 'State_singlet_A_5_Transition.txt'
  Transition density matrix of state singlet_A_6 printed to ASCII file 'State_singlet_A_6_Transition.txt'
  Transition density matrix of state singlet_A_7 printed to ASCII file 'State_singlet_A_7_Transition.txt'
  Transition density matrix of state singlet_A_8 printed to ASCII file 'State_singlet_A_8_Transition.txt'
  Transition density matrix of state singlet_A_9 printed to ASCII file 'State_singlet_A_9_Transition.txt'
  Transition density matrix of state singlet_A_10 printed to ASCII file 'State_singlet_A_10_Transition.txt'
  Transition properties ...  CPU 0.29 s  wall 0.48 s
  Difference density matrix of state singlet_A_1 printed to ASCII file 'State_singlet_A_1_Difference.txt'
  Total density matrix of state singlet_A_1 printed to ASCII file 'State_singlet_A_1_Total.txt'
  Difference density matrix of state singlet_A_2 printed to ASCII file 'State_singlet_A_2_Difference.txt'
  Total density matrix of state singlet_A_2 printed to ASCII file 'State_singlet_A_2_Total.txt'
  Difference density matrix of state singlet_A_3 printed to ASCII file 'State_singlet_A_3_Difference.txt'
  Total density matrix of state singlet_A_3 printed to ASCII file 'State_singlet_A_3_Total.txt'
  Difference density matrix of state singlet_A_4 printed to ASCII file 'State_singlet_A_4_Difference.txt'
  Total density matrix of state singlet_A_4 printed to ASCII file 'State_singlet_A_4_Total.txt'
  Difference density matrix of state singlet_A_5 printed to ASCII file 'State_singlet_A_5_Difference.txt'
  Total density matrix of state singlet_A_5 printed to ASCII file 'State_singlet_A_5_Total.txt'
  Difference density matrix of state singlet_A_6 printed to ASCII file 'State_singlet_A_6_Difference.txt'
  Total density matrix of state singlet_A_6 printed to ASCII file 'State_singlet_A_6_Total.txt'
  Difference density matrix of state singlet_A_7 printed to ASCII file 'State_singlet_A_7_Difference.txt'
  Total density matrix of state singlet_A_7 printed to ASCII file 'State_singlet_A_7_Total.txt'
  Difference density matrix of state singlet_A_8 printed to ASCII file 'State_singlet_A_8_Difference.txt'
  Total density matrix of state singlet_A_8 printed to ASCII file 'State_singlet_A_8_Total.txt'
  Difference density matrix of state singlet_A_9 printed to ASCII file 'State_singlet_A_9_Difference.txt'
  Total density matrix of state singlet_A_9 printed to ASCII file 'State_singlet_A_9_Total.txt'
  Difference density matrix of state singlet_A_10 printed to ASCII file 'State_singlet_A_10_Difference.txt'
  Total density matrix of state singlet_A_10 printed to ASCII file 'State_singlet_A_10_Total.txt'
  Properties ...  CPU 0.55 s  wall 0.81 s
  ISR TDMS ...  CPU 20.17 s  wall 6.24 s
  ISR transition properties ...  CPU 0.36 s  wall 0.17 s
  Sum-over-states TPA ...  CPU 0.00 s  wall 0.00 s

--------------------------------------------------------------------------------
                   State-averaged natural transition orbitals
--------------------------------------------------------------------------------
--------------------------------------------------------------------------------
  SA-NTO decomposition ...  CPU 0.01 s  wall 0.03 s

--------------------------------------------------------------------------------
                             Excited State Summary
--------------------------------------------------------------------------------
--------------------------------------------------------------------------------

  Excited state 1 (singlet, A)                                     [converged]
  ----------------------------------------------------------------------------
  Term symbol:  2 (1) A                                     R^2 =  2.19573e-13

  Total energy:                                            -77.9986401859 a.u.
  Excitation energy:                                               8.737616 eV

  Osc. strength:                                                      0.445858
  Trans. dip. moment [a.u.]:           [  -1.044783,    0.995556,    0.009423]
  <i|r^2|0> [a.u.]:                    [  -6.163666,    0.257111,    0.000860]
  Two-photon absorption cross-section (SoS) [a.u.]:                   0.003188
  Two-photon absorption matrix (SoS) [a.u.]:
                                       |   -0.003730    0.014420    0.001900 |
                                       |    0.014420    0.008633    0.001830 |
                                       |    0.001900    0.001830   -0.015071 |
  Two-photon absorption cross-section [a.u.]:                         0.002558
  Two-photon absorption matrix [a.u.]:
                                       |   -0.004027    0.010300   -0.000436 |
                                       |    0.010300    0.009767   -0.001961 |
                                       |   -0.000436   -0.001961   -0.015976 |

  Dip. moment [a.u.]:                  [  -0.000585,    0.001900,    0.000825]
  Total dipole [Debye]:                                               0.005472
  <r^2> [a.u.]:                        [ 176.124822,   35.760516,   11.876388]
  Total <r^2> [a.u.]:                                               223.761726

  V1^2 = 0.9714, V2^2 = 0.0286

  Important amplitudes:
      occ i     occ j     vir a      vir b          v   
    -----------------------------------------------------
     8 (A) A              9 (A) A                 0.6810
     6 (A) A             14 (A) A                 0.0622
     4 (A) A             10 (A) A                 0.0609
     7 (A) A             16 (A) A                -0.0570
     5 (A) A             13 (A) A                 0.0515
     6 (A) A             23 (A) A                 0.0486
     8 (A) A             20 (A) A                -0.0350
     6 (A) A             19 (A) A                 0.0307
     3 (A) A             12 (A) A                -0.0282
     5 (A) A             22 (A) A                -0.0215
     7 (A) A             11 (A) A                -0.0207
     4 (A) A             24 (A) A                 0.0188
     3 (A) A             26 (A) A                -0.0186
     8 (A) A   8 (A) B   17 (A) A   20 (A) B      0.0184
     8 (A) A   8 (A) B    9 (A) A   28 (A) B      0.0168
     6 (A) A             26 (A) A                -0.0163
     7 (A) A             21 (A) A                -0.0149
     3 (A) A             14 (A) A                 0.0140
     6 (A) A             12 (A) A                 0.0133
     3 (A) A   4 (A) B    9 (A) A    9 (A) B     -0.0129
     3 (A) A             19 (A) A                 0.0119
     8 (A) A   8 (A) B   18 (A) A   19 (A) B     -0.0112
     7 (A) A             32 (A) A                -0.0095
     7 (A) A             36 (A) A                 0.0086
     3 (A) A             23 (A) A                 0.0081
     8 (A) A   8 (A) B   25 (A) A   29 (A) B     -0.0076
     6 (A) A             35 (A) A                -0.0072
     6 (A) A             40 (A) A                -0.0068
     3 (A) A   6 (A) B    9 (A) A   28 (A) B      0.0065
     6 (A) A   8 (A) A   19 (A) A   28 (A) A     -0.0061
     5 (A) A   7 (A) B    9 (A) A    9 (A) B      0.0060
     5 (A) A   8 (A) B   11 (A) A   20 (A) B      0.0060
     7 (A) A   8 (A) B   13 (A) A   20 (A) B     -0.0059
     5 (A) A   8 (A) B   16 (A) A    9 (A) B     -0.0059
     5 (A) A   8 (A) B   11 (A) A    9 (A) B      0.0059
     3 (A) A   5 (A) B    9 (A) A   25 (A) B     -0.0058
     7 (A) A   8 (A) B   22 (A) A   20 (A) B      0.0057
     3 (A) A             40 (A) A                -0.0057
     6 (A) A   8 (A) A    9 (A) A   18 (A) A     -0.0056
     8 (A) A   8 (A) B   19 (A) A   30 (A) B     -0.0056
    -----------------------------------------------------

  Density matrix analysis:
  ------------------------
  NOs
    Occupation of frontier NOs:
       0.9494   1.0218
    Number of electrons: 16.000000
    Number of unpaired electrons: n_u =  2.31398, n_u,nl =  2.03275
    NO participation ratio (PR_NO):  2.865824
  
  
  Mulliken Population Analysis
  Atom      Charge (e)              h+              e-           Del q
  --------------------------------------------------------------------
   1 H        0.058946        0.020240       -0.012534        0.007707
   2 C       -0.120821        0.490887       -0.506303       -0.015415
   3 H        0.060766        0.020276       -0.012555        0.007721
   4 C       -0.115410        0.490696       -0.506213       -0.015517
   5 H        0.058000        0.020257       -0.012569        0.007688
   6 H        0.058519        0.020322       -0.012505        0.007816
  --------------------------------------------------------------------
  Sum:        0.000000        1.062678       -1.062678       -0.000000
  
  Multipole moment analysis of the density matrix
    Molecular charge:                      0.000000
    Number of electrons:                   16.000000
      Center of electronic charge [Ang]: [ -1.560557,  -0.066290,   0.001951]
    Total nuclear charge:                  16.000000
      Center of nuclear charge [Ang]:    [ -1.560576,  -0.066227,   0.001978]
    Dipole moment [D]:                     0.005472
      Cartesian components [D]:          [ -0.001487,   0.004830,   0.002097]
    RMS size of the density [Ang]:         1.215110
      Cartesian components [Ang]:        [  0.804463,   0.788339,   0.455910]
  
  Exciton analysis of the difference density matrix
    <r_h> [Ang]:                  [ -1.560200,  -0.066028,   0.001671]
    <r_e> [Ang]:                  [ -1.560214,  -0.065874,   0.001614]
    |<r_e - r_h>| [Ang]:            0.000165
    Hole size [Ang]:                1.285714
      Cartesian components [Ang]: [  0.728424,   0.713266,   0.783397]
    Electron size [Ang]:            1.463298
      Cartesian components [Ang]: [  0.853968,   0.830775,   0.849584]

  Transition density matrix analysis:
  -----------------------------------
  
  CT numbers (Mulliken)
    omega =     0.9535
    <Phe> =    -0.1605
  
  Exciton analysis of the transition density matrix
    Trans. dipole moment [D]:             1.834108
      Cartesian components [D]:         [ -1.327786,   1.265225,   0.011975]
    <r_h> [Ang]:                        [ -1.560126,  -0.065888,   0.001743]
    <r_e> [Ang]:                        [ -1.560233,  -0.065923,   0.001564]
    |<r_e - r_h>| [Ang]:                  0.000211
    Hole size [Ang]:                      1.214160
      Cartesian components [Ang]:       [  0.649549,   0.636585,   0.804382]
    Electron size [Ang]:                  1.486159
      Cartesian components [Ang]:       [  0.864420,   0.839664,   0.869719]
    RMS electron-hole separation [Ang]:   1.936676
      Cartesian components [Ang]:       [  1.106713,   1.075171,   1.170430]
    Covariance(r_h, r_e) [Ang^2]:        -0.033930
    Correlation coefficient:             -0.018804
    Center-of-mass size [Ang]:            0.950657
      Cartesian components [Ang]:       [  0.527603,   0.515887,   0.599370]

  Decomposition into state-averaged NTOs
    H- 0 -> L+ 0:  0.6699 ( 89.7%)
    H- 2 -> L+ 5:  0.0835 (  1.4%)
                   omega =  95.3%
  ----------------------------------------------------------------------------


  Excited state 2 (singlet, A)                                     [converged]
  ----------------------------------------------------------------------------
  Term symbol:  3 (1) A                                     R^2 =  4.28486e-13

  Total energy:                                            -77.9875491246 a.u.
  Excitation energy:                                               9.039419 eV

  Osc. strength:                                                      0.000063
  Trans. dip. moment [a.u.]:           [  -0.004873,    0.006780,   -0.014670]
  <i|r^2|0> [a.u.]:                    [   0.034399,    0.088880,   -0.150179]
  Two-photon absorption cross-section (SoS) [a.u.]:                   4.901346
  Two-photon absorption matrix (SoS) [a.u.]:
                                       |    0.050547    0.058299   -0.519304 |
                                       |    0.058299    0.067284   -0.573689 |
                                       |   -0.519304   -0.573689   -0.117751 |
  Two-photon absorption cross-section [a.u.]:                         0.095934
  Two-photon absorption matrix [a.u.]:
                                       |   -0.002641   -0.007454    0.049090 |
                                       |   -0.007454   -0.013265    0.096458 |
                                       |    0.049090    0.096458    0.016170 |

  Dip. moment [a.u.]:                  [   0.018189,    0.013672,    0.003070]
  Total dipole [Debye]:                                               0.058359
  <r^2> [a.u.]:                        [ 174.682271,   34.073751,   13.175241]
  Total <r^2> [a.u.]:                                               221.931262

  V1^2 = 0.9542, V2^2 = 0.0458

  Important amplitudes:
      occ i     occ j     vir a      vir b          v   
    -----------------------------------------------------
     7 (A) A              9 (A) A                 0.6684
     8 (A) A             11 (A) A                -0.1494
     7 (A) A             20 (A) A                -0.0758
     5 (A) A   8 (A) B    9 (A) A    9 (A) B      0.0316
     8 (A) A             10 (A) A                 0.0279
     8 (A) A             16 (A) A                 0.0275
     8 (A) A             21 (A) A                -0.0177
     5 (A) A             28 (A) A                -0.0150
     4 (A) A   7 (A) B    9 (A) A   19 (A) B     -0.0135
     5 (A) A   7 (A) B    9 (A) A   16 (A) B      0.0134
     7 (A) A   8 (A) B   20 (A) A   17 (A) B      0.0105
     7 (A) A   8 (A) A    9 (A) A   28 (A) A     -0.0098
     5 (A) A   8 (A) B    9 (A) A   20 (A) B     -0.0095
     4 (A) A   6 (A) B    9 (A) A   16 (A) B      0.0091
     5 (A) A   6 (A) A    9 (A) A   23 (A) A     -0.0091
     5 (A) A   6 (A) A    9 (A) A   14 (A) A     -0.0089
     5 (A) A   6 (A) B    9 (A) A   19 (A) B     -0.0086
     8 (A) A   7 (A) B    9 (A) A   28 (A) B      0.0085
     4 (A) A   5 (A) A    9 (A) A   10 (A) A      0.0085
     6 (A) A   7 (A) B    9 (A) A   18 (A) B     -0.0083
     5 (A) A   6 (A) B    9 (A) A   23 (A) B     -0.0080
     3 (A) A   7 (A) B    9 (A) A   18 (A) B      0.0079
     5 (A) A   7 (A) A    9 (A) A   16 (A) A      0.0079
     4 (A) A   8 (A) B    9 (A) A   25 (A) B      0.0077
     7 (A) A   8 (A) B   17 (A) A   20 (A) B      0.0074
     4 (A) A   7 (A) B   19 (A) A    9 (A) B     -0.0074
     5 (A) A   5 (A) B    9 (A) A   13 (A) B     -0.0072
     7 (A) A   8 (A) B   19 (A) A   18 (A) B     -0.0071
     5 (A) A   8 (A) A    9 (A) A   20 (A) A     -0.0069
     4 (A) A   5 (A) B    9 (A) A   18 (A) B     -0.0068
     7 (A) A   7 (A) B   20 (A) A   22 (A) B      0.0065
     7 (A) A   8 (A) B   17 (A) A    9 (A) B     -0.0065
     5 (A) A   6 (A) B    9 (A) A   14 (A) B     -0.0063
     4 (A) A   7 (A) A    9 (A) A   19 (A) A     -0.0061
     4 (A) A   5 (A) B   10 (A) A    9 (A) B     -0.0061
     5 (A) A   7 (A) B   11 (A) A   20 (A) B      0.0060
     4 (A) A   7 (A) B    9 (A) A   14 (A) B      0.0060
     4 (A) A   8 (A) A    9 (A) A   25 (A) A      0.0057
     6 (A) A   7 (A) A   19 (A) A   28 (A) A     -0.0057
     5 (A) A   7 (A) A   11 (A) A   20 (A) A      0.0053
    -----------------------------------------------------

  Density matrix analysis:
  ------------------------
  NOs
    Occupation of frontier NOs:
       0.9557   1.0559
    Number of electrons: 16.000000
    Number of unpaired electrons: n_u =  2.35584, n_u,nl =  2.06445
    NO participation ratio (PR_NO):  3.041577
  
  
  Mulliken Population Analysis
  Atom      Charge (e)              h+              e-           Del q
  --------------------------------------------------------------------
   1 H        0.151572        0.120062       -0.019730        0.100333
   2 C       -0.304531        0.272994       -0.472120       -0.199126
   3 H        0.153351        0.130836       -0.030529        0.100306
   4 C       -0.300135        0.271060       -0.471302       -0.200242
   5 H        0.156002        0.126283       -0.020594        0.105689
   6 H        0.143743        0.121952       -0.028912        0.093040
  --------------------------------------------------------------------
  Sum:        0.000000        1.043188       -1.043188        0.000000
  
  Multipole moment analysis of the density matrix
    Molecular charge:                      0.000000
    Number of electrons:                   16.000000
      Center of electronic charge [Ang]: [ -1.561178,  -0.066679,   0.001877]
    Total nuclear charge:                  16.000000
      Center of nuclear charge [Ang]:    [ -1.560576,  -0.066227,   0.001978]
    Dipole moment [D]:                     0.058359
      Cartesian components [D]:          [  0.046231,   0.034750,   0.007804]
    RMS size of the density [Ang]:         1.201027
      Cartesian components [Ang]:        [  0.787385,   0.769354,   0.480194]
  
  Exciton analysis of the difference density matrix
    <r_h> [Ang]:                  [ -1.562396,  -0.074484,   0.001490]
    <r_e> [Ang]:                  [ -1.571933,  -0.080298,   0.000293]
    |<r_e - r_h>| [Ang]:            0.011234
    Hole size [Ang]:                1.487851
      Cartesian components [Ang]: [  0.995426,   1.007498,   0.455826]
    Electron size [Ang]:            1.479485
      Cartesian components [Ang]: [  0.881001,   0.863813,   0.816418]

  Transition density matrix analysis:
  -----------------------------------
  
  CT numbers (Mulliken)
    omega =     0.9217
    <Phe> =    -0.0120
  
  Exciton analysis of the transition density matrix
    Trans. dipole moment [D]:             0.021451
      Cartesian components [D]:         [ -0.006192,   0.008616,  -0.018643]
    <r_h> [Ang]:                        [ -1.562059,  -0.074853,   0.001568]
    <r_e> [Ang]:                        [ -1.572882,  -0.080742,   0.000127]
    |<r_e - r_h>| [Ang]:                  0.012406
    Hole size [Ang]:                      1.516309
      Cartesian components [Ang]:       [  1.017466,   1.032120,   0.445741]
    Electron size [Ang]:                  1.476403
      Cartesian components [Ang]:       [  0.871602,   0.853131,   0.832011]
    RMS electron-hole separation [Ang]:   2.096666
      Cartesian components [Ang]:       [  1.323991,   1.324217,   0.943137]
    Covariance(r_h, r_e) [Ang^2]:         0.041552
    Correlation coefficient:              0.018561
    Center-of-mass size [Ang]:            1.067949
      Cartesian components [Ang]:       [  0.677684,   0.676885,   0.472322]

  Decomposition into state-averaged NTOs
    H- 1 -> L+ 0:  0.6608 ( 87.3%)
    H- 0 -> L+ 2:  0.1500 (  4.5%)
                   omega =  92.2%
  ----------------------------------------------------------------------------


  Excited state 3 (singlet, A)                                     [converged]
  ----------------------------------------------------------------------------
  Term symbol:  4 (1) A                                     R^2 =  1.04690e-13

  Total energy:                                            -77.9830190010 a.u.
  Excitation energy:                                               9.162690 eV

  Osc. strength:                                                      0.024747
  Trans. dip. moment [a.u.]:           [  -0.015704,   -0.019545,    0.331077]
  <i|r^2|0> [a.u.]:                    [  -0.092462,    0.001437,   -0.008240]
  Two-photon absorption cross-section (SoS) [a.u.]:                   0.006363
  Two-photon absorption matrix (SoS) [a.u.]:
                                       |   -0.020739   -0.002245    0.009469 |
                                       |   -0.002245    0.016722    0.018209 |
                                       |    0.009469    0.018209   -0.002584 |
  Two-photon absorption cross-section [a.u.]:                         0.010521
  Two-photon absorption matrix [a.u.]:
                                       |   -0.018785   -0.002303    0.023230 |
                                       |   -0.002303    0.008805    0.023147 |
                                       |    0.023230    0.023147    0.001490 |

  Dip. moment [a.u.]:                  [   0.001343,    0.068624,    0.003309]
  Total dipole [Debye]:                                               0.174660
  <r^2> [a.u.]:                        [ 180.840906,   40.744063,   11.034613]
  Total <r^2> [a.u.]:                                               232.619583

  V1^2 = 0.9586, V2^2 = 0.0414

  Important amplitudes:
      occ i     occ j     vir a      vir b          v   
    -----------------------------------------------------
     8 (A) A             10 (A) A                -0.6884
     8 (A) A             24 (A) A                -0.0507
     8 (A) A             18 (A) A                 0.0316
     7 (A) A              9 (A) A                 0.0288
     4 (A) A              9 (A) A                -0.0240
     8 (A) A   8 (A) B    9 (A) A   12 (A) B      0.0220
     8 (A) A   8 (A) B   10 (A) A   17 (A) B     -0.0172
     8 (A) A             15 (A) A                 0.0167
     5 (A) A   8 (A) B   11 (A) A   10 (A) B     -0.0166
     7 (A) A   8 (A) B   13 (A) A   10 (A) B      0.0141
     4 (A) A   8 (A) B   12 (A) A   10 (A) B      0.0111
     6 (A) A   8 (A) A   10 (A) A   15 (A) A     -0.0110
     7 (A) A   8 (A) B   22 (A) A   10 (A) B     -0.0108
     6 (A) A   8 (A) B   15 (A) A   10 (A) B      0.0108
     4 (A) A   8 (A) A   10 (A) A   12 (A) A     -0.0106
     7 (A) A   8 (A) A   10 (A) A   22 (A) A      0.0099
     7 (A) A   8 (A) A   10 (A) A   13 (A) A     -0.0097
     5 (A) A   8 (A) A   10 (A) A   11 (A) A      0.0094
     5 (A) A   8 (A) B   21 (A) A   10 (A) B     -0.0094
     6 (A) A   8 (A) A   10 (A) A   18 (A) A      0.0088
     6 (A) A   8 (A) B   10 (A) A   10 (A) B      0.0087
     7 (A) A   8 (A) A   12 (A) A   16 (A) A     -0.0082
     3 (A) A   4 (A) B   10 (A) A    9 (A) B      0.0079
     5 (A) A   8 (A) A   10 (A) A   21 (A) A      0.0079
     4 (A) A   8 (A) B   19 (A) A   10 (A) B     -0.0075
     8 (A) A   8 (A) B    9 (A) A   23 (A) B      0.0075
     8 (A) A   8 (A) B   10 (A) A   28 (A) B     -0.0073
     3 (A) A   8 (A) B   10 (A) A   10 (A) B     -0.0072
     5 (A) A   8 (A) B   10 (A) A   11 (A) B     -0.0071
     3 (A) A   8 (A) A   10 (A) A   24 (A) A      0.0071
     7 (A) A   8 (A) B   16 (A) A   12 (A) B      0.0071
     3 (A) A   8 (A) B   10 (A) A   18 (A) B      0.0068
     8 (A) A   8 (A) B    9 (A) A   19 (A) B     -0.0068
     6 (A) A   8 (A) B   18 (A) A   10 (A) B     -0.0067
     3 (A) A   6 (A) B   10 (A) A   28 (A) B     -0.0062
     7 (A) A   8 (A) B   12 (A) A   11 (A) B     -0.0058
     6 (A) A             28 (A) A                 0.0057
     3 (A) A   5 (A) B   10 (A) A   25 (A) B      0.0056
     5 (A) A   8 (A) A   10 (A) A   16 (A) A     -0.0056
     3 (A) A   8 (A) A   10 (A) A   18 (A) A      0.0055
    -----------------------------------------------------

  Density matrix analysis:
  ------------------------
  NOs
    Occupation of frontier NOs:
       0.9831   0.9832
    Number of electrons: 16.000000
    Number of unpaired electrons: n_u =  2.28933, n_u,nl =  2.02529
    NO participation ratio (PR_NO):  2.701515
  
  
  Mulliken Population Analysis
  Atom      Charge (e)              h+              e-           Del q
  --------------------------------------------------------------------
   1 H       -0.160254        0.054237       -0.265730       -0.211493
   2 C        0.321532        0.539329       -0.112391        0.426937
   3 H       -0.170342        0.053687       -0.277073       -0.223386
   4 C        0.323357        0.533405       -0.110154        0.423251
   5 H       -0.152566        0.054621       -0.257500       -0.202879
   6 H       -0.161728        0.053696       -0.266126       -0.212430
  --------------------------------------------------------------------
  Sum:        0.000000        1.288974       -1.288974       -0.000000
  
  Multipole moment analysis of the density matrix
    Molecular charge:                      0.000000
    Number of electrons:                   16.000000
      Center of electronic charge [Ang]: [ -1.560621,  -0.068497,   0.001869]
    Total nuclear charge:                  16.000000
      Center of nuclear charge [Ang]:    [ -1.560576,  -0.066227,   0.001978]
    Dipole moment [D]:                     0.174660
      Cartesian components [D]:          [  0.003414,   0.174424,   0.008412]
    RMS size of the density [Ang]:         1.277116
      Cartesian components [Ang]:        [  0.854109,   0.841666,   0.439456]
  
  Exciton analysis of the difference density matrix
    <r_h> [Ang]:                  [ -1.558244,  -0.068129,   0.001787]
    <r_e> [Ang]:                  [ -1.559047,  -0.095394,   0.000721]
    |<r_e - r_h>| [Ang]:            0.027298
    Hole size [Ang]:                1.410923
      Cartesian components [Ang]: [  0.834125,   0.821186,   0.787776]
    Electron size [Ang]:            2.076198
      Cartesian components [Ang]: [  1.371731,   1.379177,   0.725828]

  Transition density matrix analysis:
  -----------------------------------
  
  CT numbers (Mulliken)
    omega =     0.9258
    <Phe> =    -0.0109
  
  Exciton analysis of the transition density matrix
    Trans. dipole moment [D]:             0.421962
      Cartesian components [D]:         [ -0.019958,  -0.024839,   0.420757]
    <r_h> [Ang]:                        [ -1.558441,  -0.064591,   0.001821]
    <r_e> [Ang]:                        [ -1.558425,  -0.104917,   0.000340]
    |<r_e - r_h>| [Ang]:                  0.040353
    Hole size [Ang]:                      1.213471
      Cartesian components [Ang]:       [  0.637464,   0.624297,   0.822438]
    Electron size [Ang]:                  2.294827
      Cartesian components [Ang]:       [  1.514785,   1.525798,   0.802246]
    RMS electron-hole separation [Ang]:   2.586254
      Cartesian components [Ang]:       [  1.635922,   1.642018,   1.147277]
    Covariance(r_h, r_e) [Ang^2]:         0.025831
    Correlation coefficient:              0.009276
    Center-of-mass size [Ang]:            1.302920
      Cartesian components [Ang]:       [  0.825474,   0.827801,   0.575275]

  Decomposition into state-averaged NTOs
    H- 0 -> L+ 1: -0.6788 ( 92.1%)
                   omega =  92.6%
  ----------------------------------------------------------------------------


  Excited state 4 (singlet, A)                                     [converged]
  ----------------------------------------------------------------------------
  Term symbol:  5 (1) A                                     R^2 =  1.23823e-13

  Total energy:                                            -77.9589657713 a.u.
  Excitation energy:                                               9.817212 eV

  Osc. strength:                                                      0.000031
  Trans. dip. moment [a.u.]:           [   0.001605,   -0.002794,    0.010915]
  <i|r^2|0> [a.u.]:                    [   0.024932,    0.019438,   -0.035717]
  Two-photon absorption cross-section (SoS) [a.u.]:                 146.649491
  Two-photon absorption matrix (SoS) [a.u.]:
                                       |    0.276435    0.319424   -2.891627 |
                                       |    0.319424    0.367126   -3.091071 |
                                       |   -2.891627   -3.091071   -0.643942 |
  Two-photon absorption cross-section [a.u.]:                        89.797500
  Two-photon absorption matrix [a.u.]:
                                       |    0.215576    0.249672   -2.242933 |
                                       |    0.249672    0.288181   -2.437160 |
                                       |   -2.242933   -2.437160   -0.504162 |

  Dip. moment [a.u.]:                  [  -0.074022,   -0.050954,   -0.007430]
  Total dipole [Debye]:                                               0.229191
  <r^2> [a.u.]:                        [ 180.442435,   41.023878,   10.770652]
  Total <r^2> [a.u.]:                                               232.236966

  V1^2 = 0.9635, V2^2 = 0.0365

  Important amplitudes:
      occ i     occ j     vir a      vir b          v   
    -----------------------------------------------------
     8 (A) A             11 (A) A                -0.6695
     7 (A) A              9 (A) A                -0.1513
     8 (A) A             21 (A) A                -0.0780
     8 (A) A             16 (A) A                 0.0649
     8 (A) A   8 (A) B    9 (A) A   13 (A) B     -0.0167
     5 (A) A   8 (A) B   11 (A) A   11 (A) B     -0.0156
     8 (A) A   8 (A) B   11 (A) A   17 (A) B     -0.0139
     7 (A) A             20 (A) A                 0.0138
     7 (A) A   8 (A) B   13 (A) A   11 (A) B      0.0127
     4 (A) A   8 (A) B   12 (A) A   11 (A) B      0.0110
     5 (A) A   8 (A) A   11 (A) A   21 (A) A      0.0110
     8 (A) A   8 (A) B    9 (A) A   22 (A) B      0.0108
     7 (A) A   8 (A) A   11 (A) A   22 (A) A      0.0096
     6 (A) A   8 (A) B   10 (A) A   11 (A) B      0.0090
     6 (A) A   8 (A) B   15 (A) A   11 (A) B      0.0090
     7 (A) A   8 (A) B   22 (A) A   11 (A) B     -0.0089
     3 (A) A   4 (A) B   11 (A) A    9 (A) B      0.0083
     3 (A) A   8 (A) B   11 (A) A   18 (A) B      0.0081
     6 (A) A   8 (A) A   11 (A) A   15 (A) A     -0.0080
     8 (A) A             10 (A) A                -0.0079
     7 (A) A   8 (A) A   13 (A) A   16 (A) A      0.0078
     7 (A) A   8 (A) A   11 (A) A   13 (A) A     -0.0077
     5 (A) A   8 (A) B   21 (A) A   11 (A) B     -0.0071
     4 (A) A   8 (A) B   19 (A) A   11 (A) B     -0.0070
     5 (A) A   8 (A) B    9 (A) A    9 (A) B     -0.0068
     4 (A) A   8 (A) A   11 (A) A   12 (A) A     -0.0062
     6 (A) A   8 (A) A   11 (A) A   18 (A) A      0.0062
     3 (A) A   6 (A) B   11 (A) A   28 (A) B     -0.0060
     6 (A) A   8 (A) B   18 (A) A   11 (A) B     -0.0060
     8 (A) A             12 (A) A                 0.0057
     7 (A) A   8 (A) B   16 (A) A   13 (A) B     -0.0057
     3 (A) A   8 (A) A   11 (A) A   18 (A) A      0.0056
     5 (A) A   8 (A) B   10 (A) A   10 (A) B     -0.0056
     3 (A) A   8 (A) B   11 (A) A   30 (A) B      0.0055
     3 (A) A   5 (A) B   11 (A) A   25 (A) B      0.0054
     6 (A) A   8 (A) B   11 (A) A   10 (A) B      0.0054
     7 (A) A   8 (A) B   12 (A) A   10 (A) B     -0.0054
     8 (A) A   8 (A) B   20 (A) A   22 (A) B     -0.0053
     3 (A) A   8 (A) A   11 (A) A   24 (A) A      0.0053
     5 (A) A   8 (A) A   11 (A) A   16 (A) A     -0.0049
    -----------------------------------------------------

  Density matrix analysis:
  ------------------------
  NOs
    Occupation of frontier NOs:
       0.9402   1.0283
    Number of electrons: 16.000000
    Number of unpaired electrons: n_u =  2.31973, n_u,nl =  2.04957
    NO participation ratio (PR_NO):  2.918695
  
  
  Mulliken Population Analysis
  Atom      Charge (e)              h+              e-           Del q
  --------------------------------------------------------------------
   1 H       -0.141569        0.046282       -0.239090       -0.192808
   2 C        0.267985        0.497585       -0.124194        0.373390
   3 H       -0.130460        0.046488       -0.229993       -0.183505
   4 C        0.272561        0.495574       -0.123120        0.372454
   5 H       -0.153905        0.046702       -0.250919       -0.204217
   6 H       -0.114612        0.046160       -0.211475       -0.165315
  --------------------------------------------------------------------
  Sum:        0.000000        1.178790       -1.178790       -0.000000
  
  Multipole moment analysis of the density matrix
    Molecular charge:                      0.000000
    Number of electrons:                   16.000000
      Center of electronic charge [Ang]: [ -1.558128,  -0.064542,   0.002224]
    Total nuclear charge:                  16.000000
      Center of nuclear charge [Ang]:    [ -1.560576,  -0.066227,   0.001978]
    Dipole moment [D]:                     0.229191
      Cartesian components [D]:          [ -0.188144,  -0.129513,  -0.018886]
    RMS size of the density [Ang]:         1.277743
      Cartesian components [Ang]:        [  0.854577,   0.844882,   0.434167]
  
  Exciton analysis of the difference density matrix
    <r_h> [Ang]:                  [ -1.557905,  -0.065024,   0.001959]
    <r_e> [Ang]:                  [ -1.524950,  -0.041157,   0.005614]
    |<r_e - r_h>| [Ang]:            0.040853
    Hole size [Ang]:                1.394968
      Cartesian components [Ang]: [  0.817706,   0.807813,   0.790400]
    Electron size [Ang]:            2.122144
      Cartesian components [Ang]: [  1.405361,   1.438397,   0.677840]

  Transition density matrix analysis:
  -----------------------------------
  
  CT numbers (Mulliken)
    omega =     0.9297
    <Phe> =    -0.0137
  
  Exciton analysis of the transition density matrix
    Trans. dipole moment [D]:             0.014463
      Cartesian components [D]:         [  0.002040,  -0.003550,   0.013872]
    <r_h> [Ang]:                        [ -1.560235,  -0.066136,   0.001666]
    <r_e> [Ang]:                        [ -1.518093,  -0.036669,   0.006301]
    |<r_e - r_h>| [Ang]:                  0.051631
    Hole size [Ang]:                      1.228210
      Cartesian components [Ang]:       [  0.659723,   0.649136,   0.807395]
    Electron size [Ang]:                  2.259339
      Cartesian components [Ang]:       [  1.494947,   1.533476,   0.719859]
    RMS electron-hole separation [Ang]:   2.561364
      Cartesian components [Ang]:       [  1.626185,   1.657414,   1.081242]
    Covariance(r_h, r_e) [Ang^2]:         0.027597
    Correlation coefficient:              0.009945
    Center-of-mass size [Ang]:            1.291153
      Cartesian components [Ang]:       [  0.821204,   0.836615,   0.541088]

  Decomposition into state-averaged NTOs
    H- 0 -> L+ 2:  0.6639 ( 88.2%)
    H- 1 -> L+ 0: -0.1492 (  4.5%)
                   omega =  93.0%
  ----------------------------------------------------------------------------


  Excited state 5 (singlet, A)                                     [converged]
  ----------------------------------------------------------------------------
  Term symbol:  6 (1) A                                     R^2 =  1.73731e-13

  Total energy:                                            -77.9447624411 a.u.
  Excitation energy:                                              10.203704 eV

  Osc. strength:                                                      0.000003
  Trans. dip. moment [a.u.]:           [   0.000428,    0.000562,   -0.003550]
  <i|r^2|0> [a.u.]:                    [   0.090353,   -0.101033,    0.013478]
  Two-photon absorption cross-section (SoS) [a.u.]:                 183.338887
  Two-photon absorption matrix (SoS) [a.u.]:
                                       |    0.334843    0.055132   -3.519706 |
                                       |    0.055132   -0.381129    3.224294 |
                                       |   -3.519706    3.224294    0.049495 |
  Two-photon absorption cross-section [a.u.]:                        83.516864
  Two-photon absorption matrix [a.u.]:
                                       |    0.226745    0.037451   -2.371477 |
                                       |    0.037451   -0.256826    2.180604 |
                                       |   -2.371477    2.180604    0.034091 |

  Dip. moment [a.u.]:                  [   0.033004,   -0.022022,    0.000536]
[...]
    16   -1.483008985427e-03
    17   -1.720317442984e-03
    18   -2.913968762777e-04
    19   -3.390260539603e-03
    20    1.208341930302e-02
    21    9.448859819302e-01
    22   -2.691896567324e-04
    23    1.395089327535e-02
    24    8.042138940655e-04
    25    6.949942471042e-02
    26   -5.133171185780e-02
    27   -1.388667744682e+00
    28    9.864904658090e-02
    29   -9.148270518988e-02
    30   -8.950574336871e-04
    31    3.854943292931e-01
    32   -3.570107031327e-01
    33   -3.490449911090e-03
    34    1.548584956899e-02
    35   -1.439923461654e-03
    36   -1.781069425668e-03
    37    1.933501956320e-04
    38   -2.967978396321e-03
    39    8.899633662821e-03
    40    9.157687604275e-01
    41    3.683038466701e-04
    42   -1.376997705445e-02
    43   -8.133476632941e-04
    44    1.079847036334e-02
    45    9.399403915983e-01
    46    1.408004804513e-02
    47    3.554525830325e-04
    48    6.842180027762e-04
Sym=X
Ene= 0.232582
Spin=Alpha
Occup=0
     1    2.475371801127e-02
     2    1.180556341887e+00
     3   -1.360182304228e-02
     4   -3.447611296314e-03
     5   -8.368044640051e-04
     6   -1.429480850107e-03
     7    1.245309181538e-03
     8    1.742946533747e-02
     9   -1.528725271414e-01
    10   -1.627078257154e-01
    11   -1.668345894034e-02
    12   -5.455280517952e-01
    13   -5.677755843258e-01
    14   -5.867419932080e-02
    15   -2.215021007613e-04
    16    2.242722375398e-05
    17    2.332085513062e-05
    18   -1.467331914782e-04
    19    7.151068432697e-05
    20   -2.746623128870e-02
    21   -1.202763905609e+00
    22   -2.873481081709e-03
    23   -1.395920310022e-02
    24   -9.528233923530e-04
    25    2.896342985371e-03
    26   -2.161071163955e-03
    27   -6.101524106822e-02
    28   -1.495296986645e-01
    29   -1.622986571595e-01
    30   -1.689282555570e-02
    31   -5.283112239798e-01
    32   -5.696625428819e-01
    33   -5.957340105294e-02
    34    9.445931722403e-04
    35   -1.097197815439e-04
    36   -1.433983500260e-04
    37   -4.868874405581e-06
    38   -4.674166497368e-04
    39    2.682385431155e-02
    40    1.225199243587e+00
    41   -2.961828220817e-03
    42   -1.458178312545e-02
    43   -1.018417620649e-03
    44   -2.592643412965e-02
    45   -1.148776669246e+00
    46   -1.306530748981e-02
    47   -3.238103167340e-03
    48   -8.186838609710e-04
Sym=X
Ene= 0.238991
Spin=Alpha
Occup=0
     1   -1.802114356853e-02
     2   -1.111794068930e+00
     3    1.711074120205e-02
     4    9.171008391843e-03
     5    1.364582953474e-03
     6   -8.616558271806e-02
     7    7.982583249571e-02
     8    1.571311529943e+00
     9    6.084940168102e-02
    10   -5.223107278447e-02
    11    6.732870734444e-06
    12    2.401712168398e-01
    13   -2.025227770778e-01
    14    3.143430947694e-04
    15   -2.204569648174e-02
    16    2.577910664901e-03
    17    2.872913071940e-03
    18   -3.103340720893e-04
    19    1.274597888533e-02
    20   -1.686431743771e-02
    21   -1.040667194297e+00
    22   -8.365438126260e-03
    23   -1.639466294450e-02
    24   -1.350034250783e-03
    25    8.704948078346e-02
    26   -8.017660745351e-02
    27   -1.603531440588e+00
    28    6.306264151981e-02
    29   -5.182405685380e-02
    30   -3.664023499972e-04
    31    2.489304308585e-01
    32   -2.092075004663e-01
    33   -1.757871528543e-03
    34    2.268102729195e-02
    35   -2.601455110317e-03
    36   -3.008309666261e-03
    37    3.674180712752e-04
    38   -1.287498925553e-02
    39    1.618071689775e-02
    40    1.064832410591e+00
    41   -8.500033143374e-03
    42   -1.703560937269e-02
    43   -1.434623611842e-03
    44    1.648756638123e-02
    45    1.127605640166e+00
    46    1.738971685910e-02
    47    9.447274440002e-03
    48    1.367192227543e-03
Sym=X
Ene= 0.303194
Spin=Alpha
Occup=0
     1   -2.120971815240e-02
     2    1.687971711470e+00
     3   -2.303201092185e-02
     4    1.026170010711e-04
     5   -1.089149970196e-03
     6    6.832949801579e-05
     7    1.886868643809e-04
     8   -2.111458660431e-02
     9   -1.337170409563e-01
    10   -1.399511420358e-01
    11   -1.451607199263e-02
    12   -1.138316468835e+00
    13   -1.189570077207e+00
    14   -1.240211146009e-01
    15    3.919826818270e-04
    16   -1.719714000954e-03
    17    1.752313400644e-03
    18   -3.254097101309e-02
    19   -1.957071511406e-03
    20    1.878466886521e-02
    21   -1.665226606464e+00
    22    1.459732134134e-03
    23   -2.281695063873e-02
    24   -1.262232920594e-03
    25   -9.750746321417e-06
    26   -5.306461896644e-05
    27   -1.885767239673e-03
    28    1.349841286042e-01
    29    1.409879769406e-01
    30    1.484990190901e-02
    31    1.142530030300e+00
    32    1.197104045814e+00
    33    1.253789666213e-01
    34    3.255915886948e-05
    35   -1.615563807312e-03
    36    1.923489835173e-03
    37   -3.289677137731e-02
    38   -1.684101585742e-03
    39    2.019337066188e-02
    40   -1.696591531203e+00
    41   -1.602330969779e-03
    42    2.303161546543e-02
    43    1.309208147211e-03
    44   -2.083818624216e-02
    45    1.698699388582e+00
    46    2.308301632260e-02
    47   -4.084971847345e-04
    48    1.063638181207e-03
Sym=X
Ene= 0.461971
Spin=Alpha
Occup=0
     1   -1.151527885422e-01
     2   -7.198016928454e-01
     3   -1.551390602854e-02
     4   -1.032238986497e-02
     5   -1.328847700089e-03
     6    6.109083682117e-02
     7    1.735438515649e-02
     8   -3.604548564576e+00
     9    1.036747820299e-01
    10   -9.929492787875e-02
    11   -8.794890164858e-04
    12    2.430347999266e+00
    13   -2.293420016458e+00
    14   -2.002798414863e-02
    15    5.378603693439e-02
    16   -3.303780422988e-03
    17   -4.629736700639e-03
    18   -3.895562760922e-04
    19    1.847403497526e-02
    20   -1.222785108510e-01
    21   -6.843107667453e-01
    22    8.877404773383e-03
    23    1.629986174379e-02
    24    1.379590982251e-03
    25   -6.097010306559e-02
    26   -1.672335562797e-02
    27    3.592588727397e+00
    28    1.045912091432e-01
    29   -9.973136305431e-02
    30   -1.165189505216e-03
    31    2.421773102015e+00
    32   -2.302192690043e+00
    33   -2.231953379648e-02
    34   -5.275692007918e-02
    35    3.300912044262e-03
    36    4.517897467949e-03
    37    7.802785505221e-04
    38   -1.899694497842e-02
    39    1.156267816887e-01
    40    7.103312723183e-01
    41    8.635462369257e-03
    42    1.619387707821e-02
    43    1.373341317920e-03
    44    1.109756500504e-01
    45    7.145967123936e-01
    46   -1.550261571808e-02
    47   -1.000719979752e-02
    48   -1.345329128204e-03
Sym=X
Ene= 0.577673
Spin=Alpha
Occup=0
     1   -2.506133738822e-01
     2   -4.441450416283e-02
     3    1.830364142815e-02
     4   -2.547914911595e-02
     5   -6.304088249200e-04
     6    4.837676493714e-03
     7    1.587742021122e-01
     8    4.488677049015e-01
     9   -2.999442412815e-01
    10    2.870144009947e-01
    11    2.810299995936e-03
    12    7.338912266129e-01
    13   -6.919748030323e-01
    14   -6.201149997126e-03
    15    5.822342681636e-03
    16   -3.895215928367e-03
    17   -3.686729304700e-03
    18    3.680595597533e-03
    19   -6.027317024436e-02
    20   -2.493551073323e-01
    21   -2.540975251729e-02
    22    2.767841160204e-02
    23   -1.795794848121e-02
    24    2.558332781986e-04
    25    5.512170852221e-03
    26    1.586162689511e-01
    27    4.190962304317e-01
    28    2.980113050465e-01
    29   -2.861489740691e-01
    30   -2.809342453117e-03
    31   -7.568159895564e-01
    32    7.269778588024e-01
    33    7.500107855548e-03
    34    5.456313286165e-03
    35   -3.804323290700e-03
    36   -3.719915128385e-03
    37    4.827868902765e-03
    38   -6.013032459121e-02
    39   -2.538588876043e-01
    40   -4.582647867122e-02
    41   -2.676820405742e-02
    42    1.670331503670e-02
    43   -2.625103085694e-04
    44   -2.443925505405e-01
    45   -5.736235883242e-02
    46   -1.907471664807e-02
    47    2.610959618302e-02
    48    6.639626841542e-04
Sym=X
Ene= 0.614521
Spin=Alpha
Occup=0
     1   -5.145217032512e-01
     2    2.034836525337e-01
     3   -6.103074230527e-02
     4    3.819738188440e-02
     5   -6.704695557455e-04
     6   -2.285892317136e-04
     7   -3.032746699254e-03
     8   -1.256858067880e-02
     9   -3.727081364357e-02
    10   -3.738994459184e-02
    11   -4.037264198541e-03
    12    2.934851344831e-01
    13    2.673160319864e-01
    14    2.930141477162e-02
    15   -2.711725220176e-04
    16   -7.437038025256e-03
    17    8.498546933417e-03
    18   -1.490625535915e-01
    19   -5.454984047862e-03
    20    5.200416418782e-01
    21   -2.332098840589e-01
    22    4.129944419272e-02
    23   -5.897122409640e-02
    24   -1.518417333145e-03
    25    3.469877852590e-04
    26   -2.391783166856e-04
    27    2.067644799258e-02
    28   -4.134331648911e-02
    29   -3.967034743571e-02
    30   -4.259908275955e-03
    31    3.149252371087e-01
    32    2.837595881557e-01
    33    3.216817011873e-02
    34   -1.845437928454e-03
    35    7.490669914736e-03
    36   -8.422759670469e-03
    37    1.485933799596e-01
    38    7.289040369229e-03
    39   -5.104225675303e-01
    40    2.081506986975e-01
    41    4.118721233468e-02
    42   -5.835964023721e-02
    43   -1.540391498359e-03
    44    5.243036039091e-01
    45   -1.988733912928e-01
    46   -6.114528661284e-02
    47    3.705619401871e-02
    48   -6.432240503759e-04
Sym=X
Ene= 0.689046
Spin=Alpha
Occup=0
     1    4.066212801837e-04
     2   -3.662126715094e-06
     3    1.102176484287e-03
     4    1.263495685267e-03
     5   -2.110138515167e-02
     6    3.095731646326e-05
     7    4.672278078873e-04
     8   -2.168086198221e-04
     9    3.143931768855e-02
    10    3.966942528636e-02
    11   -6.706756512403e-01
    12   -2.889199848111e-02
    13   -3.599487330173e-02
    14    6.132675974419e-01
    15   -1.407057626600e-03
    16    8.269470677175e-02
    17   -7.808411469850e-02
    18   -8.611446340309e-03
    19   -1.113983238677e-03
    20    4.848713337303e-04
    21   -3.927310042572e-04
    22    8.395105146060e-04
    23    9.991518872755e-04
    24   -1.925002236339e-02
    25    2.116964933103e-05
    26    5.534250073611e-04
    27   -4.199184277256e-04
    28    3.198964688507e-02
    29    3.981261188252e-02
    30   -6.699412455815e-01
    31   -2.957372403780e-02
    32   -3.633763975491e-02
    33    6.132988559259e-01
    34    1.083906567887e-03
    35   -8.287627537371e-02
    36    7.848069729506e-02
    37    8.504630408195e-03
    38    1.230307892093e-03
    39    3.438305405116e-04
    40   -5.903833091571e-04
    41    1.046930177982e-03
    42    1.406828221711e-03
    43   -2.102480347001e-02
    44    2.511080592699e-04
    45   -2.242699098903e-04
    46    8.772888036792e-04
    47    1.251093349461e-03
    48   -2.104289997339e-02
Sym=X
Ene= 0.707927
Spin=Alpha
Occup=0
     1   -4.859318956734e-01
     2    1.568470449688e-01
     3   -8.158960700502e-02
     4   -4.403363157780e-02
     5   -6.478438157961e-03
     6   -4.858296496248e-02
     7   -3.124458474352e-01
     8    5.051690347851e-01
     9    1.984600908790e-01
    10   -1.952607222225e-01
    11   -2.794937369576e-03
    12   -8.933286729513e-02
    13    1.040686690956e-01
    14    2.491781202213e-03
    15    1.959801115762e-01
    16   -2.058066389327e-02
    17   -2.402424808921e-02
    18    2.944667294489e-03
    19   -7.767340716831e-02
    20   -4.869465511696e-01
    21    1.824322131165e-01
    22    4.120800977822e-02
    23    8.269378753140e-02
    24    6.791855733345e-03
    25   -4.547784363337e-02
    26   -3.220578923964e-01
    27    4.534491376738e-01
    28   -2.046009946853e-01
    29    1.925702422197e-01
    30    1.116641656910e-03
    31    5.798409734821e-02
    32   -4.395324203648e-02
    33    1.028338680796e-03
    34    1.905548073406e-01
    35   -2.007727621218e-02
    36   -2.357016284924e-02
    37    3.893938596895e-03
    38   -7.526537924127e-02
    39   -4.714920377947e-01
    40    1.308716215141e-01
    41   -3.977526573448e-02
    42   -8.027528444814e-02
    43   -6.684470118448e-03
    44   -4.620061676084e-01
    45    1.347577948556e-01
    46    7.818654521600e-02
    47    4.426899777600e-02
    48    6.334681710707e-03
Sym=X
Ene= 0.783073
Spin=Alpha
Occup=0
     1    5.202368413375e-01
     2   -4.499600159671e-01
     3    1.066654414265e-01
     4    2.480449168493e-02
     5    6.501580965105e-03
     6    8.971362194370e-02
     7   -2.283187119840e-01
     8   -6.185323031645e-01
     9    1.207062714400e-01
    10   -9.633595226816e-02
    11    9.814705424691e-04
    12    2.966186797405e-01
    13   -3.240042586579e-01
    14   -7.022063926541e-03
    15   -2.019405322185e-01
    16    1.698292212670e-02
    17    2.119204005539e-02
    18   -3.330285400084e-03
    19    8.415363021585e-03
    20    5.331943645675e-01
    21   -5.028013818510e-01
    22   -2.053429424767e-02
    23   -1.122726272134e-01
    24   -7.558698927704e-03
    25   -9.191276683476e-02
    26    2.047402588881e-01
    27    6.679166073435e-01
    28    1.081862911565e-01
    29   -1.010891477798e-01
    30   -1.777949471865e-03
    31    3.117419265473e-01
    32   -2.927544632602e-01
    33   -6.895562466884e-04
    34    2.103497814464e-01
    35   -1.784881241091e-02
    36   -2.261482310001e-02
    37    1.822124537309e-03
    38   -1.040275086111e-02
    39   -5.427812018589e-01
    40    4.694824487239e-01
    41   -2.212257351056e-02
    42   -1.134085681183e-01
    43   -7.835672638216e-03
    44   -5.424438430764e-01
    45    4.667438041549e-01
    46    1.112908570481e-01
    47    2.648962252677e-02
    48    6.855973026385e-03
Sym=X
Ene= 0.807899
Spin=Alpha
Occup=0
     1    5.934403095531e-04
     2   -1.187393288436e-03
     3    1.854895754813e-03
     4    2.021015929488e-03
     5   -3.397606263601e-02
     6    1.157122724674e-04
     7   -3.186656788395e-04
     8   -9.822471945868e-05
     9    3.620479318486e-02
    10    4.453014856460e-02
    11   -7.632991399020e-01
    12   -5.265955200598e-02
    13   -6.633921064363e-02
    14    1.126410994199e+00
    15    6.514185087030e-04
    16   -6.531376732970e-02
    17    6.191989857616e-02
    18    6.891704941098e-03
    19    8.546457350546e-04
    20    5.904845097577e-04
    21   -2.635672249163e-04
    22    1.611005544615e-03
    23    1.775229388351e-03
    24   -3.256811630623e-02
    25   -1.116716587111e-04
    26    1.618222224279e-04
    27    2.254720314234e-04
    28   -3.608138221800e-02
    29   -4.594007205044e-02
    30    7.633733206813e-01
    31    5.405714647410e-02
    32    6.719145205973e-02
    33   -1.126929502131e+00
    34    1.338631924012e-03
    35   -6.540532364404e-02
    36    6.178523460384e-02
    37    6.624905348589e-03
    38    1.007064396828e-03
    39   -5.932752978589e-04
    40    2.553302063793e-04
    41   -1.542495151021e-03
    42   -2.217698836151e-03
    43    3.426822417501e-02
    44   -6.120808973191e-04
    45    1.241222571736e-03
    46   -1.315167973489e-03
    47   -2.003653535354e-03
    48    3.378919043945e-02
Sym=X
Ene= 0.861579
Spin=Alpha
Occup=0
     1    2.248507783374e-02
     2   -1.102945096389e+00
     3    1.511717258302e-01
     4    5.644655579578e-02
     5    1.048307132899e-02
     6    1.741340906519e-03
     7    5.730529143196e-03
     8   -7.111123944712e-04
     9   -4.086151326254e-01
    10   -4.406814084353e-01
    11   -4.490029717970e-02
    12    9.503920234314e-01
    13    1.012727717786e+00
    14    1.037575643400e-01
    15   -5.804664812350e-03
    16    1.212619200947e-02
    17   -1.289658786654e-02
    18    2.348401393017e-01
    19    9.173078424307e-03
    20   -1.148793833484e-02
    21    1.103100027945e+00
    22    5.058428585634e-02
    23    1.510844596933e-01
    24    1.128183778396e-02
    25   -1.058984552190e-03
    26    9.075760198094e-03
    27   -1.151643518050e-02
    28   -3.985182537001e-01
    29   -4.269904558944e-01
    30   -4.471603243092e-02
    31    9.346150883875e-01
    32    9.912621387821e-01
    33    1.042149992159e-01
    34    2.497436356563e-03
    35   -1.176820171882e-02
    36    1.327092148905e-02
    37   -2.343674897273e-01
    38   -8.733648414295e-03
    39    4.142799519969e-03
    40   -1.085036476571e+00
    41    4.949917030149e-02
    42    1.480253261849e-01
    43    1.121275539365e-02
    44   -1.177370044361e-02
    45    1.087798886146e+00
    46    1.477710146998e-01
    47    5.581146016253e-02
    48    1.028384803614e-02
Sym=X
Ene= 0.934606
Spin=Alpha
Occup=0
     1   -1.202447938883e-01
     2    1.233751954442e+00
     3   -1.776830885604e-01
     4    7.801846261519e-03
     5   -7.969072474722e-03
     6   -1.919691195663e-03
     7   -2.299093944557e-02
     8    1.219771100097e-02
     9    4.556158853833e-01
    10    5.079451322711e-01
    11    5.148341132138e-02
    12   -1.406429005138e+00
    13   -1.546425583354e+00
    14   -1.576889865207e-01
    15    5.464415236937e-03
    16   -5.822793553541e-03
    17    6.287323662413e-03
    18   -1.166022325698e-01
    19    3.381403607682e-03
    20    1.170695195391e-01
    21   -1.280236020260e+00
    22    9.827907568767e-03
    23   -1.820376486433e-01
    24   -1.018514787761e-02
    25    1.097658328084e-03
    26   -1.489593913083e-02
    27    4.191155509021e-02
    28   -4.877220263147e-01
    29   -4.925270608866e-01
    30   -5.245155424499e-02
    31    1.490462118623e+00
    32    1.510482463903e+00
    33    1.605642785169e-01
    34   -2.867277563560e-03
    35   -6.223297993045e-03
    36    7.467030467638e-03
    37   -1.251408393581e-01
    38   -1.002681582895e-02
    39    1.235784426982e-01
    40   -1.285996401918e+00
    41   -1.440828416165e-02
    42    1.850183223758e-01
    43    1.040325792078e-02
    44   -1.179284306099e-01
    45    1.296867179063e+00
    46    1.830781822076e-01
    47   -3.977984132865e-03
    48    8.420690830239e-03
Sym=X
Ene= 0.972093
Spin=Alpha
Occup=0
     1   -6.486308443670e-02
     2    9.719888138511e-01
     3   -9.712967276418e-02
     4   -9.929622677862e-02
     5   -1.052353723728e-02
     6    2.594294158815e-02
     7    2.697780089362e-01
     8    4.896976355622e-01
     9    4.958615149257e-01
    10   -4.453169475368e-01
    11   -2.570797902066e-03
    12   -1.539895599127e+00
    13    1.364671978118e+00
    14    6.994609320573e-03
    15   -5.583057650296e-02
    16   -1.300843339821e-02
    17   -9.188446184164e-03
    18    8.501481499546e-03
    19   -3.026784617891e-01
    20   -6.154258685507e-02
    21    8.736952721970e-01
    22    9.501583547136e-02
    23    8.874783644440e-02
    24    9.687837308513e-03
    25   -2.533225456282e-02
    26   -2.220328693950e-01
    27   -5.686546095262e-01
    28    4.672133208305e-01
    29   -4.621545305809e-01
    30   -5.670739394014e-03
    31   -1.442113360995e+00
    32    1.440061416355e+00
    33    1.814729424771e-02
    34    5.321825944616e-02
    35    1.252247651253e-02
    36    9.624983830197e-03
    37   -1.522707316539e-02
    38    2.972186729649e-01
    39    6.079917013633e-02
    40   -9.205569807200e-01
    41    9.307564653361e-02
    42    9.378218302131e-02
    43    1.006897706245e-02
    44    6.341464141233e-02
    45   -8.720052735328e-01
    46   -8.351386804211e-02
    47   -9.701117282309e-02
    48   -9.620664119540e-03
[5D]

======= END OF MOLDEN-FORMATTED INPUT FILE =======


        *************************************************************
        *                                                           *
        *  Thank you very much for using Q-Chem.  Have a nice day.  *
        *                                                           *
        *************************************************************


