                  Welcome to Q-Chem
     A Quantum Leap Into The Future Of Chemistry


 Q-Chem 5.4 (devel), Q-Chem, Inc., Pleasanton, CA (2021)

 E. Epifanovsky,  A. T. B. Gilbert,  Xintian Feng,  Joonho Lee,  Yuezhi Mao,  
 N. Mardirossian,  P. Pokhilko,  A. White,  M. Wormit,  M. P. Coons,  
 A. L. Dempwolff,  Zhengting Gan,  D. Hait,  P. R. Horn,  L. D. Jacobson,  
 I. Kaliman,  J. Kussmann,  A. W. Lange,  Ka Un Lao,  D. S. Levine,  Jie Liu,  
 S. C. McKenzie,  A. F. Morrison,  K. Nanda,  F. Plasser,  D. R. Rehn,  
 M. L. Vidal,  Zhi-Qiang You,  Ying Zhu,  B. Alam,  B. Albrecht,  
 A. Aldossary,  E. Alguire,  J. H. Andersen,  D. Barton,  K. Begam,  A. Behn,  
 Y. A. Bernard,  E. J. Berquist,  H. Burton,  A. Carreras,  K. Carter-Fenk,  
 R. Chakraborty,  A. D. Chien,  K. D. Closser,  V. Cofer-Shabica,  
 S. Dasgupta,  Jia Deng,  M. de Wergifosse,  M. Diedenhofen,  Hainam Do,  
 S. Ehlert,  Po-Tung Fang,  S. Fatehi,  Qingguo Feng,  T. Friedhoff,  
 J. Gayvert,  Qinghui Ge,  G. Gidofalvi,  M. Goldey,  J. Gomes,  
 C. Gonzalez-Espinoza,  S. Gulania,  A. Gunina,  M. W. D. Hanson-Heine,  
 P. H. P. Harbach,  A. W. Hauser,  M. F. Herbst,  M. Hernandez Vera,  
 M. Hodecker,  Z. C. Holden,  S. Houck,  Xunkun Huang,  Kerwin Hui,  
 B. C. Huynh,  M. Ivanov,  Hyunjun Ji,  Hanjie Jiang,  B. Kaduk,  S. Kaehler,  
 K. Khistyaev,  Jaehoon Kim,  P. Klunzinger,  Z. Koczor-Benda,  
 Joong Hoon Koh,  D. Kosenkov,  L. Koulias,  T. Kowalczyk,  C. M. Krauter,  
 K. Kue,  A. Kunitsa,  T. Kus,  A. Landau,  K. V. Lawler,  D. Lefrancois,  
 S. Lehtola,  Rain Li,  Yi-Pei Li,  Jiashu Liang,  M. Liebenthal,  
 Hung-Hsuan Lin,  You-Sheng Lin,  Fenglai Liu,  Kuan-Yu Liu,  
 M. Loipersberger,  A. Luenser,  A. Manjanath,  P. Manohar,  E. Mansoor,  
 S. F. Manzer,  Shan-Ping Mao,  A. V. Marenich,  T. Markovich,  S. Mason,  
 S. A. Maurer,  P. F. McLaughlin,  M. F. S. J. Menger,  J.-M. Mewes,  
 S. A. Mewes,  P. Morgante,  J. W. Mullinax,  K. J. Oosterbaan,  G. Paran,  
 Alexander C. Paul,  Suranjan K. Paul,  F. Pavosevic,  Zheng Pei,  S. Prager,  
 E. I. Proynov,  E. Ramos,  B. Rana,  A. E. Rask,  A. Rettig,  R. M. Richard,  
 F. Rob,  E. Rossomme,  T. Scheele,  M. Scheurer,  M. Schneider,  
 N. Sergueev,  S. M. Sharada,  W. Skomorowski,  D. W. Small,  C. J. Stein,  
 Yu-Chuan Su,  E. J. Sundstrom,  Zhen Tao,  J. Thirman,  T. Tsuchimochi,  
 N. M. Tubman,  S. P. Veccham,  O. Vydrov,  J. Wenzel,  J. Witte,  A. Yamada,  
 Kun Yao,  S. Yeganeh,  S. R. Yost,  A. Zech,  Igor Ying Zhang,  Xing Zhang,  
 Yu Zhang,  D. Zuev,  A. Aspuru-Guzik,  A. T. Bell,  N. A. Besley,  
 K. B. Bravaya,  B. R. Brooks,  D. Casanova,  Jeng-Da Chai,  S. Coriani,  
 C. J. Cramer,  A. E. DePrince, III,  R. A. DiStasio Jr.,  A. Dreuw,  
 B. D. Dunietz,  T. R. Furlani,  W. A. Goddard III,  S. Grimme,  
 S. Hammes-Schiffer,  T. Head-Gordon,  W. J. Hehre,  Chao-Ping Hsu,  
 T.-C. Jagau,  Yousung Jung,  A. Klamt,  Jing Kong,  D. S. Lambrecht,  
 WanZhen Liang,  N. J. Mayhall,  C. W. McCurdy,  J. B. Neaton,  
 C. Ochsenfeld,  J. A. Parkhill,  R. Peverati,  V. A. Rassolov,  Yihan Shao,  
 L. V. Slipchenko,  T. Stauch,  R. P. Steele,  J. E. Subotnik,  
 A. J. W. Thom,  A. Tkatchenko,  D. G. Truhlar,  T. Van Voorhis,  
 T. A. Wesolowski,  K. B. Whaley,  H. L. Woodcock III,  P. M. Zimmerman,  
 S. Faraji,  P. M. W. Gill,  M. Head-Gordon,  J. M. Herbert,  A. I. Krylov

 Additional authors for Version 5.4.1: 
 S. Kotaru,  Shaozhi Li,  Xiangyuan Li,  F. Matz,  A. Molle,  Haisheng Ren,  
 Yingli Su,  Hung-Yi Tsai,  C. Utku,  Fang Wang

 Contributors to earlier versions of Q-Chem not listed above: 
 R. D. Adamson,  B. Austin,  R. Baer,  J. Baker,  G. J. O. Beran,  
 K. Brandhorst,  S. T. Brown,  E. F. C. Byrd,  A. K. Chakraborty,  
 G. K. L. Chan,  Chun-Min Chang,  Yunqing Chen,  C.-L. Cheng,  
 Siu Hung Chien,  D. M. Chipman,  D. L. Crittenden,  H. Dachsel,  
 R. J. Doerksen,  A. D. Dutoi,  R. G. Edgar,  J. Fosso-Tande,  
 L. Fusti-Molnar,  D. Ghosh,  A. Ghysels,  A. Golubeva-Zadorozhnaya,  
 J. Gonthier,  M. S. Gordon,  S. R. Gwaltney,  G. Hawkins,  J. E. Herr,  
 A. Heyden,  S. Hirata,  E. G. Hohenstein,  G. Kedziora,  F. J. Keil,  
 C. Kelley,  Jihan Kim,  R. A. King,  R. Z. Khaliullin,  P. P. Korambath,  
 W. Kurlancheek,  A. Laurent,  A. M. Lee,  M. S. Lee,  S. V. Levchenko,  
 Ching Yeh Lin,  D. Liotard,  E. Livshits,  R. C. Lochan,  I. Lotan,  
 L. A. Martinez-Martinez,  P. E. Maslen,  N. Nair,  D. P. O'Neill,  
 D. Neuhauser,  E. Neuscamman,  C. M. Oana,  R. Olivares-Amaya,  R. Olson,  
 T. M. Perrine,  B. Peters,  P. A. Pieniazek,  A. Prociuk,  Y. M. Rhee,  
 J. Ritchie,  M. A. Rohrdanz,  E. Rosta,  N. J. Russ,  H. F. Schaefer III,  
 M. W. Schmidt,  N. E. Schultz,  S. Sharma,  N. Shenvi,  C. D. Sherrill,  
 A. C. Simmonett,  A. Sodt,  T. Stein,  D. Stuck,  K. S. Thanthiriwatte,  
 V. Vanovschi,  L. Vogt,  Tao Wang,  A. Warshel,  M. A. Watson,  
 C. F. Williams,  Q. Wu,  X. Xu,  Jun Yang,  W. Zhang,  Yan Zhao

 Please cite Q-Chem as follows:
 Y. Shao et al., Mol. Phys. 113, 184-215 (2015)
 DOI: 10.1080/00268976.2014.952696

 Q-Chem 5.4.1 for Intel X86 EM64T Linux

 Parts of Q-Chem use Armadillo 9.800.1 (Horizon Scraper).
 http://arma.sourceforge.net/

 Q-Chem begins on Tue Mar 21 11:23:32 2023  

 Host: cpu186.baobab
0

     Scratch files written to /scratch/fum/qchem54464//
 Processing $rem in /home/share/wesolowski/qc5.aug2021.FDE/config/preferences:
 Processing $rem in /home/fum/.qchemrc:

 Checking the input file for inconsistencies... 	...done.

--------------------------------------------------------------
User input:
--------------------------------------------------------------
$comment
generated from CCJob.Templates
$end

$rem
sym_ignore = true
method = adc(2)
ee_states = 10
basis = cc-pVDZ
mem_static = 1024
mem_total = 40000
adc_davidson_maxiter = 900
adc_davidson_conv = 6
adc_print = 3
adc_prop_es = true
adc_prop_es2es = true
adc_prop_tpa = true
molden_format = True
state_analysis = true
print_orbitals = 15
gen_scfman = false
fde_export_density = true
fde_details = 3
$end

$molecule
0 1
H -0.021160267542532616 -0.24721633393561995 0.0648715252620449
C -1.0764052745761703 -0.5261957235640877 -0.0020282283502425324
H -1.3005254125993995 -1.5936312762875984 -0.07725546643453617
C -2.044017328689664 0.39126157401636136 0.006980579955082298
H -1.8215332239037594 1.4618042051998827 0.08168664796491984
H -3.1008695630606224 0.11538857924790973 -0.0603416199316624                     
$end
--------------------------------------------------------------
 ----------------------------------------------------------------
             Standard Nuclear Orientation (Angstroms)
    I     Atom           X                Y                Z
 ----------------------------------------------------------------
    1      H      -0.0211602675    -0.2472163339     0.0648715253
    2      C      -1.0764052746    -0.5261957236    -0.0020282284
    3      H      -1.3005254126    -1.5936312763    -0.0772554664
    4      C      -2.0440173287     0.3912615740     0.0069805800
    5      H      -1.8215332239     1.4618042052     0.0816866480
    6      H      -3.1008695631     0.1153885792    -0.0603416199
 ----------------------------------------------------------------
 Nuclear Repulsion Energy =          33.20994870 hartrees
 There are        8 alpha and        8 beta electrons
 Requested basis set is cc-pVDZ
 There are 24 shells and 48 basis functions
 Total memory of 40000 MB is distributed as follows: 
   MEM_STATIC is set to 1024 MB
   QALLOC/CCMAN JOB total memory use is  38976 MB
 Warning: actual memory use might exceed 40000 MB

 Total QAlloc Memory Limit  40000 MB
 Mega-Array Size      1001 MB
 MEM_STATIC part      1024 MB

                       Distance Matrix (Angstroms)
             H (  1)   C (  2)   H (  3)   C (  4)   H (  5)
   C (  2)  1.093548
   H (  3)  1.862742  1.093301
   C (  4)  2.122017  1.333447  2.121244
   H (  5)  2.482413  2.124704  3.103610  1.095966
   H (  6)  3.103509  2.124497  2.482393  1.094338  1.862715

 A cutoff of  1.0D-11 yielded    300 shell pairs
 There are      1220 function pairs (      1329 Cartesian)
 Smallest overlap matrix eigenvalue = 4.81E-03

 Scale SEOQF with 1.000000e-01/1.000000e-01/1.000000e+00

 Standard Electronic Orientation quadrupole field applied
 Nucleus-field energy     =     0.0000000022 hartrees
 Guess from superposition of atomic densities
 Warning:  Energy on first SCF cycle will be non-variational
 SAD guess density has 16.000000 electrons
 A restricted Hartree-Fock SCF calculation will be
 performed using Pulay DIIS extrapolation
 SCF converges when DIIS error is below 1.0E-08
 using 10 threads for integral computing
 -------------------------------------------------------
 OpenMP Integral computing Module                
 Release: version 1.0, May 2013, Q-Chem Inc. Pittsburgh 
 -------------------------------------------------------
 ---------------------------------------
  Cycle       Energy         DIIS Error
 ---------------------------------------
    1     -78.3977797861      9.93E-02
    2     -78.0175861189      7.13E-03
    3     -78.0380522901      1.83E-03
    4     -78.0395284412      5.64E-04
    5     -78.0396460739      5.82E-05
    6     -78.0396479384      9.38E-06
    7     -78.0396480001      2.20E-06
    8     -78.0396480029      8.32E-07
    9     -78.0396480032      1.10E-07
   10     -78.0396480032      2.05E-08
   11     -78.0396480032      6.25E-09 Convergence criterion met
 ---------------------------------------
 SCF time:  CPU 2.15 s  wall 3.68 s
 SCF   energy in the final basis set = -78.03964800
 Total energy in the final basis set = -78.03964800
Exporting Density Matrix to file 'Densmat_SCF.txt'.
Export successful
================================================================================
|                                                                              |
|                                 A D C  M A N                                 |
|                                                                              |
 ------------------------------------------------------------------------------ 
|                                                                              |
| Components:                                                                  |
|                                                                              |
| - libvmm - 1.3-trunk                                                         |
|   Authors:                                                                   |
|   Evgeny Epifanovsky, Ilya Kaliman                                           |
|                                                                              |
| - libtensor - 2.5-trunk                                                      |
|   Authors:                                                                   |
|   Evgeny Epifanovsky, Michael Wormit, Dmitry Zuev, Sam Manzer,               |
|   Ilya Kaliman                                                               |
|                                                                              |
| - libwfa - 1.1-trunk                                                         |
|   Authors:                                                                   |
|   Felix Plasser, Stefanie Mewes (Baeppler), Benjamin Thomitzni,              |
|   Michael Wormit, Feng Chen, Anna I. Krylov, Pavel Pokhilko                  |
|                                                                              |
| - libadc - 1.1-trunk                                                         |
|   Authors:                                                                   |
|   Michael Wormit, Adrian L. Dempwolff, Philipp H. P. Harbach,                |
|   Caroline Krauter, Dirk Rehn, Matthias Schneider, Jan Wenzel                |
|                                                                              |
| - adcman - 2.6-trunk                                                         |
|   Authors:                                                                   |
|   Michael Wormit, Adrian L. Dempwolff, Philipp H. P. Harbach,                |
|   Caroline Krauter, Daniel Lefrancois, Jan-Michael Mewes, Dirk Rehn,         |
|   Matthias Schneider, Jan Wenzel, Andreas Dreuw                              |
|                                                                              |
| Authors of earlier versions of ADCMAN:                                       |
| Andreas Dreuw, Jan Hendrik Starcke, Dirk Rehn, Michael Wormit                |
|                                                                              |
================================================================================

 Created directory /scratch/fum/qchem54464/plots
  Import QC data ...  CPU 0.00 s  wall 0.00 s

 Alpha MOs, Restricted
 -- Occupied --                  
-11.239 -11.237  -1.030  -0.786  -0.635  -0.582  -0.500  -0.374
  1 A     2 A     3 A     4 A     5 A     6 A     7 A     8 A                  
 -- Virtual --                   
  0.168   0.203   0.231   0.236   0.303   0.463   0.580   0.609
  9 A    10 A    11 A    12 A    13 A    14 A    15 A    16 A                  
  0.689   0.705   0.776   0.807   0.858   0.928   0.971   1.006
 17 A    18 A    19 A    20 A    21 A    22 A    23 A    24 A                  
  1.130   1.237   1.241   1.263   1.291   1.593   1.728   1.744
 25 A    26 A    27 A    28 A    29 A    30 A    31 A    32 A                  
  1.811   1.852   1.854   1.901   1.963   1.972   2.224   2.248
 33 A    34 A    35 A    36 A    37 A    38 A    39 A    40 A                  
  2.356   2.423   2.493   2.623   2.679   2.795   3.099   3.369
 41 A    42 A    43 A    44 A    45 A    46 A    47 A    48 A                  

 Beta MOs, Restricted
 -- Occupied --                  
-11.239 -11.237  -1.030  -0.786  -0.635  -0.582  -0.500  -0.374
  1 A     2 A     3 A     4 A     5 A     6 A     7 A     8 A                  
 -- Virtual --                   
  0.168   0.203   0.231   0.236   0.303   0.463   0.580   0.609
  9 A    10 A    11 A    12 A    13 A    14 A    15 A    16 A                  
  0.689   0.705   0.776   0.807   0.858   0.928   0.971   1.006
 17 A    18 A    19 A    20 A    21 A    22 A    23 A    24 A                  
  1.130   1.237   1.241   1.263   1.291   1.593   1.728   1.744
 25 A    26 A    27 A    28 A    29 A    30 A    31 A    32 A                  
  1.811   1.852   1.854   1.901   1.963   1.972   2.224   2.248
 33 A    34 A    35 A    36 A    37 A    38 A    39 A    40 A                  
  2.356   2.423   2.493   2.623   2.679   2.795   3.099   3.369
 41 A    42 A    43 A    44 A    45 A    46 A    47 A    48 A                  
  Import AO data ...  CPU 0.00 s  wall 0.01 s
  Using point group: C1
  Irreducible representations in point group: A
  Molecular orbitals: 
  Occupied MOs:
  Block   0:   1 (  A) A   2 (  A) A   3 (  A) A   4 (  A) A   5 (  A) A
                  -11.24      -11.24       -1.03     -0.7859      -0.635
               6 (  A) A   7 (  A) A   8 (  A) A
                 -0.5823     -0.4995     -0.3744
  Block   1:   1 (  A) B   2 (  A) B   3 (  A) B   4 (  A) B   5 (  A) B
                  -11.24      -11.24       -1.03     -0.7859      -0.635
               6 (  A) B   7 (  A) B   8 (  A) B
                 -0.5823     -0.4995     -0.3744
  Virtual MOs:
  Block   0:   9 (  A) A  10 (  A) A  11 (  A) A  12 (  A) A  13 (  A) A
                  0.1679      0.2026       0.231      0.2364       0.303
              14 (  A) A  15 (  A) A  16 (  A) A  17 (  A) A  18 (  A) A
                  0.4628      0.5798      0.6089      0.6887      0.7048
              19 (  A) A  20 (  A) A  21 (  A) A  22 (  A) A
                  0.7757      0.8074      0.8584       0.928
  Block   1:  23 (  A) A  24 (  A) A  25 (  A) A  26 (  A) A  27 (  A) A
                  0.9706       1.006        1.13       1.237       1.241
              28 (  A) A  29 (  A) A  30 (  A) A  31 (  A) A  32 (  A) A
                   1.263       1.291       1.593       1.728       1.744
              33 (  A) A  34 (  A) A  35 (  A) A  36 (  A) A
                   1.811       1.852       1.854       1.901
  Block   2:  37 (  A) A  38 (  A) A  39 (  A) A  40 (  A) A  41 (  A) A
                   1.963       1.972       2.224       2.248       2.356
              42 (  A) A  43 (  A) A  44 (  A) A  45 (  A) A  46 (  A) A
                   2.423       2.493       2.623       2.679       2.795
              47 (  A) A  48 (  A) A
                   3.099       3.369
  Block   3:   9 (  A) B  10 (  A) B  11 (  A) B  12 (  A) B  13 (  A) B
                  0.1679      0.2026       0.231      0.2364       0.303
              14 (  A) B  15 (  A) B  16 (  A) B  17 (  A) B  18 (  A) B
                  0.4628      0.5798      0.6089      0.6887      0.7048
              19 (  A) B  20 (  A) B  21 (  A) B  22 (  A) B
                  0.7757      0.8074      0.8584       0.928
  Block   4:  23 (  A) B  24 (  A) B  25 (  A) B  26 (  A) B  27 (  A) B
                  0.9706       1.006        1.13       1.237       1.241
              28 (  A) B  29 (  A) B  30 (  A) B  31 (  A) B  32 (  A) B
                   1.263       1.291       1.593       1.728       1.744
              33 (  A) B  34 (  A) B  35 (  A) B  36 (  A) B
                   1.811       1.852       1.854       1.901
  Block   5:  37 (  A) B  38 (  A) B  39 (  A) B  40 (  A) B  41 (  A) B
                   1.963       1.972       2.224       2.248       2.356
              42 (  A) B  43 (  A) B  44 (  A) B  45 (  A) B  46 (  A) B
                   2.423       2.493       2.623       2.679       2.795
              47 (  A) B  48 (  A) B
                   3.099       3.369
  Import MO data ...  CPU 0.02 s  wall 0.01 s
  Import HF data ...  CPU 0.79 s  wall 0.24 s
  Import 2e integrals ...  CPU 1.29 s  wall 0.24 s

--------------------------------------------------------------------------------
                                   HF Summary                                   
--------------------------------------------------------------------------------
  Energy:                                                  -78.0396480032 a.u.
  Dip. moment [a.u.]:                  [  -0.000221,   -0.000140,   -0.000337]
  Total dipole [Debye]:                                               0.001085
  <r^2> [a.u.]:                        [ 175.672881,   35.295855,   11.679924]
  Total <r^2> [a.u.]:                                               222.648660
--------------------------------------------------------------------------------
  HF properties ...  CPU 0.03 s  wall 0.02 s
  MP(1) calculation ...  CPU 0.01 s  wall 0.01 s
  N^6 prerequesite intermediates ...  CPU 0.71 s  wall 0.12 s
  Difference density matrix of state mp2_gs printed to ASCII file 'State_mp2_gs_Difference.txt'
Exporting MP density matrix to file 'Densmat_MP.txt'.
Export successful
  Total density matrix of state mp2_gs printed to ASCII file 'State_mp2_gs_Total.txt'
Exporting MP density matrix to file 'Densmat_MP.txt'.
Export successful

--------------------------------------------------------------------------------
                                 MP(2) Summary                                  
--------------------------------------------------------------------------------
  MP energy contribution:                                   -0.2804886616 a.u.
  Total energy:                                            -78.3201366648 a.u.
  Dip. moment [a.u.]:                  [  -0.000156,   -0.000117,   -0.000329]
  Total dipole [Debye]:                                               0.000971
  <r^2> [a.u.]:                        [ 175.713793,   35.331382,   11.507493]
  Total <r^2> [a.u.]:                                               222.552668

  Density matrix analysis:
  ------------------------
  NOs
    Occupation of frontier NOs:
       0.0455   1.9380
    Number of electrons: 16.000000
    Number of unpaired electrons: n_u =  0.40725, n_u,nl =  0.04580
    NO participation ratio (PR_NO): 13.896586
  
  
  Mulliken Population Analysis
  Atom      Charge (e)              h+              e-           Del q
  --------------------------------------------------------------------
   1 H        0.054908        0.013905       -0.011305        0.002600
   2 C       -0.108603        0.094511       -0.099710       -0.005200
   3 H        0.054792        0.013915       -0.011303        0.002611
   4 C       -0.111284        0.094678       -0.099869       -0.005192
   5 H        0.055207        0.013900       -0.011314        0.002586
   6 H        0.054980        0.013908       -0.011314        0.002594
  --------------------------------------------------------------------
  Sum:        0.000000        0.244816       -0.244816       -0.000000
  
  Multipole moment analysis of the density matrix
    Molecular charge:                      0.000000
    Number of electrons:                   16.000000
      Center of electronic charge [Ang]: [ -1.560409,  -0.067075,   0.002428]
    Total nuclear charge:                  16.000000
      Center of nuclear charge [Ang]:    [ -1.560414,  -0.067079,   0.002417]
    Dipole moment [D]:                     0.000971
      Cartesian components [D]:          [ -0.000398,  -0.000296,  -0.000835]
    RMS size of the density [Ang]:         1.206519
      Cartesian components [Ang]:        [  0.800268,   0.783494,   0.448771]
  
  Exciton analysis of the difference density matrix
    <r_h> [Ang]:                  [ -1.560592,  -0.066679,   0.002494]
    <r_e> [Ang]:                  [ -1.560732,  -0.066730,   0.002475]
    |<r_e - r_h>| [Ang]:            0.000150
    Hole size [Ang]:                1.401655
      Cartesian components [Ang]: [  0.853012,   0.840234,   0.728706]
    Electron size [Ang]:            1.361761
      Cartesian components [Ang]: [  0.879767,   0.864074,   0.577737]
--------------------------------------------------------------------------------
  MP(2) calculation ...  CPU 0.31 s  wall 0.23 s
  Start ADC(2)-s ...  CPU 0.02 s  wall 0.01 s
  ADC(2) intermediates ...  CPU 0.04 s  wall 0.01 s
  Starting Davidson for singlet states of irrep A ... 
--------------------------------------------------------------------------------
   It NVec Conv  Avg. Norm  Max. Norm  Conv. states           Remark
--------------------------------------------------------------------------------
        10    0  1.329e-01  4.687e-01  0.4117 n n n n n n n n Guess.
    1   20    0  2.312e-02  1.125e-01  0.3261 n n n n n n n n 
    2   30    0  5.848e-03  2.465e-02  0.3213 n n n n n n n n 
    3   40    0  1.771e-03  1.052e-02  0.3209 n n n n n n n n 
    4   50    0  5.439e-04  3.563e-03  0.3209 n n n n n n n n 
    5   20    0  2.678e-04  1.836e-03  0.3209 n n n n n n n n Subspace collapsed.
    6   30    0  1.332e-04  9.934e-04  0.3209 n n n n n n n n 
    7   40    0  9.153e-05  8.218e-04  0.3209 n n n n n n n n 
    8   50    0  4.356e-05  3.359e-04  0.3209 n n n n n n n n 
    9   20    1  2.442e-05  1.786e-04  0.3209 n n n y n n n n Subspace collapsed.
   10   30    3  2.113e-05  1.642e-04  0.3209 n n y y y n n n 
   11   40    6  1.208e-05  1.049e-04  0.3209 y y y y y y n n 
   12   50    6  1.678e-05  1.638e-04  0.3209 y y y y y y n n 
   13   20    8  6.598e-06  6.434e-05  0.3209 y y y y y y n y Subspace collapsed.
   14   30    8  5.907e-06  5.790e-05  0.3209 y y y y y y n y 
   15   40    8  5.489e-06  5.445e-05  0.3209 y y y y y y n y 
   16   50    8  7.974e-06  7.966e-05  0.3209 y y y y y y n y 
   17   20    8  3.287e-06  3.282e-05  0.3209 y y y y y y n y Subspace collapsed.
   18   30    8  2.857e-06  2.853e-05  0.3209 y y y y y y n y 
   19   40    9  3.259e-06  3.258e-05  0.3209 y y y y y y y y 
   20   50    9  3.249e-06  3.249e-05  0.3209 y y y y y y y y 
   21   20    9  2.208e-06  2.208e-05  0.3209 y y y y y y y y Subspace collapsed.
   22   30    9  1.645e-06  1.645e-05  0.3209 y y y y y y y y 
   23   40    9  1.497e-06  1.497e-05  0.3209 y y y y y y y y 
   24   42    9  1.485e-06  1.485e-05  0.3209 y y y y y y y y 
   25   44    9  1.468e-06  1.468e-05  0.3209 y y y y y y y y 
   26   45    9  1.459e-06  1.459e-05  0.3209 y y y y y y y y 
   27   45    9  1.459e-06  1.459e-05  0.3209 y y y y y y y y 
   28   50    9  1.451e-06  1.451e-05  0.3209 y y y y y y y y 
   29   15    9  1.054e-06  1.054e-05  0.3209 y y y y y y y y Subspace collapsed.
   30   20    9  1.399e-06  1.399e-05  0.3209 y y y y y y y y 
   31   25    9  1.360e-06  1.360e-05  0.3209 y y y y y y y y 
   32   29    9  1.617e-06  1.617e-05  0.3209 y y y y y y y y 
   33   33    9  9.420e-07  9.420e-06  0.3209 y y y y y y y y 
   34   37    9  5.949e-07  5.949e-06  0.3209 y y y y y y y y 
   35   41    9  3.779e-07  3.779e-06  0.3209 y y y y y y y y 
   36   45    9  2.043e-07  2.043e-06  0.3209 y y y y y y y y 
   37   49   10  9.306e-08  9.306e-07  0.3209 y y y y y y y y Converged.
--------------------------------------------------------------------------------
  Davidson Summary: 
 ------------------------------------------------------------
  State  0: excitation energy =   0.3209 a.u.   (converged)
  State  1: excitation energy =   0.3290 a.u.   (converged)
  State  2: excitation energy =   0.3359 a.u.   (converged)
  State  3: excitation energy =   0.3579 a.u.   (converged)
  State  4: excitation energy =   0.3733 a.u.   (converged)
  State  5: excitation energy =   0.3866 a.u.   (converged)
  State  6: excitation energy =   0.4202 a.u.   (converged)
  State  7: excitation energy =   0.4435 a.u.   (converged)
  State  8: excitation energy =   0.4537 a.u.   (converged)
  State  9: excitation energy =   0.4585 a.u.   (converged)
 ------------------------------------------------------------

  Singlet states of irrep A ...  CPU 218.27 s  wall 70.26 s
  TDMs ...  CPU 2.72 s  wall 0.90 s
  SDMs ...  CPU 4.87 s  wall 1.47 s
  Starting TPA DIIS iterations ... 
------------------------------------ 
   It     Res. Norm  Remark
------------------------------------
                       Guess.
    1     4.401e+00  
    2     5.839e+00  
    3     1.086e+00  
    4     2.631e-01  
    5     6.570e-02  
    6     2.775e-02  
    7     8.475e-03  
    8     1.548e-03  
    9     5.819e-04  
   10     9.763e-05  
   11     3.147e-05  
   12     4.874e-06  
   13     1.643e-06  
   14     4.793e-07  Converged.
   ... Converged in 14 steps (norm: 4.79273e-07)
------------------------------------
  Starting TPA DIIS iterations ... 
------------------------------------ 
   It     Res. Norm  Remark
------------------------------------
                       Guess.
    1     4.183e+00  
    2     5.540e+00  
    3     1.036e+00  
    4     2.617e-01  
    5     6.545e-02  
    6     2.780e-02  
    7     8.336e-03  
    8     1.574e-03  
    9     5.927e-04  
   10     9.743e-05  
   11     3.191e-05  
   12     4.856e-06  
   13     1.675e-06  
   14     4.754e-07  Converged.
   ... Converged in 14 steps (norm: 4.75372e-07)
------------------------------------
  Starting TPA DIIS iterations ... 
------------------------------------ 
   It     Res. Norm  Remark
------------------------------------
                       Guess.
    1     6.855e-01  
    2     4.795e-01  
    3     1.687e-01  
    4     6.397e-02  
    5     1.872e-02  
    6     6.680e-03  
    7     1.073e-03  
    8     4.585e-04  
    9     1.264e-04  
   10     3.088e-05  
   11     5.221e-06  
   12     1.815e-06  
   13     9.269e-07  Converged.
   ... Converged in 13 steps (norm: 9.26914e-07)
------------------------------------
  Starting TPA DIIS iterations ... 
------------------------------------ 
   It     Res. Norm  Remark
------------------------------------
                       Guess.
    1     4.597e+00  
    2     6.191e+00  
    3     1.142e+00  
    4     2.830e-01  
    5     7.138e-02  
    6     3.034e-02  
    7     9.256e-03  
    8     1.690e-03  
    9     6.383e-04  
   10     1.075e-04  
   11     3.489e-05  
   12     5.436e-06  
   13     1.842e-06  
   14     5.359e-07  Converged.
   ... Converged in 14 steps (norm: 5.35941e-07)
------------------------------------
  Starting TPA DIIS iterations ... 
------------------------------------ 
   It     Res. Norm  Remark
------------------------------------
                       Guess.
    1     4.369e+00  
    2     5.873e+00  
    3     1.089e+00  
    4     2.814e-01  
    5     7.111e-02  
    6     3.042e-02  
    7     9.106e-03  
    8     1.719e-03  
    9     6.504e-04  
   10     1.073e-04  
   11     3.537e-05  
   12     5.414e-06  
   13     1.879e-06  
   14     5.314e-07  Converged.
   ... Converged in 14 steps (norm: 5.31352e-07)
------------------------------------
  Starting TPA DIIS iterations ... 
------------------------------------ 
   It     Res. Norm  Remark
------------------------------------
                       Guess.
    1     6.938e-01  
    2     4.913e-01  
    3     1.753e-01  
    4     6.971e-02  
    5     1.969e-02  
    6     7.100e-03  
    7     1.165e-03  
    8     5.139e-04  
    9     1.441e-04  
   10     3.421e-05  
   11     5.697e-06  
   12     2.033e-06  
   13     1.079e-06  
   14     4.004e-07  Converged.
   ... Converged in 14 steps (norm: 4.0036e-07)
------------------------------------
  Starting TPA DIIS iterations ... 
------------------------------------ 
   It     Res. Norm  Remark
------------------------------------
                       Guess.
    1     4.777e+00  
    2     6.517e+00  
    3     1.193e+00  
    4     3.019e-01  
    5     7.674e-02  
    6     3.281e-02  
    7     9.995e-03  
    8     1.823e-03  
    9     6.918e-04  
   10     1.169e-04  
   11     3.817e-05  
   12     5.977e-06  
   13     2.035e-06  
   14     5.904e-07  Converged.
   ... Converged in 14 steps (norm: 5.90449e-07)
------------------------------------
  Starting TPA DIIS iterations ... 
------------------------------------ 
   It     Res. Norm  Remark
------------------------------------
                       Guess.
    1     4.539e+00  
    2     6.183e+00  
    3     1.138e+00  
    4     2.999e-01  
    5     7.645e-02  
    6     3.291e-02  
    7     9.834e-03  
    8     1.856e-03  
    9     7.052e-04  
   10     1.167e-04  
   11     3.869e-05  
   12     5.950e-06  
   13     2.076e-06  
   14     5.852e-07  Converged.
   ... Converged in 14 steps (norm: 5.85212e-07)
------------------------------------
  Starting TPA DIIS iterations ... 
------------------------------------ 
   It     Res. Norm  Remark
------------------------------------
                       Guess.
    1     7.011e-01  
    2     5.018e-01  
    3     1.814e-01  
    4     7.520e-02  
    5     2.057e-02  
    6     7.496e-03  
    7     1.254e-03  
    8     5.681e-04  
    9     1.614e-04  
   10     3.694e-05  
   11     6.141e-06  
   12     2.246e-06  
   13     1.234e-06  
   14     4.508e-07  Converged.
   ... Converged in 14 steps (norm: 4.5077e-07)
------------------------------------
  Starting TPA DIIS iterations ... 
------------------------------------ 
   It     Res. Norm  Remark
------------------------------------
                       Guess.
    1     5.428e+00  
    2     7.728e+00  
    3     1.377e+00  
    4     3.740e-01  
    5     9.725e-02  
    6     4.235e-02  
    7     1.283e-02  
    8     2.334e-03  
    9     8.988e-04  
   10     1.534e-04  
   11     5.112e-05  
   12     8.115e-06  
   13     2.813e-06  
   14     8.072e-07  Converged.
   ... Converged in 14 steps (norm: 8.07168e-07)
------------------------------------
  Starting TPA DIIS iterations ... 
------------------------------------ 
   It     Res. Norm  Remark
------------------------------------
                       Guess.
    1     5.156e+00  
    2     7.331e+00  
    3     1.313e+00  
    4     3.709e-01  
    5     9.692e-02  
    6     4.254e-02  
    7     1.263e-02  
    8     2.381e-03  
    9     9.170e-04  
   10     1.532e-04  
   11     5.174e-05  
   12     8.066e-06  
   13     2.872e-06  
   14     7.996e-07  Converged.
   ... Converged in 14 steps (norm: 7.99624e-07)
------------------------------------
  Starting TPA DIIS iterations ... 
------------------------------------ 
   It     Res. Norm  Remark
------------------------------------
                       Guess.
    1     7.252e-01  
    2     5.381e-01  
    3     2.026e-01  
    4     9.678e-02  
    5     2.374e-02  
    6     9.011e-03  
    7     1.605e-03  
    8     7.858e-04  
    9     2.298e-04  
   10     4.374e-05  
   11     7.826e-06  
   12     3.105e-06  
   13     1.911e-06  
   14     6.606e-07  Converged.
   ... Converged in 14 steps (norm: 6.60561e-07)
------------------------------------
  Starting TPA DIIS iterations ... 
------------------------------------ 
   It     Res. Norm  Remark
------------------------------------
                       Guess.
    1     5.979e+00  
    2     8.787e+00  
    3     1.532e+00  
    4     4.396e-01  
    5     1.159e-01  
    6     5.115e-02  
    7     1.541e-02  
    8     2.797e-03  
    9     1.089e-03  
   10     1.870e-04  
   11     6.328e-05  
   12     1.012e-05  
   13     3.562e-06  
   14     1.015e-06  
   15     3.358e-07  Converged.
   ... Converged in 15 steps (norm: 3.3584e-07)
------------------------------------
  Starting TPA DIIS iterations ... 
------------------------------------ 
   It     Res. Norm  Remark
------------------------------------
                       Guess.
    1     5.677e+00  
    2     8.334e+00  
    3     1.460e+00  
    4     4.353e-01  
    5     1.155e-01  
    6     5.142e-02  
    7     1.517e-02  
    8     2.858e-03  
    9     1.112e-03  
   10     1.868e-04  
   11     6.397e-05  
   12     1.005e-05  
   13     3.636e-06  
   14     1.006e-06  
   15     3.298e-07  Converged.
   ... Converged in 15 steps (norm: 3.29839e-07)
------------------------------------
  Starting TPA DIIS iterations ... 
------------------------------------ 
   It     Res. Norm  Remark
------------------------------------
                       Guess.
    1     7.432e-01  
    2     5.668e-01  
    3     2.200e-01  
    4     1.169e-01  
    5     2.647e-02  
    6     1.039e-02  
    7     1.941e-03  
    8     9.849e-04  
    9     2.906e-04  
   10     4.641e-05  
   11     9.372e-06  
   12     3.926e-06  
   13     2.621e-06  
   14     8.709e-07  Converged.
   ... Converged in 14 steps (norm: 8.70883e-07)
------------------------------------
  Starting TPA DIIS iterations ... 
------------------------------------ 
   It     Res. Norm  Remark
------------------------------------
                       Guess.
    1     6.530e+00  
    2     9.878e+00  
    3     1.686e+00  
    4     5.092e-01  
    5     1.357e-01  
    6     6.057e-02  
    7     1.815e-02  
    8     3.288e-03  
    9     1.293e-03  
   10     2.231e-04  
   11     7.641e-05  
   12     1.229e-05  
   13     4.384e-06  
   14     1.246e-06  
   15     4.176e-07  Converged.
   ... Converged in 15 steps (norm: 4.17578e-07)
------------------------------------
  Starting TPA DIIS iterations ... 
------------------------------------ 
   It     Res. Norm  Remark
------------------------------------
                       Guess.
    1     6.199e+00  
    2     9.368e+00  
    3     1.606e+00  
    4     5.036e-01  
    5     1.352e-01  
    6     6.094e-02  
    7     1.787e-02  
    8     3.363e-03  
    9     1.321e-03  
   10     2.228e-04  
   11     7.715e-05  
   12     1.219e-05  
   13     4.473e-06  
   14     1.236e-06  
   15     4.082e-07  Converged.
   ... Converged in 15 steps (norm: 4.08169e-07)
------------------------------------
  Starting TPA DIIS iterations ... 
------------------------------------ 
   It     Res. Norm  Remark
------------------------------------
                       Guess.
    1     7.594e-01  
    2     5.939e-01  
    3     2.369e-01  
    4     1.386e-01  
    5     2.927e-02  
    6     1.187e-02  
    7     2.314e-03  
    8     1.184e-03  
    9     3.510e-04  
   10     4.776e-05  
   11     1.106e-05  
   12     4.816e-06  
   13     3.447e-06  
   14     1.112e-06  
   15     3.725e-07  Converged.
   ... Converged in 15 steps (norm: 3.72512e-07)
------------------------------------
  Starting TPA DIIS iterations ... 
------------------------------------ 
   It     Res. Norm  Remark
------------------------------------
                       Guess.
    1     8.353e+00  
    2     1.367e+01  
    3     2.186e+00  
    4     7.624e-01  
    5     2.076e-01  
    6     9.557e-02  
    7     2.813e-02  
    8     5.067e-03  
    9     2.047e-03  
   10     3.561e-04  
   11     1.246e-04  
   12     2.037e-05  
   13     7.426e-06  
   14     2.190e-06  
   15     7.359e-07  Converged.
   ... Converged in 15 steps (norm: 7.35888e-07)
------------------------------------
  Starting TPA DIIS iterations ... 
------------------------------------ 
   It     Res. Norm  Remark
------------------------------------
                       Guess.
    1     7.926e+00  
    2     1.297e+01  
    3     2.081e+00  
    4     7.511e-01  
    5     2.071e-01  
    6     9.637e-02  
    7     2.772e-02  
    8     5.200e-03  
    9     2.092e-03  
   10     3.556e-04  
   11     1.254e-04  
   12     2.016e-05  
   13     7.549e-06  
   14     2.176e-06  
   15     7.065e-07  Converged.
   ... Converged in 15 steps (norm: 7.06507e-07)
------------------------------------
  Starting TPA DIIS iterations ... 
------------------------------------ 
   It     Res. Norm  Remark
------------------------------------
                       Guess.
    1     8.039e-01  
    2     6.752e-01  
    3     2.897e-01  
    4     2.171e-01  
    5     3.914e-02  
    6     1.722e-02  
    7     3.775e-03  
    8     1.727e-03  
    9     5.365e-04  
   10     5.521e-05  
   11     1.767e-05  
   12     8.038e-06  
   13     6.769e-06  
   14     2.126e-06  
   15     6.907e-07  Converged.
   ... Converged in 15 steps (norm: 6.90742e-07)
------------------------------------
  Starting TPA DIIS iterations ... 
------------------------------------ 
   It     Res. Norm  Remark
------------------------------------
                       Guess.
    1     1.015e+01  
    2     1.768e+01  
    3     2.669e+00  
    4     1.040e+00  
    5     2.873e-01  
    6     1.352e-01  
    7     3.918e-02  
    8     7.027e-03  
    9     2.896e-03  
   10     5.051e-04  
   11     1.762e-04  
   12     2.959e-05  
   13     1.070e-05  
   14     3.394e-06  
   15     1.167e-06  
   16     2.520e-07  Converged.
   ... Converged in 16 steps (norm: 2.52041e-07)
------------------------------------
  Starting TPA DIIS iterations ... 
------------------------------------ 
   It     Res. Norm  Remark
------------------------------------
                       Guess.
    1     9.632e+00  
    2     1.677e+01  
    3     2.539e+00  
    4     1.022e+00  
    5     2.866e-01  
    6     1.366e-01  
    7     3.864e-02  
    8     7.228e-03  
    9     2.961e-03  
   10     5.043e-04  
   11     1.770e-04  
   12     2.928e-05  
   13     1.084e-05  
   14     3.364e-06  
   15     1.108e-06  
   16     2.528e-07  Converged.
   ... Converged in 16 steps (norm: 2.52793e-07)
------------------------------------
  Starting TPA DIIS iterations ... 
------------------------------------ 
   It     Res. Norm  Remark
------------------------------------
                       Guess.
    1     8.386e-01  
    2     7.462e-01  
    3     3.383e-01  
    4     2.973e-01  
    5     4.968e-02  
    6     2.291e-02  
    7     5.480e-03  
    8     2.026e-03  
    9     6.999e-04  
   10     7.238e-05  
   11     2.560e-05  
   12     1.137e-05  
   13     1.050e-05  
   14     3.477e-06  
   15     1.275e-06  
   16     1.040e-06  
   17     5.397e-07  Converged.
   ... Converged in 17 steps (norm: 5.39657e-07)
------------------------------------
  Starting TPA DIIS iterations ... 
------------------------------------ 
   It     Res. Norm  Remark
------------------------------------
                       Guess.
    1     1.115e+01  
    2     1.999e+01  
    3     2.930e+00  
    4     1.202e+00  
    5     3.342e-01  
    6     1.590e-01  
    7     4.570e-02  
    8     8.180e-03  
    9     3.402e-03  
   10     5.933e-04  
   11     2.055e-04  
   12     3.524e-05  
   13     1.265e-05  
   14     4.161e-06  
   15     1.504e-06  
   16     3.244e-07  Converged.
   ... Converged in 16 steps (norm: 3.24376e-07)
------------------------------------
  Starting TPA DIIS iterations ... 
------------------------------------ 
   It     Res. Norm  Remark
------------------------------------
                       Guess.
    1     1.057e+01  
    2     1.896e+01  
    3     2.786e+00  
    4     1.179e+00  
    5     3.334e-01  
    6     1.606e-01  
    7     4.507e-02  
    8     8.422e-03  
    9     3.479e-03  
   10     5.922e-04  
   11     2.064e-04  
   12     3.488e-05  
   13     1.280e-05  
   14     4.114e-06  
   15     1.426e-06  
   16     3.195e-07  Converged.
   ... Converged in 16 steps (norm: 3.19451e-07)
------------------------------------
  Starting TPA DIIS iterations ... 
------------------------------------ 
   It     Res. Norm  Remark
------------------------------------
                       Guess.
    1     8.549e-01  
    2     7.826e-01  
    3     3.638e-01  
    4     3.395e-01  
    5     5.573e-02  
    6     2.608e-02  
    7     6.493e-03  
    8     2.114e-03  
    9     7.846e-04  
   10     8.428e-05  
   11     3.048e-05  
   12     1.324e-05  
   13     1.264e-05  
   14     4.380e-06  
   15     1.788e-06  
   16     1.420e-06  
   17     7.798e-07  Converged.
   ... Converged in 17 steps (norm: 7.79809e-07)
------------------------------------
  Starting TPA DIIS iterations ... 
------------------------------------ 
   It     Res. Norm  Remark
------------------------------------
                       Guess.
    1     1.166e+01  
    2     2.122e+01  
    3     3.064e+00  
    4     1.288e+00  
    5     3.594e-01  
    6     1.718e-01  
    7     4.920e-02  
    8     8.798e-03  
    9     3.675e-03  
   10     6.407e-04  
   11     2.210e-04  
   12     3.836e-05  
   13     1.372e-05  
   14     4.587e-06  
   15     1.715e-06  
   16     3.687e-07  Converged.
   ... Converged in 16 steps (norm: 3.68711e-07)
------------------------------------
  Starting TPA DIIS iterations ... 
------------------------------------ 
   It     Res. Norm  Remark
------------------------------------
                       Guess.
    1     1.106e+01  
    2     2.012e+01  
    3     2.914e+00  
    4     1.263e+00  
    5     3.586e-01  
    6     1.737e-01  
    7     4.853e-02  
    8     9.062e-03  
    9     3.758e-03  
   10     6.394e-04  
   11     2.220e-04  
   12     3.796e-05  
   13     1.389e-05  
   14     4.529e-06  
   15     1.625e-06  
   16     3.567e-07  Converged.
   ... Converged in 16 steps (norm: 3.56748e-07)
------------------------------------
  Starting TPA DIIS iterations ... 
------------------------------------ 
   It     Res. Norm  Remark
------------------------------------
                       Guess.
    1     8.629e-01  
    2     8.008e-01  
    3     3.767e-01  
    4     3.604e-01  
    5     5.892e-02  
    6     2.770e-02  
    7     7.034e-03  
    8     2.146e-03  
    9     8.275e-04  
   10     9.079e-05  
   11     3.314e-05  
   12     1.424e-05  
   13     1.380e-05  
   14     4.898e-06  
   15     2.115e-06  
   16     1.644e-06  
   17     9.239e-07  Converged.
   ... Converged in 17 steps (norm: 9.23854e-07)
------------------------------------
  Two-photon absorbption ...  CPU 153.97 s  wall 42.77 s
  Transition density matrix of state singlet_A_1 printed to ASCII file 'State_singlet_A_1_Transition.txt'
  Transition density matrix of state singlet_A_2 printed to ASCII file 'State_singlet_A_2_Transition.txt'
  Transition density matrix of state singlet_A_3 printed to ASCII file 'State_singlet_A_3_Transition.txt'
  Transition density matrix of state singlet_A_4 printed to ASCII file 'State_singlet_A_4_Transition.txt'
  Transition density matrix of state singlet_A_5 printed to ASCII file 'State_singlet_A_5_Transition.txt'
  Transition density matrix of state singlet_A_6 printed to ASCII file 'State_singlet_A_6_Transition.txt'
  Transition density matrix of state singlet_A_7 printed to ASCII file 'State_singlet_A_7_Transition.txt'
  Transition density matrix of state singlet_A_8 printed to ASCII file 'State_singlet_A_8_Transition.txt'
  Transition density matrix of state singlet_A_9 printed to ASCII file 'State_singlet_A_9_Transition.txt'
  Transition density matrix of state singlet_A_10 printed to ASCII file 'State_singlet_A_10_Transition.txt'
  Transition properties ...  CPU 0.37 s  wall 0.63 s
  Difference density matrix of state singlet_A_1 printed to ASCII file 'State_singlet_A_1_Difference.txt'
  Total density matrix of state singlet_A_1 printed to ASCII file 'State_singlet_A_1_Total.txt'
  Difference density matrix of state singlet_A_2 printed to ASCII file 'State_singlet_A_2_Difference.txt'
  Total density matrix of state singlet_A_2 printed to ASCII file 'State_singlet_A_2_Total.txt'
  Difference density matrix of state singlet_A_3 printed to ASCII file 'State_singlet_A_3_Difference.txt'
  Total density matrix of state singlet_A_3 printed to ASCII file 'State_singlet_A_3_Total.txt'
  Difference density matrix of state singlet_A_4 printed to ASCII file 'State_singlet_A_4_Difference.txt'
  Total density matrix of state singlet_A_4 printed to ASCII file 'State_singlet_A_4_Total.txt'
  Difference density matrix of state singlet_A_5 printed to ASCII file 'State_singlet_A_5_Difference.txt'
  Total density matrix of state singlet_A_5 printed to ASCII file 'State_singlet_A_5_Total.txt'
  Difference density matrix of state singlet_A_6 printed to ASCII file 'State_singlet_A_6_Difference.txt'
  Total density matrix of state singlet_A_6 printed to ASCII file 'State_singlet_A_6_Total.txt'
  Difference density matrix of state singlet_A_7 printed to ASCII file 'State_singlet_A_7_Difference.txt'
  Total density matrix of state singlet_A_7 printed to ASCII file 'State_singlet_A_7_Total.txt'
  Difference density matrix of state singlet_A_8 printed to ASCII file 'State_singlet_A_8_Difference.txt'
  Total density matrix of state singlet_A_8 printed to ASCII file 'State_singlet_A_8_Total.txt'
  Difference density matrix of state singlet_A_9 printed to ASCII file 'State_singlet_A_9_Difference.txt'
  Total density matrix of state singlet_A_9 printed to ASCII file 'State_singlet_A_9_Total.txt'
  Difference density matrix of state singlet_A_10 printed to ASCII file 'State_singlet_A_10_Difference.txt'
  Total density matrix of state singlet_A_10 printed to ASCII file 'State_singlet_A_10_Total.txt'
  Properties ...  CPU 0.78 s  wall 1.10 s
  ISR TDMS ...  CPU 29.13 s  wall 9.31 s
  ISR transition properties ...  CPU 0.61 s  wall 0.30 s
  Sum-over-states TPA ...  CPU 0.00 s  wall 0.00 s

--------------------------------------------------------------------------------
                   State-averaged natural transition orbitals
--------------------------------------------------------------------------------
--------------------------------------------------------------------------------
  SA-NTO decomposition ...  CPU 0.01 s  wall 0.04 s

--------------------------------------------------------------------------------
                             Excited State Summary
--------------------------------------------------------------------------------
--------------------------------------------------------------------------------

  Excited state 1 (singlet, A)                                     [converged]
  ----------------------------------------------------------------------------
  Term symbol:  2 (1) A                                     R^2 =  7.46217e-14

  Total energy:                                            -77.9992484374 a.u.
  Excitation energy:                                               8.731813 eV

  Osc. strength:                                                      0.446207
  Trans. dip. moment [a.u.]:           [  -1.047608,    0.994097,    0.009801]
  <i|r^2|0> [a.u.]:                    [  -6.177608,    0.251074,   -0.000358]
  Two-photon absorption cross-section (SoS) [a.u.]:                   0.000362
  Two-photon absorption matrix (SoS) [a.u.]:
                                       |   -0.002416   -0.003952   -0.000810 |
                                       |   -0.003952   -0.005490   -0.000390 |
                                       |   -0.000810   -0.000390    0.001886 |
  Two-photon absorption cross-section [a.u.]:                         0.000208
  Two-photon absorption matrix [a.u.]:
                                       |    0.003629   -0.001529   -0.000424 |
                                       |   -0.001529    0.000162    0.000548 |
                                       |   -0.000424    0.000548    0.003079 |

  Dip. moment [a.u.]:                  [  -0.000057,   -0.000135,   -0.000394]
  Total dipole [Debye]:                                               0.001068
  <r^2> [a.u.]:                        [ 176.462230,   36.016456,   11.918485]
  Total <r^2> [a.u.]:                                               224.397171

  V1^2 = 0.9713, V2^2 = 0.0287

  Important amplitudes:
      occ i     occ j     vir a      vir b          v   
    -----------------------------------------------------
     8 (A) A              9 (A) A                -0.6809
     6 (A) A             14 (A) A                -0.0617
     4 (A) A             10 (A) A                -0.0614
     7 (A) A             16 (A) A                -0.0575
     5 (A) A             13 (A) A                 0.0527
     6 (A) A             23 (A) A                -0.0485
     8 (A) A             20 (A) A                -0.0348
     6 (A) A             19 (A) A                 0.0302
     3 (A) A             12 (A) A                 0.0285
     5 (A) A             22 (A) A                 0.0218
     4 (A) A             24 (A) A                -0.0188
     3 (A) A             26 (A) A                 0.0187
     7 (A) A             11 (A) A                 0.0186
     8 (A) A   8 (A) B   17 (A) A   20 (A) B      0.0184
     8 (A) A   8 (A) B    9 (A) A   28 (A) B      0.0168
     6 (A) A             26 (A) A                -0.0163
     7 (A) A             21 (A) A                -0.0152
     3 (A) A             14 (A) A                 0.0143
     6 (A) A             12 (A) A                 0.0136
     3 (A) A   4 (A) B    9 (A) A    9 (A) B      0.0129
     3 (A) A             19 (A) A                -0.0121
     8 (A) A   8 (A) B   18 (A) A   19 (A) B      0.0111
     7 (A) A             32 (A) A                -0.0097
     7 (A) A             36 (A) A                -0.0086
     3 (A) A             23 (A) A                 0.0082
     8 (A) A   8 (A) B   25 (A) A   29 (A) B     -0.0076
     6 (A) A             35 (A) A                 0.0069
     6 (A) A             40 (A) A                -0.0067
     3 (A) A   6 (A) B    9 (A) A   28 (A) B     -0.0065
     5 (A) A   8 (A) B   11 (A) A    9 (A) B      0.0062
     7 (A) A   8 (A) B   13 (A) A   20 (A) B     -0.0060
     5 (A) A   8 (A) B   11 (A) A   20 (A) B     -0.0060
     5 (A) A   7 (A) B    9 (A) A    9 (A) B      0.0060
     6 (A) A   8 (A) A   19 (A) A   28 (A) A      0.0060
     5 (A) A             27 (A) A                 0.0060
     5 (A) A   8 (A) B   16 (A) A    9 (A) B      0.0059
     3 (A) A   5 (A) B    9 (A) A   25 (A) B      0.0058
     7 (A) A   8 (A) B   22 (A) A   20 (A) B     -0.0057
     3 (A) A             40 (A) A                 0.0056
     8 (A) A   8 (A) B   19 (A) A   30 (A) B      0.0056
    -----------------------------------------------------

  Density matrix analysis:
  ------------------------
  NOs
    Occupation of frontier NOs:
       0.9491   1.0219
    Number of electrons: 16.000000
    Number of unpaired electrons: n_u =  2.31678, n_u,nl =  2.03329
    NO participation ratio (PR_NO):  2.874066
  
  
  Mulliken Population Analysis
  Atom      Charge (e)              h+              e-           Del q
  --------------------------------------------------------------------
   1 H        0.062921        0.020438       -0.012425        0.008013
   2 C       -0.124511        0.490701       -0.506609       -0.015908
   3 H        0.062778        0.020422       -0.012436        0.007986
   4 C       -0.127454        0.490630       -0.506800       -0.016171
   5 H        0.063245        0.020448       -0.012409        0.008038
   6 H        0.063021        0.020445       -0.012403        0.008041
  --------------------------------------------------------------------
  Sum:        0.000000        1.063083       -1.063083       -0.000000
  
  Multipole moment analysis of the density matrix
    Molecular charge:                      -0.000000
    Number of electrons:                   16.000000
      Center of electronic charge [Ang]: [ -1.560412,  -0.067074,   0.002430]
    Total nuclear charge:                  16.000000
      Center of nuclear charge [Ang]:    [ -1.560414,  -0.067079,   0.002417]
    Dipole moment [D]:                     0.001068
      Cartesian components [D]:          [ -0.000145,  -0.000344,  -0.001001]
    RMS size of the density [Ang]:         1.219819
      Cartesian components [Ang]:        [  0.808404,   0.791109,   0.456715]
  
  Exciton analysis of the difference density matrix
    <r_h> [Ang]:                  [ -1.560260,  -0.067353,   0.002574]
    <r_e> [Ang]:                  [ -1.560310,  -0.067344,   0.002607]
    |<r_e - r_h>| [Ang]:            0.000060
    Hole size [Ang]:                1.287297
      Cartesian components [Ang]: [  0.730382,   0.714576,   0.782980]
    Electron size [Ang]:            1.463845
      Cartesian components [Ang]: [  0.854663,   0.831310,   0.849304]

  Transition density matrix analysis:
  -----------------------------------
  
  CT numbers (Mulliken)
    omega =     0.9532
    <Phe> =    -0.1603
  
  Exciton analysis of the transition density matrix
    Trans. dipole moment [D]:             1.835436
      Cartesian components [D]:         [ -1.331377,   1.263371,   0.012455]
    <r_h> [Ang]:                        [ -1.560138,  -0.067509,   0.002541]
    <r_e> [Ang]:                        [ -1.560323,  -0.067319,   0.002634]
    |<r_e - r_h>| [Ang]:                  0.000281
    Hole size [Ang]:                      1.214402
      Cartesian components [Ang]:       [  0.650102,   0.636857,   0.804086]
    Electron size [Ang]:                  1.486740
      Cartesian components [Ang]:       [  0.865147,   0.840162,   0.869508]
    RMS electron-hole separation [Ang]:   1.937164
      Cartesian components [Ang]:       [  1.107262,   1.075750,   1.170186]
    Covariance(r_h, r_e) [Ang^2]:        -0.033718
    Correlation coefficient:             -0.018675
    Center-of-mass size [Ang]:            0.951017
      Cartesian components [Ang]:       [  0.528250,   0.516158,   0.599137]

  Decomposition into state-averaged NTOs
    H- 0 -> L+ 0:  0.6697 ( 89.7%)
    H- 2 -> L+ 5:  0.0830 (  1.4%)
                   omega =  95.3%
  ----------------------------------------------------------------------------


  Excited state 2 (singlet, A)                                     [converged]
  ----------------------------------------------------------------------------
  Term symbol:  3 (1) A                                     R^2 =  1.68832e-13

  Total energy:                                            -77.9911420206 a.u.
  Excitation energy:                                               8.952400 eV

  Osc. strength:                                                      0.000001
  Trans. dip. moment [a.u.]:           [   0.000290,   -0.000808,    0.001986]
  <i|r^2|0> [a.u.]:                    [   0.066732,    0.086872,   -0.152113]
  Two-photon absorption cross-section (SoS) [a.u.]:                   4.565018
  Two-photon absorption matrix (SoS) [a.u.]:
                                       |    0.049207    0.057079   -0.512836 |
                                       |    0.057079    0.065735   -0.542581 |
                                       |   -0.512836   -0.542581   -0.114918 |
  Two-photon absorption cross-section [a.u.]:                         0.172618
  Two-photon absorption matrix [a.u.]:
                                       |   -0.009372   -0.011063    0.096749 |
                                       |   -0.011063   -0.013000    0.108237 |
                                       |    0.096749    0.108237    0.022396 |

  Dip. moment [a.u.]:                  [  -0.009157,    0.005409,   -0.000825]
  Total dipole [Debye]:                                               0.027113
  <r^2> [a.u.]:                        [ 174.756520,   34.352550,   13.214560]
  Total <r^2> [a.u.]:                                               222.323631

  V1^2 = 0.9541, V2^2 = 0.0459

  Important amplitudes:
      occ i     occ j     vir a      vir b          v   
    -----------------------------------------------------
     7 (A) A              9 (A) A                -0.6685
     8 (A) A             11 (A) A                 0.1513
     7 (A) A             20 (A) A                -0.0756
     5 (A) A   8 (A) B    9 (A) A    9 (A) B      0.0315
     8 (A) A             16 (A) A                 0.0281
     8 (A) A             21 (A) A                -0.0178
     5 (A) A             28 (A) A                 0.0150
     4 (A) A   7 (A) B    9 (A) A   19 (A) B      0.0136
     5 (A) A   7 (A) B    9 (A) A   16 (A) B     -0.0134
     7 (A) A   8 (A) B   20 (A) A   17 (A) B      0.0106
     7 (A) A   8 (A) A    9 (A) A   28 (A) A     -0.0098
     5 (A) A   8 (A) B    9 (A) A   20 (A) B      0.0094
     4 (A) A   6 (A) B    9 (A) A   16 (A) B     -0.0091
     5 (A) A   6 (A) A    9 (A) A   23 (A) A     -0.0090
     5 (A) A   6 (A) A    9 (A) A   14 (A) A     -0.0089
     5 (A) A   6 (A) B    9 (A) A   19 (A) B      0.0086
     8 (A) A   7 (A) B    9 (A) A   28 (A) B      0.0085
     6 (A) A   7 (A) B    9 (A) A   18 (A) B     -0.0085
     4 (A) A   5 (A) A    9 (A) A   10 (A) A      0.0085
     5 (A) A   6 (A) B    9 (A) A   23 (A) B     -0.0080
     3 (A) A   7 (A) B    9 (A) A   18 (A) B     -0.0080
     5 (A) A   7 (A) A    9 (A) A   16 (A) A     -0.0078
     4 (A) A   8 (A) B    9 (A) A   25 (A) B      0.0076
     4 (A) A   7 (A) B   19 (A) A    9 (A) B      0.0075
     7 (A) A   8 (A) B   17 (A) A   20 (A) B      0.0074
     5 (A) A   5 (A) B    9 (A) A   13 (A) B      0.0073
     7 (A) A   8 (A) B   19 (A) A   18 (A) B      0.0071
     4 (A) A   5 (A) B    9 (A) A   18 (A) B     -0.0069
     5 (A) A   8 (A) A    9 (A) A   20 (A) A      0.0068
     7 (A) A   7 (A) B   20 (A) A   22 (A) B     -0.0066
     7 (A) A   8 (A) B   17 (A) A    9 (A) B      0.0065
     5 (A) A   6 (A) B    9 (A) A   14 (A) B     -0.0063
     5 (A) A   7 (A) B   11 (A) A   20 (A) B     -0.0062
     4 (A) A   5 (A) B   10 (A) A    9 (A) B     -0.0061
     4 (A) A   7 (A) A    9 (A) A   19 (A) A      0.0061
     5 (A) A             38 (A) A                 0.0060
     4 (A) A   6 (A) B   16 (A) A    9 (A) B     -0.0058
     4 (A) A   8 (A) A    9 (A) A   25 (A) A      0.0057
     6 (A) A   7 (A) A   19 (A) A   28 (A) A      0.0056
     5 (A) A   7 (A) A   11 (A) A   20 (A) A     -0.0054
    -----------------------------------------------------

  Density matrix analysis:
  ------------------------
  NOs
    Occupation of frontier NOs:
       0.9560   1.0553
    Number of electrons: 16.000000
    Number of unpaired electrons: n_u =  2.35842, n_u,nl =  2.06491
    NO participation ratio (PR_NO):  3.045484
  
  
  Mulliken Population Analysis
  Atom      Charge (e)              h+              e-           Del q
  --------------------------------------------------------------------
   1 H        0.153235        0.123721       -0.025393        0.098327
   2 C       -0.309044        0.271187       -0.471628       -0.200441
   3 H        0.154840        0.124335       -0.024287        0.100048
   4 C       -0.311224        0.273988       -0.473928       -0.199941
   5 H        0.156346        0.126617       -0.025478        0.101139
   6 H        0.155847        0.124927       -0.024061        0.100867
  --------------------------------------------------------------------
  Sum:        0.000000        1.044775       -1.044775        0.000000
  
  Multipole moment analysis of the density matrix
    Molecular charge:                      0.000000
    Number of electrons:                   16.000000
      Center of electronic charge [Ang]: [ -1.560111,  -0.067258,   0.002444]
    Total nuclear charge:                  16.000000
      Center of nuclear charge [Ang]:    [ -1.560414,  -0.067079,   0.002417]
    Dipole moment [D]:                     0.027113
      Cartesian components [D]:          [ -0.023274,   0.013749,  -0.002096]
    RMS size of the density [Ang]:         1.205232
      Cartesian components [Ang]:        [  0.790319,   0.772468,   0.480908]
  
  Exciton analysis of the difference density matrix
    <r_h> [Ang]:                  [ -1.564086,  -0.061872,   0.002518]
    <r_e> [Ang]:                  [ -1.559528,  -0.064670,   0.002769]
    |<r_e - r_h>| [Ang]:            0.005355
    Hole size [Ang]:                1.496138
      Cartesian components [Ang]: [  1.012195,   1.002974,   0.455997]
    Electron size [Ang]:            1.480177
      Cartesian components [Ang]: [  0.884422,   0.862119,   0.815765]

  Transition density matrix analysis:
  -----------------------------------
  
  CT numbers (Mulliken)
    omega =     0.9214
    <Phe> =    -0.0114
  
  Exciton analysis of the transition density matrix
    Trans. dipole moment [D]:             0.002749
      Cartesian components [D]:         [  0.000369,  -0.001027,   0.002523]
    <r_h> [Ang]:                        [ -1.564792,  -0.061106,   0.002485]
    <r_e> [Ang]:                        [ -1.558907,  -0.065155,   0.002818]
    |<r_e - r_h>| [Ang]:                  0.007152
    Hole size [Ang]:                      1.527070
      Cartesian components [Ang]:       [  1.036786,   1.027950,   0.447589]
    Electron size [Ang]:                  1.475589
      Cartesian components [Ang]:       [  0.873418,   0.850236,   0.831626]
    RMS electron-hole separation [Ang]:   2.103555
      Cartesian components [Ang]:       [  1.339636,   1.319030,   0.943653]
    Covariance(r_h, r_e) [Ang^2]:         0.042205
    Correlation coefficient:              0.018730
    Center-of-mass size [Ang]:            1.071648
      Cartesian components [Ang]:       [  0.685744,   0.674415,   0.472598]

  Decomposition into state-averaged NTOs
    H- 1 -> L+ 0: -0.6608 ( 87.3%)
    H- 0 -> L+ 2: -0.1513 (  4.6%)
                   omega =  92.1%
  ----------------------------------------------------------------------------


  Excited state 3 (singlet, A)                                     [converged]
  ----------------------------------------------------------------------------
  Term symbol:  4 (1) A                                     R^2 =  1.65076e-13

  Total energy:                                            -77.9841874329 a.u.
  Excitation energy:                                               9.141644 eV

  Osc. strength:                                                      0.023578
  Trans. dip. moment [a.u.]:           [   0.015469,    0.019437,   -0.323511]
  <i|r^2|0> [a.u.]:                    [   0.091667,    0.005648,    0.002133]
  Two-photon absorption cross-section (SoS) [a.u.]:                   0.001074
  Two-photon absorption matrix (SoS) [a.u.]:
                                       |   -0.002140   -0.000596    0.002181 |
                                       |   -0.000596   -0.000436    0.011051 |
                                       |    0.002181    0.011051   -0.001292 |
  Two-photon absorption cross-section [a.u.]:                         0.000983
  Two-photon absorption matrix [a.u.]:
                                       |   -0.002780   -0.000114    0.001863 |
                                       |   -0.000114   -0.001759    0.010402 |
                                       |    0.001863    0.010402   -0.000277 |

  Dip. moment [a.u.]:                  [  -0.000903,   -0.019179,   -0.000778]
  Total dipole [Debye]:                                               0.048841
  <r^2> [a.u.]:                        [ 181.229737,   41.006390,   11.056458]
  Total <r^2> [a.u.]:                                               233.292585

  V1^2 = 0.9580, V2^2 = 0.0420

  Important amplitudes:
      occ i     occ j     vir a      vir b          v   
    -----------------------------------------------------
     8 (A) A             10 (A) A                 0.6887
     8 (A) A             24 (A) A                 0.0508
     8 (A) A             18 (A) A                -0.0332
     4 (A) A              9 (A) A                 0.0247
     8 (A) A   8 (A) B    9 (A) A   12 (A) B     -0.0223
     8 (A) A   8 (A) B   10 (A) A   17 (A) B      0.0172
     5 (A) A   8 (A) B   11 (A) A   10 (A) B     -0.0169
     8 (A) A             15 (A) A                 0.0149
     7 (A) A   8 (A) B   13 (A) A   10 (A) B     -0.0143
     4 (A) A   8 (A) B   12 (A) A   10 (A) B     -0.0113
     6 (A) A   8 (A) A   10 (A) A   15 (A) A      0.0112
     7 (A) A   8 (A) B   22 (A) A   10 (A) B     -0.0109
     6 (A) A   8 (A) B   15 (A) A   10 (A) B     -0.0109
     4 (A) A   8 (A) A   10 (A) A   12 (A) A      0.0108
     7 (A) A   8 (A) A   10 (A) A   22 (A) A      0.0099
     7 (A) A   8 (A) A   10 (A) A   13 (A) A      0.0098
     5 (A) A   8 (A) A   10 (A) A   11 (A) A      0.0097
     5 (A) A   8 (A) B   21 (A) A   10 (A) B      0.0094
     6 (A) A   8 (A) B   10 (A) A   10 (A) B      0.0090
     6 (A) A   8 (A) A   10 (A) A   18 (A) A      0.0086
     7 (A) A   8 (A) A   12 (A) A   16 (A) A     -0.0084
     3 (A) A   4 (A) B   10 (A) A    9 (A) B     -0.0080
     5 (A) A   8 (A) A   10 (A) A   21 (A) A     -0.0079
     4 (A) A   8 (A) B   19 (A) A   10 (A) B      0.0076
     8 (A) A   8 (A) B    9 (A) A   23 (A) B      0.0075
     8 (A) A   8 (A) B   10 (A) A   28 (A) B     -0.0074
     5 (A) A   8 (A) B   10 (A) A   11 (A) B     -0.0072
     7 (A) A   8 (A) B   16 (A) A   12 (A) B      0.0072
     3 (A) A   8 (A) A   10 (A) A   24 (A) A     -0.0072
     3 (A) A   8 (A) B   10 (A) A   10 (A) B      0.0071
     8 (A) A   8 (A) B    9 (A) A   19 (A) B      0.0070
     3 (A) A   8 (A) B   10 (A) A   18 (A) B     -0.0068
     6 (A) A   8 (A) B   18 (A) A   10 (A) B     -0.0065
     3 (A) A   6 (A) B   10 (A) A   28 (A) B      0.0062
     7 (A) A   8 (A) B   12 (A) A   11 (A) B      0.0059
     6 (A) A             28 (A) A                -0.0058
     5 (A) A   8 (A) A   10 (A) A   16 (A) A      0.0057
     3 (A) A   5 (A) B   10 (A) A   25 (A) B     -0.0056
     6 (A) A   8 (A) A   11 (A) A   16 (A) A     -0.0055
     4 (A) A   8 (A) A   10 (A) A   23 (A) A     -0.0055
    -----------------------------------------------------

  Density matrix analysis:
  ------------------------
  NOs
    Occupation of frontier NOs:
       0.9812   0.9846
    Number of electrons: 16.000000
    Number of unpaired electrons: n_u =  2.28870, n_u,nl =  2.02506
    NO participation ratio (PR_NO):  2.701368
  
  
  Mulliken Population Analysis
  Atom      Charge (e)              h+              e-           Del q
  --------------------------------------------------------------------
   1 H       -0.155505        0.054277       -0.264690       -0.210413
   2 C        0.310821        0.537428       -0.118004        0.419424
   3 H       -0.152550        0.054411       -0.261753       -0.207342
   4 C        0.309468        0.538673       -0.117922        0.420751
   5 H       -0.157719        0.054328       -0.267254       -0.212925
   6 H       -0.154515        0.054405       -0.263900       -0.209495
  --------------------------------------------------------------------
  Sum:        0.000000        1.293523       -1.293523       -0.000000
  
  Multipole moment analysis of the density matrix
    Molecular charge:                      0.000000
    Number of electrons:                   16.000000
      Center of electronic charge [Ang]: [ -1.560384,  -0.066444,   0.002443]
    Total nuclear charge:                  16.000000
      Center of nuclear charge [Ang]:    [ -1.560414,  -0.067079,   0.002417]
    Dipole moment [D]:                     0.048841
      Cartesian components [D]:          [ -0.002296,  -0.048747,  -0.001978]
    RMS size of the density [Ang]:         1.282114
      Cartesian components [Ang]:        [  0.858513,   0.844553,   0.439888]
  
  Exciton analysis of the difference density matrix
    <r_h> [Ang]:                  [ -1.560807,  -0.066582,   0.002524]
    <r_e> [Ang]:                  [ -1.560501,  -0.058783,   0.002708]
    |<r_e - r_h>| [Ang]:            0.007806
    Hole size [Ang]:                1.412907
      Cartesian components [Ang]: [  0.836696,   0.822549,   0.787186]
    Electron size [Ang]:            2.079248
      Cartesian components [Ang]: [  1.376639,   1.380623,   0.722508]

  Transition density matrix analysis:
  -----------------------------------
  
  CT numbers (Mulliken)
    omega =     0.9250
    <Phe> =    -0.0109
  
  Exciton analysis of the transition density matrix
    Trans. dipole moment [D]:             0.412352
      Cartesian components [D]:         [  0.019659,   0.024702,  -0.411142]
    <r_h> [Ang]:                        [ -1.560420,  -0.067687,   0.002562]
    <r_e> [Ang]:                        [ -1.560438,  -0.056027,   0.002796]
    |<r_e - r_h>| [Ang]:                  0.011662
    Hole size [Ang]:                      1.212763
      Cartesian components [Ang]:       [  0.636511,   0.623534,   0.822711]
    Electron size [Ang]:                  2.301734
      Cartesian components [Ang]:       [  1.522967,   1.529820,   0.798873]
    RMS electron-hole separation [Ang]:   2.591613
      Cartesian components [Ang]:       [  1.642978,   1.644913,   1.145138]
    Covariance(r_h, r_e) [Ang^2]:         0.026226
    Correlation coefficient:              0.009395
    Center-of-mass size [Ang]:            1.305874
      Cartesian components [Ang]:       [  0.829122,   0.829561,   0.574187]

  Decomposition into state-averaged NTOs
    H- 0 -> L+ 1:  0.6794 ( 92.3%)
                   omega =  92.5%
  ----------------------------------------------------------------------------


  Excited state 4 (singlet, A)                                     [converged]
  ----------------------------------------------------------------------------
  Term symbol:  5 (1) A                                     R^2 =  3.31879e-13

  Total energy:                                            -77.9622626684 a.u.
  Excitation energy:                                               9.738247 eV

  Osc. strength:                                                      0.000001
  Trans. dip. moment [a.u.]:           [  -0.000035,    0.000317,   -0.002212]
  <i|r^2|0> [a.u.]:                    [   0.013524,    0.018162,   -0.031789]
  Two-photon absorption cross-section (SoS) [a.u.]:                 134.676014
  Two-photon absorption matrix (SoS) [a.u.]:
                                       |    0.267921    0.310154   -2.792287 |
                                       |    0.310154    0.356191   -2.940637 |
                                       |   -2.792287   -2.940637   -0.624130 |
  Two-photon absorption cross-section [a.u.]:                        80.037164
  Two-photon absorption matrix [a.u.]:
                                       |    0.206228    0.239060   -2.150035 |
                                       |    0.239060    0.274937   -2.269365 |
                                       |   -2.150035   -2.269365   -0.481189 |

  Dip. moment [a.u.]:                  [   0.016807,    0.011032,    0.001901]
  Total dipole [Debye]:                                               0.051328
  <r^2> [a.u.]:                        [ 181.428580,   41.030261,   10.785950]
  Total <r^2> [a.u.]:                                               233.244792

  V1^2 = 0.9633, V2^2 = 0.0367

  Important amplitudes:
      occ i     occ j     vir a      vir b          v   
    -----------------------------------------------------
     8 (A) A             11 (A) A                 0.6688
     7 (A) A              9 (A) A                 0.1535
     8 (A) A             21 (A) A                -0.0779
     8 (A) A             16 (A) A                 0.0674
     8 (A) A   8 (A) B    9 (A) A   13 (A) B      0.0167
     5 (A) A   8 (A) B   11 (A) A   11 (A) B     -0.0157
     7 (A) A             20 (A) A                 0.0140
     8 (A) A   8 (A) B   11 (A) A   17 (A) B      0.0137
     7 (A) A   8 (A) B   13 (A) A   11 (A) B     -0.0127
     4 (A) A   8 (A) B   12 (A) A   11 (A) B     -0.0111
     8 (A) A   8 (A) B    9 (A) A   22 (A) B      0.0110
     5 (A) A   8 (A) A   11 (A) A   21 (A) A     -0.0109
     7 (A) A   8 (A) A   11 (A) A   22 (A) A      0.0095
     6 (A) A   8 (A) B   10 (A) A   11 (A) B      0.0091
     6 (A) A   8 (A) B   15 (A) A   11 (A) B     -0.0089
     7 (A) A   8 (A) B   22 (A) A   11 (A) B     -0.0089
     3 (A) A   4 (A) B   11 (A) A    9 (A) B     -0.0083
     3 (A) A   8 (A) B   11 (A) A   18 (A) B     -0.0080
     6 (A) A   8 (A) A   11 (A) A   15 (A) A      0.0079
     7 (A) A   8 (A) A   13 (A) A   16 (A) A      0.0079
     7 (A) A   8 (A) A   11 (A) A   13 (A) A      0.0075
     4 (A) A   8 (A) B   19 (A) A   11 (A) B      0.0070
     5 (A) A   8 (A) B   21 (A) A   11 (A) B      0.0069
     5 (A) A   8 (A) B    9 (A) A    9 (A) B     -0.0069
     4 (A) A   8 (A) A   11 (A) A   12 (A) A      0.0062
     3 (A) A   6 (A) B   11 (A) A   28 (A) B      0.0060
     6 (A) A   8 (A) A   11 (A) A   18 (A) A      0.0059
     6 (A) A   8 (A) B   18 (A) A   11 (A) B     -0.0058
     7 (A) A   8 (A) B   16 (A) A   13 (A) B     -0.0057
     3 (A) A   8 (A) B   11 (A) A   30 (A) B     -0.0056
     5 (A) A   8 (A) B   10 (A) A   10 (A) B     -0.0055
     7 (A) A   8 (A) B   12 (A) A   10 (A) B      0.0055
     8 (A) A   8 (A) B   20 (A) A   22 (A) B      0.0055
     6 (A) A   8 (A) B   11 (A) A   10 (A) B      0.0055
     3 (A) A   5 (A) B   11 (A) A   25 (A) B     -0.0054
     3 (A) A   8 (A) A   11 (A) A   18 (A) A     -0.0054
     3 (A) A   8 (A) A   11 (A) A   24 (A) A     -0.0053
     5 (A) A   8 (A) A   11 (A) A   16 (A) A      0.0049
     6 (A) A   8 (A) A   10 (A) A   16 (A) A     -0.0047
     8 (A) A   8 (A) B   11 (A) A   28 (A) B     -0.0043
    -----------------------------------------------------

  Density matrix analysis:
  ------------------------
  NOs
    Occupation of frontier NOs:
       0.9387   1.0295
    Number of electrons: 16.000000
    Number of unpaired electrons: n_u =  2.32235, n_u,nl =  2.05106
    NO participation ratio (PR_NO):  2.932704
  
  
  Mulliken Population Analysis
  Atom      Charge (e)              h+              e-           Del q
  --------------------------------------------------------------------
   1 H       -0.122112        0.045913       -0.222934       -0.177020
   2 C        0.252633        0.494946       -0.133709        0.361236
   3 H       -0.128966        0.046043       -0.229801       -0.183758
   4 C        0.249537        0.495573       -0.134752        0.360821
   5 H       -0.123567        0.046063       -0.224837       -0.178774
   6 H       -0.127525        0.046021       -0.228526       -0.182505
  --------------------------------------------------------------------
  Sum:        0.000000        1.174559       -1.174559       -0.000000
  
  Multipole moment analysis of the density matrix
    Molecular charge:                      -0.000000
    Number of electrons:                   16.000000
      Center of electronic charge [Ang]: [ -1.560970,  -0.067444,   0.002354]
    Total nuclear charge:                  16.000000
      Center of nuclear charge [Ang]:    [ -1.560414,  -0.067079,   0.002417]
    Dipole moment [D]:                     0.051328
      Cartesian components [D]:          [  0.042719,   0.028041,   0.004833]
    RMS size of the density [Ang]:         1.281022
      Cartesian components [Ang]:        [  0.859475,   0.844721,   0.434474]
  
  Exciton analysis of the difference density matrix
    <r_h> [Ang]:                  [ -1.561069,  -0.067306,   0.002484]
    <r_e> [Ang]:                  [ -1.568711,  -0.072329,   0.001479]
    |<r_e - r_h>| [Ang]:            0.009200
    Hole size [Ang]:                1.394929
      Cartesian components [Ang]: [  0.819503,   0.806389,   0.789923]
    Electron size [Ang]:            2.114317
      Cartesian components [Ang]: [  1.417793,   1.417124,   0.672278]

  Transition density matrix analysis:
  -----------------------------------
  
  CT numbers (Mulliken)
    omega =     0.9293
    <Phe> =    -0.0146
  
  Exciton analysis of the transition density matrix
    Trans. dipole moment [D]:             0.002840
      Cartesian components [D]:         [ -0.000044,   0.000403,  -0.002811]
    <r_h> [Ang]:                        [ -1.560439,  -0.067141,   0.002581]
    <r_e> [Ang]:                        [ -1.570430,  -0.073101,   0.001304]
    |<r_e - r_h>| [Ang]:                  0.011704
    Hole size [Ang]:                      1.229181
      Cartesian components [Ang]:       [  0.661951,   0.649577,   0.806695]
    Electron size [Ang]:                  2.247877
      Cartesian components [Ang]:       [  1.507082,   1.507879,   0.712712]
    RMS electron-hole separation [Ang]:   2.550889
      Cartesian components [Ang]:       [  1.637236,   1.633653,   1.075952]
    Covariance(r_h, r_e) [Ang^2]:         0.028470
    Correlation coefficient:              0.010304
    Center-of-mass size [Ang]:            1.286544
      Cartesian components [Ang]:       [  0.827421,   0.825002,   0.538461]

  Decomposition into state-averaged NTOs
    H- 0 -> L+ 2: -0.6641 ( 88.2%)
    H- 1 -> L+ 0:  0.1514 (  4.6%)
                   omega =  92.9%
  ----------------------------------------------------------------------------


  Excited state 5 (singlet, A)                                     [converged]
  ----------------------------------------------------------------------------
  Term symbol:  6 (1) A                                     R^2 =  3.72511e-13

  Total energy:                                            -77.9468200901 a.u.
  Excitation energy:                                              10.158461 eV

  Osc. strength:                                                      0.000001
  Trans. dip. moment [a.u.]:           [  -0.000032,    0.000275,   -0.001801]
  <i|r^2|0> [a.u.]:                    [  -0.081153,    0.096452,   -0.015391]
  Two-photon absorption cross-section (SoS) [a.u.]:                 223.507644
  Two-photon absorption matrix (SoS) [a.u.]:
                                       |   -0.365608   -0.057684    3.831814 |
                                       |   -0.057684    0.435642   -3.617757 |
                                       |    3.831814   -3.617757   -0.069870 |
  Two-photon absorption cross-section [a.u.]:                       115.472401
  Two-photon absorption matrix [a.u.]:
                                       |   -0.262637   -0.041327    2.753287 |
                                       |   -0.041327    0.313321   -2.601328 |
                                       |    2.753287   -2.601328   -0.050442 |

  Dip. moment [a.u.]:                  [  -0.004747,    0.002772,   -0.000072]
  Total dipole [Debye]:                                               0.013975
[...]
    16   -1.415146748082e-03
    17   -1.732188912898e-03
    18    1.539986018234e-04
    19   -2.905856023423e-03
    20    1.127020215953e-02
    21    9.225116987872e-01
    22   -5.519057757802e-04
    23    1.368963411865e-02
    24    8.007457237580e-04
    25    7.063162632273e-02
    26   -5.262392458289e-02
    27   -1.385212393308e+00
    28    9.953282773143e-02
    29   -9.551394292418e-02
    30   -9.415876921210e-04
    31    3.859908127487e-01
    32   -3.686817321756e-01
    33   -3.550892376950e-03
    34    1.509167656939e-02
    35   -1.434261714864e-03
    36   -1.717987140566e-03
    37    4.882466959417e-05
    38   -2.910518969887e-03
    39    1.171216686684e-02
    40    9.320988923261e-01
    41    4.552369002361e-04
    42   -1.373081308037e-02
    43   -8.004104374241e-04
    44    1.138510301987e-02
    45    9.289989248266e-01
    46    1.375902212186e-02
    47    2.039575132691e-04
    48    6.722759057569e-04
Sym=X
Ene= 0.231048
Spin=Alpha
Occup=0
     1   -2.987563837970e-02
     2   -1.165144992152e+00
     3    1.287165253922e-02
     4    3.509204504198e-03
     5    8.259825668535e-04
     6    3.696105966040e-04
     7   -2.320151511377e-04
     8   -8.588988083645e-03
     9    1.538085461315e-01
    10    1.627980557772e-01
    11    1.715138146097e-02
    12    5.296831759465e-01
    13    5.600327103095e-01
    14    5.903643588971e-02
    15    1.325325060738e-04
    16   -9.285699012639e-05
    17    6.476434680833e-05
    18   -1.486060781466e-03
    19   -1.388645043948e-04
    20    2.994735767293e-02
    21    1.175520162555e+00
    22    2.872401558418e-03
    23    1.322888369808e-02
    24    9.342427922199e-04
    25   -4.710560374820e-05
    26    2.448082063559e-05
    27   -4.725876446368e-04
    28    1.547698882332e-01
    29    1.629657424899e-01
    30    1.717860099715e-02
    31    5.302817282556e-01
    32    5.559267916053e-01
    33    5.870461232031e-02
    34   -2.305903761678e-07
    35    6.151435323415e-05
    36   -7.885221758486e-05
    37    1.279792304597e-03
    38    5.957768188902e-05
    39   -3.003104563367e-02
    40   -1.165940829182e+00
    41    2.825859531847e-03
    42    1.307903570817e-02
    43    9.204245709584e-04
    44    2.966015077820e-02
    45    1.166938509306e+00
    46    1.295479587411e-02
    47    3.513397852809e-03
    48    8.295852639193e-04
Sym=X
Ene= 0.236440
Spin=Alpha
Occup=0
     1    1.920190878854e-02
     2    1.078274229259e+00
     3   -1.598908723723e-02
     4   -9.218035918980e-03
     5   -1.309155836525e-03
     6    8.734725826672e-02
     7   -8.260634264671e-02
     8   -1.550389381372e+00
     9   -5.938072502131e-02
    10    5.548855164493e-02
    11    6.421314441630e-04
    12   -2.438109019244e-01
    13    2.290441931453e-01
    14    2.701822196773e-03
    15    2.138350265648e-02
    16   -2.490070992009e-03
    17   -2.890837514764e-03
    18    6.194934465421e-04
    19   -1.246454144121e-02
    20    1.919648500904e-02
    21    1.072921103439e+00
    22    8.363010571398e-03
    23    1.638813480742e-02
    24    1.394366319367e-03
    25   -8.689687669488e-02
    26    8.204406247763e-02
    27    1.539688403736e+00
    28   -5.908431159662e-02
    29    5.562170302067e-02
    30    3.844064674967e-04
    31   -2.429583941781e-01
    32    2.278089926416e-01
    33    1.537946736124e-03
    34   -2.118758050610e-02
    35    2.494861612509e-03
    36    2.837187456086e-03
    37   -5.695145604916e-04
    38    1.236511337424e-02
    39   -1.930819065477e-02
    40   -1.064667058701e+00
    41    8.419449861133e-03
    42    1.617464063030e-02
    43    1.365707276128e-03
    44   -1.948603589669e-02
    45   -1.072793255840e+00
    46   -1.587244427666e-02
    47   -9.231206566980e-03
    48   -1.322032201551e-03
Sym=X
Ene= 0.302962
Spin=Alpha
Occup=0
     1   -2.145299502179e-02
     2    1.660180956252e+00
     3   -2.353398579228e-02
     4    3.640528168544e-04
     5   -1.095464870169e-03
     6    1.947342728310e-05
     7    9.545157286705e-06
     8   -9.818174069369e-04
     9   -1.355473404126e-01
    10   -1.425515763198e-01
    11   -1.505429304662e-02
    12   -1.125431719728e+00
    13   -1.185310788310e+00
    14   -1.250616064034e-01
    15    3.966080630508e-05
    16   -1.722288838671e-03
    17    1.994011782970e-03
    18   -3.422094095703e-02
    19   -1.798701303981e-03
    20    2.139349979788e-02
    21   -1.659695684408e+00
    22    1.604226666629e-03
    23   -2.345773387319e-02
    24   -1.341849194627e-03
    25   -1.536370633744e-05
    26    3.049600562609e-05
    27   -2.394018161426e-03
    28    1.356954717391e-01
    29    1.427783376502e-01
    30    1.506028299228e-02
    31    1.124023816681e+00
    32    1.181778319372e+00
    33    1.247334438651e-01
    34    6.660404807106e-05
    35   -1.754168458354e-03
    36    1.926624866855e-03
    37   -3.393120408329e-02
    38   -1.811804790753e-03
    39    2.051284554257e-02
    40   -1.654135507008e+00
    41   -1.648213947563e-03
    42    2.341489901738e-02
    43    1.322836890567e-03
    44   -2.091463924028e-02
    45    1.657329378713e+00
    46    2.349725776755e-02
    47   -3.951220069356e-04
    48    1.104021543624e-03
Sym=X
Ene= 0.462773
Spin=Alpha
Occup=0
     1   -1.154094865349e-01
     2   -6.985467770083e-01
     3   -1.499619454331e-02
     4   -1.042949557964e-02
     5   -1.347441081753e-03
     6    6.242743757555e-02
     7    1.696809593071e-02
     8   -3.639049365298e+00
     9    1.037274878237e-01
    10   -9.839653756616e-02
    11   -1.043254472900e-03
    12    2.436469007321e+00
    13   -2.311152771344e+00
    14   -2.308534685674e-02
    15    5.320125009845e-02
    16   -3.288982481424e-03
    17   -4.559961489699e-03
    18   -1.023973500767e-03
    19    1.976483584668e-02
    20   -1.161753196593e-01
    21   -6.981589808035e-01
    22    9.545373129626e-03
    23    1.556828451140e-02
    24    1.389853019390e-03
    25   -6.260045718554e-02
    26   -1.619826300683e-02
    27    3.643013934536e+00
    28    1.049776171906e-01
    29   -9.977447015768e-02
    30   -9.103133260150e-04
    31    2.434116758229e+00
    32   -2.306437483273e+00
    33   -2.222525478412e-02
    34   -5.273921831745e-02
    35    3.188556981254e-03
    36    4.485886066612e-03
    37    1.029330037463e-03
    38   -2.047917813811e-02
    39    1.137148070671e-01
    40    6.961745556625e-01
    41    9.386527365114e-03
    42    1.542446194967e-02
    43    1.378600431399e-03
    44    1.123182821300e-01
    45    7.022718164064e-01
    46   -1.486694286500e-02
    47   -1.032040106109e-02
    48   -1.326477648383e-03
Sym=X
Ene= 0.579810
Spin=Alpha
Occup=0
     1    2.377571886063e-01
     2    4.372424822623e-02
     3   -2.196819373841e-02
     4    2.672954763409e-02
     5    5.669193901350e-04
     6   -5.837176754625e-03
     7   -1.687133533595e-01
     8   -4.366756851272e-01
     9    3.062120803896e-01
    10   -2.908892310140e-01
    11   -2.871697822921e-03
    12   -7.355992150283e-01
    13    6.991116372950e-01
    14    7.015211016563e-03
    15   -1.960825167899e-03
    16    3.613705565155e-03
    17    3.284376112621e-03
    18   -3.383500473176e-03
    19    5.977163472751e-02
    20    2.388706521312e-01
    21    4.234828424318e-02
    22   -2.784588172286e-02
    23    2.039518784274e-02
    24   -9.498467288629e-05
    25   -6.674924307562e-03
    26   -1.692968215624e-01
    27   -3.977058844255e-01
    28   -3.047945957677e-01
    29    2.896403074453e-01
    30    2.889469840348e-03
    31    7.613130322635e-01
    32   -7.220264858034e-01
    33   -7.015702555564e-03
    34   -2.008734368276e-03
    35    3.623428717075e-03
    36    3.283284102896e-03
    37   -3.294984395808e-03
    38    5.978286193766e-02
    39    2.374404967698e-01
    40    5.097866817011e-02
    41    2.841764127815e-02
    42   -2.086247943814e-02
    43    1.091079583038e-04
    44    2.369823395982e-01
    45    5.451097848608e-02
    46    2.222985355890e-02
    47   -2.713698029608e-02
    48   -5.636035737391e-04
Sym=X
Ene= 0.608870
Spin=Alpha
Occup=0
     1   -5.190094319255e-01
     2    2.403521591000e-01
     3   -5.952537586144e-02
     4    3.702432688113e-02
     5   -5.947142063249e-04
     6   -4.798839768810e-05
     7    1.988011973066e-04
     8   -4.911389321038e-03
     9   -3.614541412353e-02
    10   -3.762500796376e-02
    11   -3.985342931962e-03
    12    2.663022907370e-01
    13    2.731538566115e-01
    14    2.917581231898e-02
    15    4.395483383722e-04
    16   -7.501570346653e-03
    17    8.560701413947e-03
    18   -1.480068590563e-01
    19   -7.681106273074e-03
    20    5.169107053953e-01
    21   -2.412363935318e-01
    22    4.022813931456e-02
    23   -5.732188654754e-02
    24   -1.545957410240e-03
    25    5.845766407597e-05
    26    5.074393765847e-04
    27    2.150849036085e-03
    28   -3.558547110226e-02
    29   -3.697060479373e-02
    30   -3.927161140418e-03
    31    2.636720495756e-01
    32    2.692674798439e-01
    33    2.875840922227e-02
    34   -1.477778247350e-04
    35    7.632394613349e-03
    36   -8.551693092879e-03
    37    1.491863080885e-01
    38    7.457219083887e-03
    39   -5.207893772818e-01
    40    2.519413935856e-01
    41    4.008132642710e-02
    42   -5.757963096620e-02
    43   -1.532287790001e-03
    44    5.207668298168e-01
    45   -2.472069694522e-01
    46   -5.965432636986e-02
    47    3.690001568126e-02
    48   -6.478923873655e-04
Sym=X
Ene= 0.688652
Spin=Alpha
Occup=0
     1   -2.548262272248e-04
     2    1.605378615243e-04
     3    8.298445054100e-04
     4    1.115169084814e-03
     5   -1.890899153439e-02
     6   -1.856278233290e-05
     7   -2.911467888677e-04
     8    2.132507245681e-04
     9    3.210481799168e-02
    10    4.028490815149e-02
    11   -6.706068956197e-01
    12   -2.931175330773e-02
    13   -3.684874595038e-02
    14    6.128130010305e-01
    15   -1.222902547704e-03
    16    8.266685795340e-02
    17   -7.832202278896e-02
    18   -8.652492198746e-03
    19   -1.273598132453e-03
    20   -2.611457722044e-04
    21    1.858362009454e-04
    22    9.268758370441e-04
    23    1.216283633848e-03
    24   -1.894037932393e-02
    25   -1.843768698009e-05
    26   -2.936103917495e-04
    27    2.196777289276e-04
    28    3.192950008675e-02
    29    4.041003864749e-02
    30   -6.706993026386e-01
    31   -2.916693375968e-02
    32   -3.689038125737e-02
    33    6.125317016717e-01
    34    1.440138469354e-03
    35   -8.267916897675e-02
    36    7.826206724150e-02
    37    8.663064496767e-03
    38    1.193147122015e-03
    39   -2.573170279690e-04
    40    2.012825454394e-04
    41    8.627928629512e-04
    42    1.036848279430e-03
    43   -1.852828899060e-02
    44   -2.518382612378e-04
    45    1.735491005165e-04
    46    9.722416475114e-04
    47    1.153053222005e-03
    48   -1.881106524194e-02
Sym=X
Ene= 0.704763
Spin=Alpha
Occup=0
     1   -4.852329508585e-01
     2    1.636481573558e-01
     3   -7.779573012873e-02
     4   -4.443751407309e-02
     5   -6.374429668419e-03
     6   -4.587462196751e-02
     7   -3.026689001196e-01
     8    4.753708162334e-01
     9    1.965489929146e-01
    10   -1.859032419849e-01
    11   -1.401991586040e-03
    12   -6.471449816044e-02
    13    5.903820359268e-02
    14    2.484856613443e-05
    15    1.903256235349e-01
    16   -2.031476065725e-02
    17   -2.388481803442e-02
    18    3.831725699297e-03
    19   -7.703118606829e-02
    20   -4.863229407965e-01
    21    1.620611598447e-01
    22    4.026113903429e-02
    23    7.989317435042e-02
    24    6.745319927166e-03
    25   -4.603306018539e-02
    26   -2.999335066533e-01
    27    4.517605353465e-01
    28   -1.952626928496e-01
    29    1.862148857183e-01
    30    2.277740690205e-03
    31    5.062737582009e-02
    32   -5.046310648453e-02
    33   -1.072097198016e-03
    34    1.920025685872e-01
    35   -2.038992226740e-02
    36   -2.401426430223e-02
    37    3.684477851809e-03
    38   -7.622507921192e-02
    39   -4.902767243093e-01
    40    1.666396681573e-01
    41   -4.040888628607e-02
    42   -8.050544183969e-02
    43   -6.757150734644e-03
    44   -4.899161041620e-01
    45    1.628942472837e-01
    46    7.851848091947e-02
    47    4.430795054343e-02
    48    6.425788226443e-03
Sym=X
Ene= 0.775741
Spin=Alpha
Occup=0
     1   -5.392851265716e-01
     2    4.806107684883e-01
     3   -1.081072475309e-01
     4   -2.653687446879e-02
     5   -6.755880209473e-03
     6   -8.916575021319e-02
     7    2.234501823329e-01
     8    5.698267336532e-01
     9   -1.025810368079e-01
    10    9.727032130080e-02
    11    1.287444535623e-03
    12   -2.965766873910e-01
    13    2.800044509837e-01
    14    1.948589254415e-03
    15    2.042180801086e-01
    16   -1.740515606862e-02
    17   -2.189388927354e-02
    18    4.955656367883e-04
    19   -8.150762556903e-03
    20   -5.395220540970e-01
    21    4.802555625255e-01
    22    2.096666955683e-02
    23    1.094585686717e-01
    24    7.593537029243e-03
    25    8.870698602094e-02
    26   -2.299195443521e-01
    27   -5.638254759035e-01
    28   -1.058481008393e-01
    29    9.785652350448e-02
    30    5.053631798238e-04
    31   -2.900992280162e-01
    32    2.808031433494e-01
    33    3.784350567137e-03
    34   -2.022817425417e-01
    35    1.728106190910e-02
    36    2.151691521622e-02
    37   -5.980200540565e-04
    38    7.164317024941e-03
    39    5.392612259947e-01
    40   -4.847749689480e-01
    41    2.089345811301e-02
    42    1.087389931928e-01
    43    7.532378723081e-03
    44    5.368798624836e-01
    45   -4.771785706887e-01
    46   -1.069512699649e-01
    47   -2.634495033831e-02
    48   -6.691891039912e-03
Sym=X
Ene= 0.807406
Spin=Alpha
Occup=0
     1   -2.063050001612e-04
     2    3.257893900826e-04
     3    1.416660610064e-03
     4    1.918678815560e-03
     5   -3.158889704528e-02
     6   -3.993391786539e-05
     7    8.412747651685e-05
     8   -4.653262723962e-05
     9    3.633459725413e-02
    10    4.616283813590e-02
    11   -7.641947852541e-01
    12   -5.374253599958e-02
    13   -6.767242669766e-02
    14    1.124482520129e+00
    15    1.189169177905e-03
    16   -6.545292809578e-02
    17    6.196417525387e-02
    18    6.841817507250e-03
    19    1.018389045882e-03
    20   -2.045886330683e-04
    21    2.535977470368e-04
    22    1.485448850564e-03
    23    1.989902563266e-03
    24   -3.169643778327e-02
    25    3.924415590988e-05
    26   -8.193704164067e-05
    27    4.849247078138e-05
    28   -3.663622644830e-02
    29   -4.579756924891e-02
    30    7.643367827032e-01
    31    5.361101206910e-02
    32    6.762442972306e-02
    33   -1.124316901040e+00
    34    9.202404379225e-04
    35   -6.541808102348e-02
    36    6.198020379418e-02
    37    6.864045924872e-03
    38    9.310816276594e-04
    39    2.026880339955e-04
    40   -2.574020273465e-04
    41   -1.514467192294e-03
    42   -1.788794878577e-03
    43    3.112505291522e-02
    44    2.032015753663e-04
    45   -3.258577638667e-04
    46   -1.586343149648e-03
    47   -1.864036371169e-03
    48    3.130387730331e-02
Sym=X
Ene= 0.858424
Spin=Alpha
Occup=0
     1    1.373879578231e-02
     2   -1.072932763751e+00
     3    1.456628073823e-01
     4    5.641471005960e-02
     5    1.032998628678e-02
     6    1.164239042703e-04
     7   -1.626546821959e-03
     8    1.974744079656e-03
     9   -4.085214099602e-01
    10   -4.313211383376e-01
    11   -4.549147866649e-02
    12    9.317336494803e-01
    13    9.828969066364e-01
    14    1.037010523839e-01
    15   -4.085833934550e-04
    16    1.168008180676e-02
    17   -1.325436627066e-02
    18    2.298051663753e-01
    19    1.157670208560e-02
    20   -1.291974508456e-02
    21    1.072859192404e+00
    22    4.889698387700e-02
    23    1.480749172797e-01
    24    1.126619327935e-02
    25   -2.445746911177e-04
    26   -1.040584184235e-03
    27    2.874283805734e-05
    28   -4.131139545073e-01
    29   -4.365180725849e-01
    30   -4.594296418133e-02
    31    9.399797029849e-01
    32    9.916012863415e-01
    33    1.044416945354e-01
    34    1.048461467889e-03
    35   -1.181217500408e-02
    36    1.323427325878e-02
    37   -2.309724151066e-01
    38   -1.161342944730e-02
    39    1.451394126393e-02
    40   -1.078634833308e+00
    41    4.829080476586e-02
    42    1.495057295520e-01
    43    1.127417863180e-02
    44   -1.601753254176e-02
    45    1.078393482121e+00
    46    1.472272944685e-01
    47    5.567938915601e-02
    48    1.039825354002e-02
Sym=X
Ene= 0.928011
Spin=Alpha
Occup=0
     1    1.414043559591e-01
     2   -1.238676703783e+00
     3    1.834324956273e-01
     4   -5.116068863096e-03
     5    8.412370830473e-03
     6   -1.969704657058e-04
     7    1.760982817209e-03
     8   -6.046667532538e-03
     9   -4.769833724055e-01
    10   -4.987785113030e-01
    11   -5.278963801741e-02
    12    1.392073160898e+00
    13    1.455966199345e+00
    14    1.540819907170e-01
    15    4.172349097181e-04
    16    6.405469784051e-03
    17   -7.431238599490e-03
    18    1.271390172736e-01
    19    7.391757537155e-03
    20   -1.422803099582e-01
    21    1.235837852669e+00
    22   -1.499768392929e-02
    23    1.830613437302e-01
    24    1.034201403922e-02
    25    3.091642851206e-04
    26    3.239376717432e-03
    27   -9.444143547800e-04
    28    4.697789484134e-01
    29    4.994901596829e-01
    30    5.246441443943e-02
    31   -1.371344913434e+00
    32   -1.455394526227e+00
    33   -1.529901084626e-01
    34   -9.171584139976e-04
    35    6.356282049077e-03
    36   -7.066472936891e-03
    37    1.241524426341e-01
    38    4.858140451849e-03
    39   -1.414045674754e-01
    40    1.228921197648e+00
    41    1.492275509118e-02
    42   -1.815889330460e-01
    43   -1.016802072668e-02
    44    1.418053477745e-01
    45   -1.221422108238e+00
    46   -1.814801024117e-01
    47    6.640055655195e-03
    48   -8.299931799699e-03
Sym=X
Ene= 0.970585
Spin=Alpha
Occup=0
     1   -5.962438420159e-02
     2    8.904681414114e-01
     3   -8.660486727656e-02
     4   -9.660670026227e-02
     5   -9.908963533766e-03
     6    2.702514145360e-02
     7    2.504105797214e-01
     8    5.181240503369e-01
     9    4.810704106230e-01
    10   -4.595336704761e-01
    11   -4.871700996407e-03
    12   -1.467255513247e+00
    13    1.404226543451e+00
    14    1.496538109000e-02
    15   -5.784587947181e-02
    16   -1.234585440187e-02
    17   -9.147703574827e-03
    18    1.571797374038e-02
    19   -2.964524467934e-01
    20   -5.904448129890e-02
    21    8.994209855194e-01
    22    9.206035998214e-02
    23    9.256138660665e-02
    24    1.000295445785e-02
    25   -2.711234236395e-02
    26   -2.553451241763e-01
    27   -5.097552387565e-01
    28    4.861947414246e-01
    29   -4.569203039453e-01
    30   -4.086328314795e-03
    31   -1.485955790983e+00
    32    1.393106620367e+00
    33    1.234387567430e-02
    34    5.796894501658e-02
    35    1.241268974708e-02
    36    9.027879567695e-03
    37   -1.442575865366e-02
    38    2.962921791420e-01
    39    5.989372838760e-02
    40   -8.903885540456e-01
    41    9.209759298674e-02
    42    9.167208008428e-02
    43    9.870094273260e-03
    44    6.041843183122e-02
    45   -9.065220213987e-01
    46   -8.899973082685e-02
    47   -9.662184907806e-02
    48   -1.010170738575e-02
[5D]

======= END OF MOLDEN-FORMATTED INPUT FILE =======


        *************************************************************
        *                                                           *
        *  Thank you very much for using Q-Chem.  Have a nice day.  *
        *                                                           *
        *************************************************************


