                  Welcome to Q-Chem
     A Quantum Leap Into The Future Of Chemistry


 Q-Chem 5.4 (devel), Q-Chem, Inc., Pleasanton, CA (2021)

 E. Epifanovsky,  A. T. B. Gilbert,  Xintian Feng,  Joonho Lee,  Yuezhi Mao,  
 N. Mardirossian,  P. Pokhilko,  A. White,  M. Wormit,  M. P. Coons,  
 A. L. Dempwolff,  Zhengting Gan,  D. Hait,  P. R. Horn,  L. D. Jacobson,  
 I. Kaliman,  J. Kussmann,  A. W. Lange,  Ka Un Lao,  D. S. Levine,  Jie Liu,  
 S. C. McKenzie,  A. F. Morrison,  K. Nanda,  F. Plasser,  D. R. Rehn,  
 M. L. Vidal,  Zhi-Qiang You,  Ying Zhu,  B. Alam,  B. Albrecht,  
 A. Aldossary,  E. Alguire,  J. H. Andersen,  D. Barton,  K. Begam,  A. Behn,  
 Y. A. Bernard,  E. J. Berquist,  H. Burton,  A. Carreras,  K. Carter-Fenk,  
 R. Chakraborty,  A. D. Chien,  K. D. Closser,  V. Cofer-Shabica,  
 S. Dasgupta,  Jia Deng,  M. de Wergifosse,  M. Diedenhofen,  Hainam Do,  
 S. Ehlert,  Po-Tung Fang,  S. Fatehi,  Qingguo Feng,  T. Friedhoff,  
 J. Gayvert,  Qinghui Ge,  G. Gidofalvi,  M. Goldey,  J. Gomes,  
 C. Gonzalez-Espinoza,  S. Gulania,  A. Gunina,  M. W. D. Hanson-Heine,  
 P. H. P. Harbach,  A. W. Hauser,  M. F. Herbst,  M. Hernandez Vera,  
 M. Hodecker,  Z. C. Holden,  S. Houck,  Xunkun Huang,  Kerwin Hui,  
 B. C. Huynh,  M. Ivanov,  Hyunjun Ji,  Hanjie Jiang,  B. Kaduk,  S. Kaehler,  
 K. Khistyaev,  Jaehoon Kim,  P. Klunzinger,  Z. Koczor-Benda,  
 Joong Hoon Koh,  D. Kosenkov,  L. Koulias,  T. Kowalczyk,  C. M. Krauter,  
 K. Kue,  A. Kunitsa,  T. Kus,  A. Landau,  K. V. Lawler,  D. Lefrancois,  
 S. Lehtola,  Rain Li,  Yi-Pei Li,  Jiashu Liang,  M. Liebenthal,  
 Hung-Hsuan Lin,  You-Sheng Lin,  Fenglai Liu,  Kuan-Yu Liu,  
 M. Loipersberger,  A. Luenser,  A. Manjanath,  P. Manohar,  E. Mansoor,  
 S. F. Manzer,  Shan-Ping Mao,  A. V. Marenich,  T. Markovich,  S. Mason,  
 S. A. Maurer,  P. F. McLaughlin,  M. F. S. J. Menger,  J.-M. Mewes,  
 S. A. Mewes,  P. Morgante,  J. W. Mullinax,  K. J. Oosterbaan,  G. Paran,  
 Alexander C. Paul,  Suranjan K. Paul,  F. Pavosevic,  Zheng Pei,  S. Prager,  
 E. I. Proynov,  E. Ramos,  B. Rana,  A. E. Rask,  A. Rettig,  R. M. Richard,  
 F. Rob,  E. Rossomme,  T. Scheele,  M. Scheurer,  M. Schneider,  
 N. Sergueev,  S. M. Sharada,  W. Skomorowski,  D. W. Small,  C. J. Stein,  
 Yu-Chuan Su,  E. J. Sundstrom,  Zhen Tao,  J. Thirman,  T. Tsuchimochi,  
 N. M. Tubman,  S. P. Veccham,  O. Vydrov,  J. Wenzel,  J. Witte,  A. Yamada,  
 Kun Yao,  S. Yeganeh,  S. R. Yost,  A. Zech,  Igor Ying Zhang,  Xing Zhang,  
 Yu Zhang,  D. Zuev,  A. Aspuru-Guzik,  A. T. Bell,  N. A. Besley,  
 K. B. Bravaya,  B. R. Brooks,  D. Casanova,  Jeng-Da Chai,  S. Coriani,  
 C. J. Cramer,  A. E. DePrince, III,  R. A. DiStasio Jr.,  A. Dreuw,  
 B. D. Dunietz,  T. R. Furlani,  W. A. Goddard III,  S. Grimme,  
 S. Hammes-Schiffer,  T. Head-Gordon,  W. J. Hehre,  Chao-Ping Hsu,  
 T.-C. Jagau,  Yousung Jung,  A. Klamt,  Jing Kong,  D. S. Lambrecht,  
 WanZhen Liang,  N. J. Mayhall,  C. W. McCurdy,  J. B. Neaton,  
 C. Ochsenfeld,  J. A. Parkhill,  R. Peverati,  V. A. Rassolov,  Yihan Shao,  
 L. V. Slipchenko,  T. Stauch,  R. P. Steele,  J. E. Subotnik,  
 A. J. W. Thom,  A. Tkatchenko,  D. G. Truhlar,  T. Van Voorhis,  
 T. A. Wesolowski,  K. B. Whaley,  H. L. Woodcock III,  P. M. Zimmerman,  
 S. Faraji,  P. M. W. Gill,  M. Head-Gordon,  J. M. Herbert,  A. I. Krylov

 Additional authors for Version 5.4.1: 
 S. Kotaru,  Shaozhi Li,  Xiangyuan Li,  F. Matz,  A. Molle,  Haisheng Ren,  
 Yingli Su,  Hung-Yi Tsai,  C. Utku,  Fang Wang

 Contributors to earlier versions of Q-Chem not listed above: 
 R. D. Adamson,  B. Austin,  R. Baer,  J. Baker,  G. J. O. Beran,  
 K. Brandhorst,  S. T. Brown,  E. F. C. Byrd,  A. K. Chakraborty,  
 G. K. L. Chan,  Chun-Min Chang,  Yunqing Chen,  C.-L. Cheng,  
 Siu Hung Chien,  D. M. Chipman,  D. L. Crittenden,  H. Dachsel,  
 R. J. Doerksen,  A. D. Dutoi,  R. G. Edgar,  J. Fosso-Tande,  
 L. Fusti-Molnar,  D. Ghosh,  A. Ghysels,  A. Golubeva-Zadorozhnaya,  
 J. Gonthier,  M. S. Gordon,  S. R. Gwaltney,  G. Hawkins,  J. E. Herr,  
 A. Heyden,  S. Hirata,  E. G. Hohenstein,  G. Kedziora,  F. J. Keil,  
 C. Kelley,  Jihan Kim,  R. A. King,  R. Z. Khaliullin,  P. P. Korambath,  
 W. Kurlancheek,  A. Laurent,  A. M. Lee,  M. S. Lee,  S. V. Levchenko,  
 Ching Yeh Lin,  D. Liotard,  E. Livshits,  R. C. Lochan,  I. Lotan,  
 L. A. Martinez-Martinez,  P. E. Maslen,  N. Nair,  D. P. O'Neill,  
 D. Neuhauser,  E. Neuscamman,  C. M. Oana,  R. Olivares-Amaya,  R. Olson,  
 T. M. Perrine,  B. Peters,  P. A. Pieniazek,  A. Prociuk,  Y. M. Rhee,  
 J. Ritchie,  M. A. Rohrdanz,  E. Rosta,  N. J. Russ,  H. F. Schaefer III,  
 M. W. Schmidt,  N. E. Schultz,  S. Sharma,  N. Shenvi,  C. D. Sherrill,  
 A. C. Simmonett,  A. Sodt,  T. Stein,  D. Stuck,  K. S. Thanthiriwatte,  
 V. Vanovschi,  L. Vogt,  Tao Wang,  A. Warshel,  M. A. Watson,  
 C. F. Williams,  Q. Wu,  X. Xu,  Jun Yang,  W. Zhang,  Yan Zhao

 Please cite Q-Chem as follows:
 Y. Shao et al., Mol. Phys. 113, 184-215 (2015)
 DOI: 10.1080/00268976.2014.952696

 Q-Chem 5.4.1 for Intel X86 EM64T Linux

 Parts of Q-Chem use Armadillo 9.800.1 (Horizon Scraper).
 http://arma.sourceforge.net/

 Q-Chem begins on Wed Mar 15 16:14:14 2023  

 Host: cpu121.yggdrasil
0

     Scratch files written to /srv/beegfs/scratch/users/f/fum/qchem65180//
 Processing $rem in /home/share/wesolowski/qc5.aug2021.FDE/config/preferences:
 Processing $rem in /home/fum/.qchemrc:

 Checking the input file for inconsistencies... 	...done.

--------------------------------------------------------------
User input:
--------------------------------------------------------------
$comment
generated from CCJob.Templates
$end

$rem
sym_ignore = true
method = adc(2)
ee_states = 10
basis = cc-pVDZ
mem_static = 1024
mem_total = 40000
adc_davidson_maxiter = 900
adc_davidson_conv = 6
adc_print = 3
adc_prop_es = true
adc_prop_es2es = true
adc_prop_tpa = true
molden_format = True
state_analysis = true
print_orbitals = 15
gen_scfman = false
fde_export_density = true
fde_details = 3
$end

$molecule
0 1
H -0.0348278765 -0.28420978269999997 0.0636489606
C -1.0765972949 -0.5242748755 -0.0023551776
H -1.313264467 -1.5767591607 -0.0757276926
C -2.043634118 0.3926884087 0.0061254933
H -1.8137616575 1.4459188338 0.0804456828
H -3.085977293 0.114931858 -0.0593381042                     
$end
--------------------------------------------------------------
 ----------------------------------------------------------------
             Standard Nuclear Orientation (Angstroms)
    I     Atom           X                Y                Z
 ----------------------------------------------------------------
    1      H      -0.0348278765    -0.2842097827     0.0636489606
    2      C      -1.0765972949    -0.5242748755    -0.0023551776
    3      H      -1.3132644670    -1.5767591607    -0.0757276926
    4      C      -2.0436341180     0.3926884087     0.0061254933
    5      H      -1.8137616575     1.4459188338     0.0804456828
    6      H      -3.0859772930     0.1149318580    -0.0593381042
 ----------------------------------------------------------------
 Nuclear Repulsion Energy =          33.44313578 hartrees
 There are        8 alpha and        8 beta electrons
 Requested basis set is cc-pVDZ
 There are 24 shells and 48 basis functions
 Total memory of 40000 MB is distributed as follows: 
   MEM_STATIC is set to 1024 MB
   QALLOC/CCMAN JOB total memory use is  38976 MB
 Warning: actual memory use might exceed 40000 MB

 Total QAlloc Memory Limit  40000 MB
 Mega-Array Size      1001 MB
 MEM_STATIC part      1024 MB

                       Distance Matrix (Angstroms)
             H (  1)   C (  2)   H (  3)   C (  4)   H (  5)
   C (  2)  1.071108
   H (  3)  1.823324  1.081258
   C (  4)  2.120567  1.332687  2.102109
   H (  5)  2.481579  2.105215  3.067812  1.080583
   H (  6)  3.079603  2.109370  2.450428  1.080700  1.846510

 A cutoff of  1.0D-11 yielded    300 shell pairs
 There are      1220 function pairs (      1329 Cartesian)
 Smallest overlap matrix eigenvalue = 4.80E-03

 Scale SEOQF with 1.000000e-01/1.000000e-01/1.000000e+00

 Standard Electronic Orientation quadrupole field applied
 Nucleus-field energy     =     0.0000000022 hartrees
 Guess from superposition of atomic densities
 Warning:  Energy on first SCF cycle will be non-variational
 SAD guess density has 16.000000 electrons
 A restricted Hartree-Fock SCF calculation will be
 performed using Pulay DIIS extrapolation
 SCF converges when DIIS error is below 1.0E-08
 using 10 threads for integral computing
 -------------------------------------------------------
 OpenMP Integral computing Module                
 Release: version 1.0, May 2013, Q-Chem Inc. Pittsburgh 
 -------------------------------------------------------
 ---------------------------------------
  Cycle       Energy         DIIS Error
 ---------------------------------------
    1     -78.4444940145      1.01E-01
    2     -78.0174828421      7.21E-03
    3     -78.0381289975      1.85E-03
    4     -78.0396119891      5.73E-04
    5     -78.0397334552      5.97E-05
    6     -78.0397353691      1.26E-05
    7     -78.0397354483      5.18E-06
    8     -78.0397354581      9.71E-07
    9     -78.0397354588      1.53E-07
   10     -78.0397354588      4.94E-08
   11     -78.0397354588      7.93E-09 Convergence criterion met
 ---------------------------------------
 SCF time:  CPU 2.18 s  wall 10.88 s
 SCF   energy in the final basis set = -78.03973546
 Total energy in the final basis set = -78.03973546
Exporting Density Matrix to file 'Densmat_SCF.txt'.
Export successful
================================================================================
|                                                                              |
|                                 A D C  M A N                                 |
|                                                                              |
 ------------------------------------------------------------------------------ 
|                                                                              |
| Components:                                                                  |
|                                                                              |
| - libvmm - 1.3-trunk                                                         |
|   Authors:                                                                   |
|   Evgeny Epifanovsky, Ilya Kaliman                                           |
|                                                                              |
| - libtensor - 2.5-trunk                                                      |
|   Authors:                                                                   |
|   Evgeny Epifanovsky, Michael Wormit, Dmitry Zuev, Sam Manzer,               |
|   Ilya Kaliman                                                               |
|                                                                              |
| - libwfa - 1.1-trunk                                                         |
|   Authors:                                                                   |
|   Felix Plasser, Stefanie Mewes (Baeppler), Benjamin Thomitzni,              |
|   Michael Wormit, Feng Chen, Anna I. Krylov, Pavel Pokhilko                  |
|                                                                              |
| - libadc - 1.1-trunk                                                         |
|   Authors:                                                                   |
|   Michael Wormit, Adrian L. Dempwolff, Philipp H. P. Harbach,                |
|   Caroline Krauter, Dirk Rehn, Matthias Schneider, Jan Wenzel                |
|                                                                              |
| - adcman - 2.6-trunk                                                         |
|   Authors:                                                                   |
|   Michael Wormit, Adrian L. Dempwolff, Philipp H. P. Harbach,                |
|   Caroline Krauter, Daniel Lefrancois, Jan-Michael Mewes, Dirk Rehn,         |
|   Matthias Schneider, Jan Wenzel, Andreas Dreuw                              |
|                                                                              |
| Authors of earlier versions of ADCMAN:                                       |
| Andreas Dreuw, Jan Hendrik Starcke, Dirk Rehn, Michael Wormit                |
|                                                                              |
================================================================================

 Created directory /srv/beegfs/scratch/users/f/fum/qchem65180/plots
  Import QC data ...  CPU 0.00 s  wall 0.09 s

 Alpha MOs, Restricted
 -- Occupied --                  
-11.235 -11.233  -1.032  -0.792  -0.640  -0.585  -0.504  -0.374
  1 A     2 A     3 A     4 A     5 A     6 A     7 A     8 A                  
 -- Virtual --                   
  0.168   0.204   0.234   0.239   0.304   0.464   0.579   0.611
  9 A    10 A    11 A    12 A    13 A    14 A    15 A    16 A                  
  0.689   0.712   0.785   0.808   0.862   0.937   0.974   1.011
 17 A    18 A    19 A    20 A    21 A    22 A    23 A    24 A                  
  1.132   1.234   1.244   1.263   1.295   1.603   1.739   1.764
 25 A    26 A    27 A    28 A    29 A    30 A    31 A    32 A                  
  1.818   1.850   1.868   1.917   1.973   1.986   2.231   2.257
 33 A    34 A    35 A    36 A    37 A    38 A    39 A    40 A                  
  2.373   2.453   2.519   2.652   2.722   2.832   3.133   3.414
 41 A    42 A    43 A    44 A    45 A    46 A    47 A    48 A                  

 Beta MOs, Restricted
 -- Occupied --                  
-11.235 -11.233  -1.032  -0.792  -0.640  -0.585  -0.504  -0.374
  1 A     2 A     3 A     4 A     5 A     6 A     7 A     8 A                  
 -- Virtual --                   
  0.168   0.204   0.234   0.239   0.304   0.464   0.579   0.611
  9 A    10 A    11 A    12 A    13 A    14 A    15 A    16 A                  
  0.689   0.712   0.785   0.808   0.862   0.937   0.974   1.011
 17 A    18 A    19 A    20 A    21 A    22 A    23 A    24 A                  
  1.132   1.234   1.244   1.263   1.295   1.603   1.739   1.764
 25 A    26 A    27 A    28 A    29 A    30 A    31 A    32 A                  
  1.818   1.850   1.868   1.917   1.973   1.986   2.231   2.257
 33 A    34 A    35 A    36 A    37 A    38 A    39 A    40 A                  
  2.373   2.453   2.519   2.652   2.722   2.832   3.133   3.414
 41 A    42 A    43 A    44 A    45 A    46 A    47 A    48 A                  
  Import AO data ...  CPU 0.01 s  wall 0.27 s
  Using point group: C1
  Irreducible representations in point group: A
  Molecular orbitals: 
  Occupied MOs:
  Block   0:   1 (  A) A   2 (  A) A   3 (  A) A   4 (  A) A   5 (  A) A
                  -11.24      -11.23      -1.032     -0.7922       -0.64
               6 (  A) A   7 (  A) A   8 (  A) A
                 -0.5849     -0.5039      -0.374
  Block   1:   1 (  A) B   2 (  A) B   3 (  A) B   4 (  A) B   5 (  A) B
                  -11.24      -11.23      -1.032     -0.7922       -0.64
               6 (  A) B   7 (  A) B   8 (  A) B
                 -0.5849     -0.5039      -0.374
  Virtual MOs:
  Block   0:   9 (  A) A  10 (  A) A  11 (  A) A  12 (  A) A  13 (  A) A
                  0.1682      0.2042      0.2337      0.2388      0.3035
              14 (  A) A  15 (  A) A  16 (  A) A  17 (  A) A  18 (  A) A
                  0.4641      0.5794      0.6112      0.6891      0.7119
              19 (  A) A  20 (  A) A  21 (  A) A  22 (  A) A
                  0.7852      0.8079      0.8624      0.9365
  Block   1:  23 (  A) A  24 (  A) A  25 (  A) A  26 (  A) A  27 (  A) A
                   0.974       1.011       1.132       1.234       1.244
              28 (  A) A  29 (  A) A  30 (  A) A  31 (  A) A  32 (  A) A
                   1.263       1.295       1.603       1.739       1.764
              33 (  A) A  34 (  A) A  35 (  A) A  36 (  A) A
                   1.818        1.85       1.868       1.917
  Block   2:  37 (  A) A  38 (  A) A  39 (  A) A  40 (  A) A  41 (  A) A
                   1.973       1.986       2.231       2.257       2.373
              42 (  A) A  43 (  A) A  44 (  A) A  45 (  A) A  46 (  A) A
                   2.453       2.519       2.652       2.722       2.832
              47 (  A) A  48 (  A) A
                   3.133       3.414
  Block   3:   9 (  A) B  10 (  A) B  11 (  A) B  12 (  A) B  13 (  A) B
                  0.1682      0.2042      0.2337      0.2388      0.3035
              14 (  A) B  15 (  A) B  16 (  A) B  17 (  A) B  18 (  A) B
                  0.4641      0.5794      0.6112      0.6891      0.7119
              19 (  A) B  20 (  A) B  21 (  A) B  22 (  A) B
                  0.7852      0.8079      0.8624      0.9365
  Block   4:  23 (  A) B  24 (  A) B  25 (  A) B  26 (  A) B  27 (  A) B
                   0.974       1.011       1.132       1.234       1.244
              28 (  A) B  29 (  A) B  30 (  A) B  31 (  A) B  32 (  A) B
                   1.263       1.295       1.603       1.739       1.764
              33 (  A) B  34 (  A) B  35 (  A) B  36 (  A) B
                   1.818        1.85       1.868       1.917
  Block   5:  37 (  A) B  38 (  A) B  39 (  A) B  40 (  A) B  41 (  A) B
                   1.973       1.986       2.231       2.257       2.373
              42 (  A) B  43 (  A) B  44 (  A) B  45 (  A) B  46 (  A) B
                   2.453       2.519       2.652       2.722       2.832
              47 (  A) B  48 (  A) B
                   3.133       3.414
  Import MO data ...  CPU 0.02 s  wall 0.61 s
  Import HF data ...  CPU 0.07 s  wall 0.32 s
  Import 2e integrals ...  CPU 0.92 s  wall 0.48 s

--------------------------------------------------------------------------------
                                   HF Summary                                   
--------------------------------------------------------------------------------
  Energy:                                                  -78.0397354588 a.u.
  Dip. moment [a.u.]:                  [   0.003353,   -0.002341,    0.001133]
  Total dipole [Debye]:                                               0.010785
  <r^2> [a.u.]:                        [ 175.302860,   35.012202,   11.615555]
  Total <r^2> [a.u.]:                                               221.930617
--------------------------------------------------------------------------------
  HF properties ...  CPU 0.01 s  wall 0.04 s
  MP(1) calculation ...  CPU 0.01 s  wall 0.06 s
  N^6 prerequesite intermediates ...  CPU 0.45 s  wall 0.19 s
  Difference density matrix of state mp2_gs printed to ASCII file 'State_mp2_gs_Difference.txt'
Exporting MP density matrix to file 'Densmat_MP.txt'.
Export successful
  Total density matrix of state mp2_gs printed to ASCII file 'State_mp2_gs_Total.txt'
Exporting MP density matrix to file 'Densmat_MP.txt'.
Export successful

--------------------------------------------------------------------------------
                                 MP(2) Summary                                  
--------------------------------------------------------------------------------
  MP energy contribution:                                   -0.2795534152 a.u.
  Total energy:                                            -78.3192888740 a.u.
  Dip. moment [a.u.]:                  [   0.002634,   -0.002693,    0.001063]
  Total dipole [Debye]:                                               0.009949
  <r^2> [a.u.]:                        [ 175.347674,   35.051068,   11.448121]
  Total <r^2> [a.u.]:                                               221.846863

  Density matrix analysis:
  ------------------------
  NOs
    Occupation of frontier NOs:
       0.0453   1.9383
    Number of electrons: 16.000000
    Number of unpaired electrons: n_u =  0.40283, n_u,nl =  0.04498
    NO participation ratio (PR_NO): 13.848470
  
  
  Mulliken Population Analysis
  Atom      Charge (e)              h+              e-           Del q
  --------------------------------------------------------------------
   1 H        0.048432        0.014254       -0.011163        0.003091
   2 C       -0.098687        0.092180       -0.098765       -0.006585
   3 H        0.048815        0.014313       -0.011122        0.003191
   4 C       -0.100441        0.093348       -0.098796       -0.005448
   5 H        0.050561        0.014102       -0.011185        0.002917
   6 H        0.051320        0.014026       -0.011193        0.002833
  --------------------------------------------------------------------
  Sum:        0.000000        0.242224       -0.242224       -0.000000
  
  Multipole moment analysis of the density matrix
    Molecular charge:                      0.000000
    Number of electrons:                   16.000000
      Center of electronic charge [Ang]: [ -1.560663,  -0.068013,   0.001943]
    Total nuclear charge:                  16.000000
      Center of nuclear charge [Ang]:    [ -1.560576,  -0.068102,   0.001978]
    Dipole moment [D]:                     0.009948
      Cartesian components [D]:          [  0.006696,  -0.006844,   0.002702]
    RMS size of the density [Ang]:         1.201006
      Cartesian components [Ang]:        [  0.795755,   0.780276,   0.447615]
  
  Exciton analysis of the difference density matrix
    <r_h> [Ang]:                  [ -1.562768,  -0.067748,   0.001679]
    <r_e> [Ang]:                  [ -1.561198,  -0.066979,   0.001830]
    |<r_e - r_h>| [Ang]:            0.001755
    Hole size [Ang]:                1.393478
      Cartesian components [Ang]: [  0.845074,   0.835591,   0.727612]
    Electron size [Ang]:            1.360134
      Cartesian components [Ang]: [  0.877988,   0.862118,   0.579529]
--------------------------------------------------------------------------------
  MP(2) calculation ...  CPU 0.11 s  wall 0.22 s
  Start ADC(2)-s ...  CPU 0.01 s  wall 0.00 s
  ADC(2) intermediates ...  CPU 0.02 s  wall 0.01 s
  Starting Davidson for singlet states of irrep A ... 
--------------------------------------------------------------------------------
   It NVec Conv  Avg. Norm  Max. Norm  Conv. states           Remark
--------------------------------------------------------------------------------
        10    0  1.330e-01  4.701e-01  0.4130 n n n n n n n n Guess.
    1   20    0  2.332e-02  1.118e-01  0.3261 n n n n n n n n 
    2   30    0  6.031e-03  2.960e-02  0.3214 n n n n n n n n 
    3   40    0  2.195e-03  1.643e-02  0.3210 n n n n n n n n 
    4   50    0  6.733e-04  5.301e-03  0.3210 n n n n n n n n 
    5   20    0  3.121e-04  2.498e-03  0.3210 n n n n n n n n Subspace collapsed.
    6   30    0  3.020e-04  2.899e-03  0.3210 n n n n n n n n 
    7   40    0  1.946e-04  1.886e-03  0.3210 n n n n n n n n 
    8   50    0  2.808e-04  2.785e-03  0.3210 n n n n n n n n 
    9   20    2  2.228e-04  2.208e-03  0.3210 n y n y n n n n Subspace collapsed.
   10   30    4  1.993e-04  1.986e-03  0.3210 n y y y y n n n 
   11   40    5  1.807e-04  1.805e-03  0.3210 n y y y y y n n 
   12   50    6  2.673e-04  2.672e-03  0.3210 y y y y y y n n 
   13   20    6  1.211e-04  1.211e-03  0.3210 y y y y y y n n Subspace collapsed.
   14   30    6  1.052e-04  1.052e-03  0.3210 y y y y y y n n 
   15   40    6  8.162e-05  8.162e-04  0.3210 y y y y y y n n 
   16   50    6  1.158e-04  1.158e-03  0.3210 y y y y y y n n 
   17   20    7  5.338e-05  5.338e-04  0.3210 y y y y y y n y Subspace collapsed.
   18   30    6  8.225e-05  8.225e-04  0.3210 y y y y y y n n 
   19   40    8  7.441e-05  7.441e-04  0.3210 y y y y y y y y 
   20   50    8  1.002e-04  1.002e-03  0.3210 y y y y y y y y 
   21   20    9  4.263e-05  4.263e-04  0.3210 y y y y y y y y Subspace collapsed.
   22   30    9  4.181e-05  4.181e-04  0.3210 y y y y y y y y 
   23   40    9  3.378e-05  3.378e-04  0.3210 y y y y y y y y 
   24   41    9  3.383e-05  3.383e-04  0.3210 y y y y y y y y 
   25   42    9  3.386e-05  3.386e-04  0.3210 y y y y y y y y 
   26   42    9  3.386e-05  3.386e-04  0.3210 y y y y y y y y 
   27   50    9  3.907e-05  3.907e-04  0.3210 y y y y y y y y 
   28   16    9  2.437e-05  2.437e-04  0.3210 y y y y y y y y Subspace collapsed.
   29   22    9  3.007e-05  3.007e-04  0.3210 y y y y y y y y 
   30   27    9  2.703e-05  2.703e-04  0.3210 y y y y y y y y 
   31   27    9  2.703e-05  2.703e-04  0.3210 y y y y y y y y 
   32   36    9  3.642e-05  3.642e-04  0.3210 y y y y y y y y 
   33   40    9  2.877e-05  2.877e-04  0.3210 y y y y y y y y 
   34   44    9  1.317e-05  1.317e-04  0.3210 y y y y y y y y 
   35   48    9  7.657e-06  7.657e-05  0.3210 y y y y y y y y 
   36   50    9  4.291e-06  4.291e-05  0.3210 y y y y y y y y 
   37   14    9  2.163e-06  2.163e-05  0.3210 y y y y y y y y Subspace collapsed.
   38   18    9  1.542e-06  1.542e-05  0.3210 y y y y y y y y 
   39   22    9  1.152e-06  1.152e-05  0.3210 y y y y y y y y 
   40   26    9  7.577e-07  7.577e-06  0.3210 y y y y y y y y 
   41   30    9  4.316e-07  4.316e-06  0.3210 y y y y y y y y 
   42   34    9  2.522e-07  2.522e-06  0.3210 y y y y y y y y 
   43   38    9  1.848e-07  1.848e-06  0.3210 y y y y y y y y 
   44   42    9  1.014e-07  1.014e-06  0.3210 y y y y y y y y 
   45   46   10  8.447e-08  8.447e-07  0.3210 y y y y y y y y Converged.
--------------------------------------------------------------------------------
  Davidson Summary: 
 ------------------------------------------------------------
  State  0: excitation energy =   0.3210 a.u.   (converged)
  State  1: excitation energy =   0.3317 a.u.   (converged)
  State  2: excitation energy =   0.3382 a.u.   (converged)
  State  3: excitation energy =   0.3619 a.u.   (converged)
  State  4: excitation energy =   0.3762 a.u.   (converged)
  State  5: excitation energy =   0.3883 a.u.   (converged)
  State  6: excitation energy =   0.4251 a.u.   (converged)
  State  7: excitation energy =   0.4463 a.u.   (converged)
  State  8: excitation energy =   0.4558 a.u.   (converged)
  State  9: excitation energy =   0.4647 a.u.   (converged)
 ------------------------------------------------------------

  Singlet states of irrep A ...  CPU 117.01 s  wall 31.27 s
  TDMs ...  CPU 0.59 s  wall 0.23 s
  SDMs ...  CPU 1.36 s  wall 0.44 s
  Starting TPA DIIS iterations ... 
------------------------------------ 
   It     Res. Norm  Remark
------------------------------------
                       Guess.
    1     4.420e+00  
    2     5.859e+00  
    3     1.073e+00  
    4     2.542e-01  
    5     6.560e-02  
    6     2.660e-02  
    7     8.227e-03  
    8     1.423e-03  
    9     5.336e-04  
   10     8.929e-05  
   11     2.812e-05  
   12     4.468e-06  
   13     1.433e-06  
   14     4.737e-07  Converged.
   ... Converged in 14 steps (norm: 4.73739e-07)
------------------------------------
  Starting TPA DIIS iterations ... 
------------------------------------ 
   It     Res. Norm  Remark
------------------------------------
                       Guess.
    1     4.185e+00  
    2     5.549e+00  
    3     1.035e+00  
    4     2.564e-01  
    5     6.510e-02  
    6     2.691e-02  
    7     8.186e-03  
    8     1.470e-03  
    9     5.411e-04  
   10     9.105e-05  
   11     2.890e-05  
   12     4.449e-06  
   13     1.524e-06  
   14     4.665e-07  Converged.
   ... Converged in 14 steps (norm: 4.6654e-07)
------------------------------------
  Starting TPA DIIS iterations ... 
------------------------------------ 
   It     Res. Norm  Remark
------------------------------------
                       Guess.
    1     6.832e-01  
    2     4.820e-01  
    3     1.711e-01  
    4     6.261e-02  
    5     1.802e-02  
    6     6.522e-03  
    7     1.030e-03  
    8     4.343e-04  
    9     1.307e-04  
   10     2.156e-05  
   11     9.921e-06  
   12     3.398e-06  
   13     2.313e-06  
   14     9.117e-07  Converged.
   ... Converged in 14 steps (norm: 9.11687e-07)
------------------------------------
  Starting TPA DIIS iterations ... 
------------------------------------ 
   It     Res. Norm  Remark
------------------------------------
                       Guess.
    1     4.686e+00  
    2     6.336e+00  
    3     1.148e+00  
    4     2.802e-01  
    5     7.325e-02  
    6     2.993e-02  
    7     9.240e-03  
    8     1.596e-03  
    9     6.029e-04  
   10     1.014e-04  
   11     3.225e-05  
   12     5.175e-06  
   13     1.669e-06  
   14     5.581e-07  Converged.
   ... Converged in 14 steps (norm: 5.58059e-07)
------------------------------------
  Starting TPA DIIS iterations ... 
------------------------------------ 
   It     Res. Norm  Remark
------------------------------------
                       Guess.
    1     4.436e+00  
    2     6.000e+00  
    3     1.107e+00  
    4     2.825e-01  
    5     7.271e-02  
    6     3.032e-02  
    7     9.200e-03  
    8     1.650e-03  
    9     6.111e-04  
   10     1.034e-04  
   11     3.312e-05  
   12     5.137e-06  
   13     1.781e-06  
   14     5.476e-07  Converged.
   ... Converged in 14 steps (norm: 5.47629e-07)
------------------------------------
  Starting TPA DIIS iterations ... 
------------------------------------ 
   It     Res. Norm  Remark
------------------------------------
                       Guess.
    1     6.942e-01  
    2     4.981e-01  
    3     1.803e-01  
    4     7.025e-02  
    5     1.929e-02  
    6     7.084e-03  
    7     1.153e-03  
    8     5.017e-04  
    9     1.526e-04  
   10     2.355e-05  
   11     1.150e-05  
   12     3.987e-06  
   13     2.845e-06  
   14     1.138e-06  
   15     3.977e-07  Converged.
   ... Converged in 15 steps (norm: 3.97698e-07)
------------------------------------
  Starting TPA DIIS iterations ... 
------------------------------------ 
   It     Res. Norm  Remark
------------------------------------
                       Guess.
    1     4.859e+00  
    2     6.650e+00  
    3     1.196e+00  
    4     2.977e-01  
    5     7.837e-02  
    6     3.217e-02  
    7     9.920e-03  
    8     1.712e-03  
    9     6.497e-04  
   10     1.096e-04  
   11     3.507e-05  
   12     5.660e-06  
   13     1.832e-06  
   14     6.172e-07  Converged.
   ... Converged in 14 steps (norm: 6.17246e-07)
------------------------------------
  Starting TPA DIIS iterations ... 
------------------------------------ 
   It     Res. Norm  Remark
------------------------------------
                       Guess.
    1     4.599e+00  
    2     6.297e+00  
    3     1.153e+00  
    4     2.999e-01  
    5     7.781e-02  
    6     3.261e-02  
    7     9.881e-03  
    8     1.770e-03  
    9     6.583e-04  
   10     1.118e-04  
   11     3.599e-05  
   12     5.608e-06  
   13     1.959e-06  
   14     6.043e-07  Converged.
   ... Converged in 14 steps (norm: 6.04274e-07)
------------------------------------
  Starting TPA DIIS iterations ... 
------------------------------------ 
   It     Res. Norm  Remark
------------------------------------
                       Guess.
    1     7.010e-01  
    2     5.082e-01  
    3     1.862e-01  
    4     7.545e-02  
    5     2.011e-02  
    6     7.460e-03  
    7     1.236e-03  
    8     5.479e-04  
    9     1.676e-04  
   10     2.474e-05  
   11     1.260e-05  
   12     4.403e-06  
   13     3.230e-06  
   14     1.305e-06  
   15     4.486e-07  Converged.
   ... Converged in 15 steps (norm: 4.48602e-07)
------------------------------------
  Starting TPA DIIS iterations ... 
------------------------------------ 
   It     Res. Norm  Remark
------------------------------------
                       Guess.
    1     5.589e+00  
    2     8.013e+00  
    3     1.399e+00  
    4     3.758e-01  
    5     1.014e-01  
    6     4.233e-02  
    7     1.297e-02  
    8     2.231e-03  
    9     8.615e-04  
   10     1.468e-04  
   11     4.815e-05  
   12     7.931e-06  
   13     2.610e-06  
   14     9.101e-07  Converged.
   ... Converged in 14 steps (norm: 9.10077e-07)
------------------------------------
  Starting TPA DIIS iterations ... 
------------------------------------ 
   It     Res. Norm  Remark
------------------------------------
                       Guess.
    1     5.288e+00  
    2     7.588e+00  
    3     1.348e+00  
    4     3.782e-01  
    5     1.007e-01  
    6     4.303e-02  
    7     1.294e-02  
    8     2.310e-03  
    9     8.717e-04  
   10     1.496e-04  
   11     4.926e-05  
   12     7.789e-06  
   13     2.815e-06  
   14     8.814e-07  Converged.
   ... Converged in 14 steps (norm: 8.8142e-07)
------------------------------------
  Starting TPA DIIS iterations ... 
------------------------------------ 
   It     Res. Norm  Remark
------------------------------------
                       Guess.
    1     7.271e-01  
    2     5.489e-01  
    3     2.103e-01  
    4     9.948e-02  
    5     2.355e-02  
    6     9.150e-03  
    7     1.627e-03  
    8     7.561e-04  
    9     2.350e-04  
   10     2.983e-05  
   11     1.788e-05  
   12     6.493e-06  
   13     5.234e-06  
   14     2.195e-06  
   15     6.761e-07  Converged.
   ... Converged in 15 steps (norm: 6.761e-07)
------------------------------------
  Starting TPA DIIS iterations ... 
------------------------------------ 
   It     Res. Norm  Remark
------------------------------------
                       Guess.
    1     6.121e+00  
    2     9.040e+00  
    3     1.546e+00  
    4     4.370e-01  
    5     1.193e-01  
    6     5.037e-02  
    7     1.536e-02  
    8     2.635e-03  
    9     1.029e-03  
   10     1.763e-04  
   11     5.877e-05  
   12     9.796e-06  
   13     3.261e-06  
   14     1.172e-06  
   15     3.292e-07  Converged.
   ... Converged in 15 steps (norm: 3.29189e-07)
------------------------------------
  Starting TPA DIIS iterations ... 
------------------------------------ 
   It     Res. Norm  Remark
------------------------------------
                       Guess.
    1     5.790e+00  
    2     8.560e+00  
    3     1.489e+00  
    4     4.394e-01  
    5     1.186e-01  
    6     5.129e-02  
    7     1.534e-02  
    8     2.730e-03  
    9     1.040e-03  
   10     1.796e-04  
   11     5.996e-05  
   12     9.553e-06  
   13     3.540e-06  
   14     1.125e-06  
   15     5.106e-07  Converged.
   ... Converged in 15 steps (norm: 5.10638e-07)
------------------------------------
  Starting TPA DIIS iterations ... 
------------------------------------ 
   It     Res. Norm  Remark
------------------------------------
                       Guess.
    1     7.438e-01  
    2     5.766e-01  
    3     2.273e-01  
    4     1.189e-01  
    5     2.612e-02  
    6     1.048e-02  
    7     1.947e-03  
    8     9.104e-04  
    9     2.857e-04  
   10     3.463e-05  
   11     2.242e-05  
   12     8.384e-06  
   13     7.114e-06  
   14     3.031e-06  
   15     8.677e-07  Converged.
   ... Converged in 15 steps (norm: 8.6765e-07)
------------------------------------
  Starting TPA DIIS iterations ... 
------------------------------------ 
   It     Res. Norm  Remark
------------------------------------
                       Guess.
    1     6.638e+00  
    2     1.007e+01  
    3     1.688e+00  
    4     4.996e-01  
    5     1.377e-01  
    6     5.868e-02  
    7     1.780e-02  
    8     3.049e-03  
    9     1.203e-03  
   10     2.067e-04  
   11     6.988e-05  
   12     1.177e-05  
   13     3.958e-06  
   14     1.472e-06  
   15     4.131e-07  Converged.
   ... Converged in 15 steps (norm: 4.13052e-07)
------------------------------------
  Starting TPA DIIS iterations ... 
------------------------------------ 
   It     Res. Norm  Remark
------------------------------------
                       Guess.
    1     6.279e+00  
    2     9.532e+00  
    3     1.625e+00  
    4     5.020e-01  
    5     1.370e-01  
    6     5.984e-02  
    7     1.779e-02  
    8     3.159e-03  
    9     1.214e-03  
   10     2.106e-04  
   11     7.110e-05  
   12     1.139e-05  
   13     4.324e-06  
   14     1.400e-06  
   15     6.633e-07  Converged.
   ... Converged in 15 steps (norm: 6.63317e-07)
------------------------------------
  Starting TPA DIIS iterations ... 
------------------------------------ 
   It     Res. Norm  Remark
------------------------------------
                       Guess.
    1     7.585e-01  
    2     6.022e-01  
    3     2.434e-01  
    4     1.391e-01  
    5     2.869e-02  
    6     1.183e-02  
    7     2.287e-03  
    8     1.054e-03  
    9     3.350e-04  
   10     4.073e-05  
   11     2.742e-05  
   12     1.056e-05  
   13     9.319e-06  
   14     3.998e-06  
   15     1.102e-06  
   16     5.957e-07  Converged.
   ... Converged in 16 steps (norm: 5.95745e-07)
------------------------------------
  Starting TPA DIIS iterations ... 
------------------------------------ 
   It     Res. Norm  Remark
------------------------------------
                       Guess.
    1     8.735e+00  
    2     1.446e+01  
    3     2.254e+00  
    4     7.797e-01  
    5     2.203e-01  
    6     9.666e-02  
    7     2.876e-02  
    8     4.894e-03  
    9     1.994e-03  
   10     3.456e-04  
   11     1.209e-04  
   12     2.125e-05  
   13     7.300e-06  
   14     3.238e-06  
   15     9.699e-07  Converged.
   ... Converged in 15 steps (norm: 9.69865e-07)
------------------------------------
  Starting TPA DIIS iterations ... 
------------------------------------ 
   It     Res. Norm  Remark
------------------------------------
                       Guess.
    1     8.261e+00  
    2     1.369e+01  
    3     2.168e+00  
    4     7.817e-01  
    5     2.194e-01  
    6     9.901e-02  
    7     2.880e-02  
    8     5.071e-03  
    9     2.003e-03  
   10     3.510e-04  
   11     1.214e-04  
   12     1.988e-05  
   13     8.216e-06  
   14     2.965e-06  
   15     1.566e-06  
   16     5.601e-07  Converged.
   ... Converged in 16 steps (norm: 5.60119e-07)
------------------------------------
  Starting TPA DIIS iterations ... 
------------------------------------ 
   It     Res. Norm  Remark
------------------------------------
                       Guess.
    1     8.076e-01  
    2     6.954e-01  
    3     3.048e-01  
    4     2.296e-01  
    5     3.992e-02  
    6     1.781e-02  
    7     3.894e-03  
    8     1.492e-03  
    9     5.267e-04  
   10     7.670e-05  
   11     5.339e-05  
   12     2.307e-05  
   13     2.233e-05  
   14     9.347e-06  
   15     2.936e-06  
   16     1.495e-06  
   17     3.867e-07  Converged.
   ... Converged in 17 steps (norm: 3.86719e-07)
------------------------------------
  Starting TPA DIIS iterations ... 
------------------------------------ 
   It     Res. Norm  Remark
------------------------------------
                       Guess.
    1     1.047e+01  
    2     1.837e+01  
    3     2.712e+00  
    4     1.037e+00  
    5     2.969e-01  
    6     1.327e-01  
    7     3.892e-02  
    8     6.598e-03  
    9     2.744e-03  
   10     4.762e-04  
   11     1.678e-04  
   12     3.091e-05  
   13     1.058e-05  
   14     5.489e-06  
   15     1.877e-06  
   16     1.463e-06  
   17     7.427e-07  Converged.
   ... Converged in 17 steps (norm: 7.42692e-07)
------------------------------------
  Starting TPA DIIS iterations ... 
------------------------------------ 
   It     Res. Norm  Remark
------------------------------------
                       Guess.
    1     9.906e+00  
    2     1.740e+01  
    3     2.606e+00  
    4     1.038e+00  
    5     2.960e-01  
    6     1.363e-01  
    7     3.902e-02  
    8     6.832e-03  
    9     2.747e-03  
   10     4.823e-04  
   11     1.669e-04  
   12     2.804e-05  
   13     1.231e-05  
   14     4.922e-06  
   15     2.732e-06  
   16     9.575e-07  Converged.
   ... Converged in 16 steps (norm: 9.57532e-07)
------------------------------------
  Starting TPA DIIS iterations ... 
------------------------------------ 
   It     Res. Norm  Remark
------------------------------------
                       Guess.
    1     8.394e-01  
    2     7.635e-01  
    3     3.520e-01  
    4     3.076e-01  
    5     4.999e-02  
    6     2.297e-02  
    7     5.423e-03  
    8     1.691e-03  
    9     6.774e-04  
   10     1.133e-04  
   11     8.163e-05  
   12     3.820e-05  
   13     3.789e-05  
   14     1.538e-05  
   15     5.673e-06  
   16     2.576e-06  
   17     5.871e-07  Converged.
   ... Converged in 17 steps (norm: 5.8713e-07)
------------------------------------
  Starting TPA DIIS iterations ... 
------------------------------------ 
   It     Res. Norm  Remark
------------------------------------
                       Guess.
    1     1.144e+01  
    2     2.063e+01  
    3     2.961e+00  
    4     1.188e+00  
    5     3.420e-01  
    6     1.542e-01  
    7     4.491e-02  
    8     7.602e-03  
    9     3.191e-03  
   10     5.536e-04  
   11     1.951e-04  
   12     3.705e-05  
   13     1.262e-05  
   14     7.067e-06  
   15     2.621e-06  
   16     1.990e-06  
   17     9.675e-07  Converged.
   ... Converged in 17 steps (norm: 9.67545e-07)
------------------------------------
  Starting TPA DIIS iterations ... 
------------------------------------ 
   It     Res. Norm  Remark
------------------------------------
                       Guess.
    1     1.082e+01  
    2     1.954e+01  
    3     2.845e+00  
    4     1.188e+00  
    5     3.411e-01  
    6     1.586e-01  
    7     4.504e-02  
    8     7.866e-03  
    9     3.189e-03  
   10     5.599e-04  
   11     1.930e-04  
   12     3.303e-05  
   13     1.498e-05  
   14     6.311e-06  
   15     3.583e-06  
   16     1.240e-06  
   17     9.251e-07  Converged.
   ... Converged in 17 steps (norm: 9.25108e-07)
------------------------------------
  Starting TPA DIIS iterations ... 
------------------------------------ 
   It     Res. Norm  Remark
------------------------------------
                       Guess.
    1     8.547e-01  
    2     7.988e-01  
    3     3.770e-01  
    4     3.492e-01  
    5     5.578e-02  
    6     2.577e-02  
    7     6.316e-03  
    8     1.767e-03  
    9     7.591e-04  
   10     1.348e-04  
   11     9.974e-05  
   12     4.845e-05  
   13     4.824e-05  
   14     1.929e-05  
   15     7.648e-06  
   16     3.306e-06  
   17     7.119e-07  Converged.
   ... Converged in 17 steps (norm: 7.11913e-07)
------------------------------------
  Starting TPA DIIS iterations ... 
------------------------------------ 
   It     Res. Norm  Remark
------------------------------------
                       Guess.
    1     1.247e+01  
    2     2.312e+01  
    3     3.226e+00  
    4     1.354e+00  
    5     3.923e-01  
    6     1.784e-01  
    7     5.159e-02  
    8     8.719e-03  
    9     3.694e-03  
   10     6.401e-04  
   11     2.252e-04  
   12     4.428e-05  
   13     1.503e-05  
   14     9.022e-06  
   15     3.633e-06  
   16     2.678e-06  
   17     1.226e-06  
   18     5.719e-07  Converged.
   ... Converged in 18 steps (norm: 5.71915e-07)
------------------------------------
  Starting TPA DIIS iterations ... 
------------------------------------ 
   It     Res. Norm  Remark
------------------------------------
                       Guess.
    1     1.180e+01  
    2     2.190e+01  
    3     3.098e+00  
    4     1.353e+00  
    5     3.915e-01  
    6     1.836e-01  
    7     5.176e-02  
    8     9.016e-03  
    9     3.684e-03  
   10     6.464e-04  
   11     2.216e-04  
   12     3.878e-05  
   13     1.822e-05  
   14     8.061e-06  
   15     4.686e-06  
   16     1.605e-06  
   17     1.254e-06  
   18     3.277e-07  Converged.
   ... Converged in 18 steps (norm: 3.27714e-07)
------------------------------------
  Starting TPA DIIS iterations ... 
------------------------------------ 
   It     Res. Norm  Remark
------------------------------------
                       Guess.
    1     8.696e-01  
    2     8.349e-01  
    3     4.029e-01  
    4     3.912e-01  
    5     6.211e-02  
    6     2.865e-02  
    7     7.295e-03  
    8     1.838e-03  
    9     8.458e-04  
   10     1.585e-04  
   11     1.210e-04  
   12     6.088e-05  
   13     6.075e-05  
   14     2.392e-05  
   15     1.012e-05  
   16     4.191e-06  
   17     8.633e-07  Converged.
   ... Converged in 17 steps (norm: 8.63267e-07)
------------------------------------
  Two-photon absorbption ...  CPU 95.82 s  wall 18.68 s
  Transition density matrix of state singlet_A_1 printed to ASCII file 'State_singlet_A_1_Transition.txt'
  Transition density matrix of state singlet_A_2 printed to ASCII file 'State_singlet_A_2_Transition.txt'
  Transition density matrix of state singlet_A_3 printed to ASCII file 'State_singlet_A_3_Transition.txt'
  Transition density matrix of state singlet_A_4 printed to ASCII file 'State_singlet_A_4_Transition.txt'
  Transition density matrix of state singlet_A_5 printed to ASCII file 'State_singlet_A_5_Transition.txt'
  Transition density matrix of state singlet_A_6 printed to ASCII file 'State_singlet_A_6_Transition.txt'
  Transition density matrix of state singlet_A_7 printed to ASCII file 'State_singlet_A_7_Transition.txt'
  Transition density matrix of state singlet_A_8 printed to ASCII file 'State_singlet_A_8_Transition.txt'
  Transition density matrix of state singlet_A_9 printed to ASCII file 'State_singlet_A_9_Transition.txt'
  Transition density matrix of state singlet_A_10 printed to ASCII file 'State_singlet_A_10_Transition.txt'
  Transition properties ...  CPU 0.14 s  wall 0.87 s
  Difference density matrix of state singlet_A_1 printed to ASCII file 'State_singlet_A_1_Difference.txt'
  Total density matrix of state singlet_A_1 printed to ASCII file 'State_singlet_A_1_Total.txt'
  Difference density matrix of state singlet_A_2 printed to ASCII file 'State_singlet_A_2_Difference.txt'
  Total density matrix of state singlet_A_2 printed to ASCII file 'State_singlet_A_2_Total.txt'
  Difference density matrix of state singlet_A_3 printed to ASCII file 'State_singlet_A_3_Difference.txt'
  Total density matrix of state singlet_A_3 printed to ASCII file 'State_singlet_A_3_Total.txt'
  Difference density matrix of state singlet_A_4 printed to ASCII file 'State_singlet_A_4_Difference.txt'
  Total density matrix of state singlet_A_4 printed to ASCII file 'State_singlet_A_4_Total.txt'
  Difference density matrix of state singlet_A_5 printed to ASCII file 'State_singlet_A_5_Difference.txt'
  Total density matrix of state singlet_A_5 printed to ASCII file 'State_singlet_A_5_Total.txt'
  Difference density matrix of state singlet_A_6 printed to ASCII file 'State_singlet_A_6_Difference.txt'
  Total density matrix of state singlet_A_6 printed to ASCII file 'State_singlet_A_6_Total.txt'
  Difference density matrix of state singlet_A_7 printed to ASCII file 'State_singlet_A_7_Difference.txt'
  Total density matrix of state singlet_A_7 printed to ASCII file 'State_singlet_A_7_Total.txt'
  Difference density matrix of state singlet_A_8 printed to ASCII file 'State_singlet_A_8_Difference.txt'
  Total density matrix of state singlet_A_8 printed to ASCII file 'State_singlet_A_8_Total.txt'
  Difference density matrix of state singlet_A_9 printed to ASCII file 'State_singlet_A_9_Difference.txt'
  Total density matrix of state singlet_A_9 printed to ASCII file 'State_singlet_A_9_Total.txt'
  Difference density matrix of state singlet_A_10 printed to ASCII file 'State_singlet_A_10_Difference.txt'
  Total density matrix of state singlet_A_10 printed to ASCII file 'State_singlet_A_10_Total.txt'
  Properties ...  CPU 0.27 s  wall 0.90 s
  ISR TDMS ...  CPU 8.04 s  wall 2.68 s
  ISR transition properties ...  CPU 0.15 s  wall 0.07 s
  Sum-over-states TPA ...  CPU 0.00 s  wall 0.00 s

--------------------------------------------------------------------------------
                   State-averaged natural transition orbitals
--------------------------------------------------------------------------------
--------------------------------------------------------------------------------
  SA-NTO decomposition ...  CPU 0.01 s  wall 0.03 s

--------------------------------------------------------------------------------
                             Excited State Summary
--------------------------------------------------------------------------------
--------------------------------------------------------------------------------

  Excited state 1 (singlet, A)                                     [converged]
  ----------------------------------------------------------------------------
  Term symbol:  2 (1) A                                     R^2 =  8.36965e-14

  Total energy:                                            -77.9983214173 a.u.
  Excitation energy:                                               8.733969 eV

  Osc. strength:                                                      0.445109
  Trans. dip. moment [a.u.]:           [  -1.041447,    0.997722,    0.009829]
  <i|r^2|0> [a.u.]:                    [  -6.152471,    0.256175,   -0.000592]
  Two-photon absorption cross-section (SoS) [a.u.]:                   0.010670
  Two-photon absorption matrix (SoS) [a.u.]:
                                       |   -0.007018   -0.014205   -0.001544 |
                                       |   -0.014205    0.028116   -0.000989 |
                                       |   -0.001544   -0.000989    0.022054 |
  Two-photon absorption cross-section [a.u.]:                         0.010388
  Two-photon absorption matrix [a.u.]:
                                       |   -0.036265   -0.014742    0.000966 |
                                       |   -0.014742    0.020584    0.000943 |
                                       |    0.000966    0.000943    0.020237 |

  Dip. moment [a.u.]:                  [   0.001567,   -0.002905,    0.001274]
  Total dipole [Debye]:                                               0.008991
  <r^2> [a.u.]:                        [ 176.096160,   35.737987,   11.859222]
  Total <r^2> [a.u.]:                                               223.693368

  V1^2 = 0.9715, V2^2 = 0.0285

  Important amplitudes:
      occ i     occ j     vir a      vir b          v   
    -----------------------------------------------------
     8 (A) A              9 (A) A                 0.6812
     6 (A) A             14 (A) A                 0.0621
     4 (A) A             10 (A) A                -0.0598
     7 (A) A             16 (A) A                 0.0577
     5 (A) A             13 (A) A                -0.0514
     6 (A) A             23 (A) A                 0.0478
     8 (A) A             20 (A) A                 0.0347
     6 (A) A             19 (A) A                -0.0311
     3 (A) A             12 (A) A                -0.0281
     5 (A) A             22 (A) A                -0.0214
     7 (A) A             11 (A) A                -0.0194
     4 (A) A             24 (A) A                -0.0187
     8 (A) A   8 (A) B   17 (A) A   20 (A) B     -0.0184
     3 (A) A             26 (A) A                 0.0182
     8 (A) A   8 (A) B    9 (A) A   28 (A) B     -0.0168
     6 (A) A             26 (A) A                 0.0164
     7 (A) A             21 (A) A                -0.0143
     3 (A) A             14 (A) A                 0.0140
     3 (A) A   4 (A) B    9 (A) A    9 (A) B      0.0129
     6 (A) A             12 (A) A                 0.0126
     3 (A) A             19 (A) A                -0.0119
     8 (A) A   8 (A) B   18 (A) A   19 (A) B      0.0113
     7 (A) A             32 (A) A                -0.0087
     7 (A) A             36 (A) A                 0.0086
     3 (A) A             23 (A) A                 0.0077
     8 (A) A   8 (A) B   25 (A) A   29 (A) B     -0.0076
     6 (A) A             35 (A) A                 0.0071
     6 (A) A             40 (A) A                -0.0068
     3 (A) A   6 (A) B    9 (A) A   28 (A) B     -0.0065
     6 (A) A   8 (A) A   19 (A) A   28 (A) A     -0.0061
     5 (A) A   7 (A) B    9 (A) A    9 (A) B      0.0060
     5 (A) A   8 (A) B   11 (A) A    9 (A) B      0.0060
     7 (A) A   8 (A) B   13 (A) A   20 (A) B     -0.0059
     5 (A) A   8 (A) B   16 (A) A    9 (A) B      0.0059
     5 (A) A   8 (A) B   11 (A) A   20 (A) B     -0.0059
     3 (A) A   5 (A) B    9 (A) A   25 (A) B     -0.0058
     7 (A) A   8 (A) B   22 (A) A   20 (A) B     -0.0057
     3 (A) A             40 (A) A                -0.0057
     6 (A) A   8 (A) A    9 (A) A   18 (A) A     -0.0056
     5 (A) A             27 (A) A                -0.0055
    -----------------------------------------------------

  Density matrix analysis:
  ------------------------
  NOs
    Occupation of frontier NOs:
       0.9498   1.0215
    Number of electrons: 16.000000
    Number of unpaired electrons: n_u =  2.31289, n_u,nl =  2.03250
    NO participation ratio (PR_NO):  2.861371
  
  
  Mulliken Population Analysis
  Atom      Charge (e)              h+              e-           Del q
  --------------------------------------------------------------------
   1 H        0.056616        0.020521       -0.012337        0.008184
   2 C       -0.114898        0.490517       -0.506728       -0.016211
   3 H        0.056608        0.020315       -0.012522        0.007793
   4 C       -0.115817        0.491004       -0.506381       -0.015376
   5 H        0.058164        0.020138       -0.012536        0.007603
   6 H        0.059327        0.020466       -0.012459        0.008007
  --------------------------------------------------------------------
  Sum:        0.000000        1.062962       -1.062962        0.000000
  
  Multipole moment analysis of the density matrix
    Molecular charge:                      0.000000
    Number of electrons:                   16.000000
      Center of electronic charge [Ang]: [ -1.560628,  -0.068006,   0.001936]
    Total nuclear charge:                  16.000000
      Center of nuclear charge [Ang]:    [ -1.560576,  -0.068102,   0.001978]
    Dipole moment [D]:                     0.008991
      Cartesian components [D]:          [  0.003982,  -0.007383,   0.003237]
    RMS size of the density [Ang]:         1.214432
      Cartesian components [Ang]:        [  0.804013,   0.787943,   0.455581]
  
  Exciton analysis of the difference density matrix
    <r_h> [Ang]:                  [ -1.560564,  -0.066552,   0.001497]
    <r_e> [Ang]:                  [ -1.560032,  -0.066446,   0.001392]
    |<r_e - r_h>| [Ang]:            0.000552
    Hole size [Ang]:                1.285510
      Cartesian components [Ang]: [  0.728318,   0.713115,   0.783297]
    Electron size [Ang]:            1.463098
      Cartesian components [Ang]: [  0.853984,   0.830368,   0.849621]

  Transition density matrix analysis:
  -----------------------------------
  
  CT numbers (Mulliken)
    omega =     0.9536
    <Phe> =    -0.1611
  
  Exciton analysis of the transition density matrix
    Trans. dipole moment [D]:             1.832949
      Cartesian components [D]:         [ -1.323547,   1.267978,   0.012491]
    <r_h> [Ang]:                        [ -1.560720,  -0.066011,   0.001610]
    <r_e> [Ang]:                        [ -1.560053,  -0.066539,   0.001292]
    |<r_e - r_h>| [Ang]:                  0.000909
    Hole size [Ang]:                      1.214084
      Cartesian components [Ang]:       [  0.649413,   0.636579,   0.804382]
    Electron size [Ang]:                  1.486068
      Cartesian components [Ang]:       [  0.864416,   0.839407,   0.869816]
    RMS electron-hole separation [Ang]:   1.937323
      Cartesian components [Ang]:       [  1.107406,   1.075476,   1.170565]
    Covariance(r_h, r_e) [Ang^2]:        -0.035409
    Correlation coefficient:             -0.019626
    Center-of-mass size [Ang]:            0.950208
      Cartesian components [Ang]:       [  0.527152,   0.515515,   0.599375]

  Decomposition into state-averaged NTOs
    H- 0 -> L+ 0:  0.6700 ( 89.8%)
    H- 2 -> L+ 5: -0.0833 (  1.4%)
                   omega =  95.4%
  ----------------------------------------------------------------------------


  Excited state 2 (singlet, A)                                     [converged]
  ----------------------------------------------------------------------------
  Term symbol:  3 (1) A                                     R^2 =  1.11658e-13

  Total energy:                                            -77.9875404498 a.u.
  Excitation energy:                                               9.027334 eV

  Osc. strength:                                                      0.000104
  Trans. dip. moment [a.u.]:           [   0.007889,   -0.004451,   -0.019679]
  <i|r^2|0> [a.u.]:                    [   0.107346,    0.089233,   -0.151080]
  Two-photon absorption cross-section (SoS) [a.u.]:                   4.450966
  Two-photon absorption matrix (SoS) [a.u.]:
                                       |    0.047678    0.056322   -0.511273 |
                                       |    0.056322    0.065507   -0.531173 |
                                       |   -0.511273   -0.531173   -0.112890 |
  Two-photon absorption cross-section [a.u.]:                         0.096637
  Two-photon absorption matrix [a.u.]:
                                       |   -0.006718   -0.007233    0.037322 |
                                       |   -0.007233   -0.008722    0.102205 |
                                       |    0.037322    0.102205    0.015995 |

  Dip. moment [a.u.]:                  [   0.032925,   -0.001756,    0.003988]
  Total dipole [Debye]:                                               0.084418
  <r^2> [a.u.]:                        [ 174.809542,   33.924855,   13.166006]
  Total <r^2> [a.u.]:                                               221.900403

  V1^2 = 0.9542, V2^2 = 0.0458

  Important amplitudes:
      occ i     occ j     vir a      vir b          v   
    -----------------------------------------------------
     7 (A) A              9 (A) A                 0.6696
     8 (A) A             11 (A) A                -0.1406
     7 (A) A             20 (A) A                 0.0759
     8 (A) A             10 (A) A                 0.0389
     5 (A) A   8 (A) B    9 (A) A    9 (A) B      0.0317
     8 (A) A             16 (A) A                -0.0267
     8 (A) A             21 (A) A                -0.0169
     5 (A) A             28 (A) A                 0.0151
     4 (A) A   7 (A) B    9 (A) A   19 (A) B     -0.0135
     5 (A) A   7 (A) B    9 (A) A   16 (A) B     -0.0134
     8 (A) A             12 (A) A                -0.0114
     7 (A) A   8 (A) B   20 (A) A   17 (A) B     -0.0105
     7 (A) A   8 (A) A    9 (A) A   28 (A) A      0.0098
     5 (A) A   8 (A) B    9 (A) A   20 (A) B      0.0096
     4 (A) A   6 (A) B    9 (A) A   16 (A) B      0.0090
     5 (A) A   6 (A) A    9 (A) A   23 (A) A     -0.0090
     5 (A) A   6 (A) A    9 (A) A   14 (A) A     -0.0089
     6 (A) A              9 (A) A                -0.0087
     5 (A) A   6 (A) B    9 (A) A   19 (A) B      0.0087
     8 (A) A   7 (A) B    9 (A) A   28 (A) B     -0.0085
     4 (A) A   5 (A) A    9 (A) A   10 (A) A     -0.0084
     6 (A) A   7 (A) B    9 (A) A   18 (A) B     -0.0083
     3 (A) A   7 (A) B    9 (A) A   18 (A) B      0.0080
     5 (A) A   7 (A) A    9 (A) A   16 (A) A     -0.0080
     5 (A) A   6 (A) B    9 (A) A   23 (A) B     -0.0079
     4 (A) A   8 (A) B    9 (A) A   25 (A) B     -0.0076
     7 (A) A   8 (A) B   17 (A) A   20 (A) B     -0.0074
     4 (A) A   7 (A) B   19 (A) A    9 (A) B     -0.0074
     5 (A) A   5 (A) B    9 (A) A   13 (A) B      0.0072
     7 (A) A   8 (A) B   19 (A) A   18 (A) B      0.0071
     5 (A) A   8 (A) A    9 (A) A   20 (A) A      0.0069
     4 (A) A   5 (A) B    9 (A) A   18 (A) B      0.0068
     7 (A) A   7 (A) B   20 (A) A   22 (A) B     -0.0065
     7 (A) A   8 (A) B   17 (A) A    9 (A) B     -0.0065
     5 (A) A   6 (A) B    9 (A) A   14 (A) B     -0.0064
     4 (A) A   7 (A) A    9 (A) A   19 (A) A     -0.0061
     4 (A) A   5 (A) B   10 (A) A    9 (A) B      0.0061
     5 (A) A   7 (A) B   11 (A) A   20 (A) B     -0.0060
     5 (A) A             38 (A) A                 0.0060
     4 (A) A   6 (A) B   16 (A) A    9 (A) B      0.0058
    -----------------------------------------------------

  Density matrix analysis:
  ------------------------
  NOs
    Occupation of frontier NOs:
       0.9593   1.0525
    Number of electrons: 16.000000
    Number of unpaired electrons: n_u =  2.35464, n_u,nl =  2.06178
    NO participation ratio (PR_NO):  3.018281
  
  
  Mulliken Population Analysis
  Atom      Charge (e)              h+              e-           Del q
  --------------------------------------------------------------------
   1 H        0.146972        0.115592       -0.017052        0.098540
   2 C       -0.300041        0.275906       -0.477260       -0.201354
   3 H        0.155520        0.137363       -0.030658        0.106705
   4 C       -0.302360        0.269497       -0.471416       -0.201919
   5 H        0.161027        0.128812       -0.018346        0.110466
   6 H        0.138881        0.117362       -0.029801        0.087562
  --------------------------------------------------------------------
  Sum:        0.000000        1.044532       -1.044532       -0.000000
  
  Multipole moment analysis of the density matrix
    Molecular charge:                      0.000000
    Number of electrons:                   16.000000
      Center of electronic charge [Ang]: [ -1.561665,  -0.068044,   0.001846]
    Total nuclear charge:                  16.000000
      Center of nuclear charge [Ang]:    [ -1.560576,  -0.068102,   0.001978]
    Dipole moment [D]:                     0.084418
      Cartesian components [D]:          [  0.083688,  -0.004464,   0.010137]
    RMS size of the density [Ang]:         1.200092
      Cartesian components [Ang]:        [  0.787833,   0.767539,   0.480026]
  
  Exciton analysis of the difference density matrix
    <r_h> [Ang]:                  [ -1.559356,  -0.085647,   0.001092]
    <r_e> [Ang]:                  [ -1.574702,  -0.086121,  -0.000390]
    |<r_e - r_h>| [Ang]:            0.015425
    Hole size [Ang]:                1.486473
      Cartesian components [Ang]: [  0.981018,   1.020329,   0.454022]
    Electron size [Ang]:            1.475053
      Cartesian components [Ang]: [  0.877515,   0.859688,   0.816507]

  Transition density matrix analysis:
  -----------------------------------
  
  CT numbers (Mulliken)
    omega =     0.9218
    <Phe> =    -0.0123
  
  Exciton analysis of the transition density matrix
    Trans. dipole moment [D]:             0.027532
      Cartesian components [D]:         [  0.010026,  -0.005657,  -0.025010]
    <r_h> [Ang]:                        [ -1.558301,  -0.087810,   0.001187]
    <r_e> [Ang]:                        [ -1.576330,  -0.085060,  -0.000568]
    |<r_e - r_h>| [Ang]:                  0.018321
    Hole size [Ang]:                      1.515194
      Cartesian components [Ang]:       [  1.001616,   1.046894,   0.443387]
    Electron size [Ang]:                  1.472252
      Cartesian components [Ang]:       [  0.868658,   0.848546,   0.832423]
    RMS electron-hole separation [Ang]:   2.092928
      Cartesian components [Ang]:       [  1.310033,   1.332681,   0.942403]
    Covariance(r_h, r_e) [Ang^2]:         0.041662
    Correlation coefficient:              0.018676
    Center-of-mass size [Ang]:            1.066145
      Cartesian components [Ang]:       [  0.670772,   0.681176,   0.471943]

  Decomposition into state-averaged NTOs
    H- 1 -> L+ 0: -0.6620 ( 87.6%)
    H- 0 -> L+ 2: -0.1391 (  3.9%)
                   omega =  92.2%
  ----------------------------------------------------------------------------


  Excited state 3 (singlet, A)                                     [converged]
  ----------------------------------------------------------------------------
  Term symbol:  4 (1) A                                     R^2 =  9.55826e-14

  Total energy:                                            -77.9810677890 a.u.
  Excitation energy:                                               9.203464 eV

  Osc. strength:                                                      0.025999
  Trans. dip. moment [a.u.]:           [  -0.016148,   -0.020256,    0.338576]
  <i|r^2|0> [a.u.]:                    [  -0.088734,   -0.003275,   -0.009778]
  Two-photon absorption cross-section (SoS) [a.u.]:                   0.238233
  Two-photon absorption matrix (SoS) [a.u.]:
                                       |    0.009430   -0.012444    0.115199 |
                                       |   -0.012444   -0.038410    0.124119 |
                                       |    0.115199    0.124119    0.015547 |
  Two-photon absorption cross-section [a.u.]:                         0.182480
  Two-photon absorption matrix [a.u.]:
                                       |    0.002806   -0.008976    0.083917 |
                                       |   -0.008976   -0.035271    0.121919 |
                                       |    0.083917    0.121919    0.016206 |

  Dip. moment [a.u.]:                  [   0.147238,    0.081809,    0.010473]
  Total dipole [Debye]:                                               0.428957
  <r^2> [a.u.]:                        [ 181.727304,   40.736985,   11.042427]
  Total <r^2> [a.u.]:                                               233.506716

  V1^2 = 0.9587, V2^2 = 0.0413

  Important amplitudes:
      occ i     occ j     vir a      vir b          v   
    -----------------------------------------------------
     8 (A) A             10 (A) A                -0.6878
     8 (A) A             24 (A) A                -0.0505
     7 (A) A              9 (A) A                 0.0416
     8 (A) A             18 (A) A                 0.0308
     4 (A) A              9 (A) A                 0.0232
     8 (A) A   8 (A) B    9 (A) A   12 (A) B      0.0219
     8 (A) A   8 (A) B   10 (A) A   17 (A) B     -0.0173
     5 (A) A   8 (A) B   11 (A) A   10 (A) B     -0.0165
     8 (A) A             15 (A) A                -0.0154
     7 (A) A   8 (A) B   13 (A) A   10 (A) B     -0.0141
     6 (A) A   8 (A) A   10 (A) A   15 (A) A      0.0111
     4 (A) A   8 (A) B   12 (A) A   10 (A) B     -0.0110
     6 (A) A   8 (A) B   15 (A) A   10 (A) B     -0.0109
     7 (A) A   8 (A) B   22 (A) A   10 (A) B     -0.0108
     4 (A) A   8 (A) A   10 (A) A   12 (A) A      0.0105
     7 (A) A   8 (A) A   10 (A) A   22 (A) A      0.0099
     7 (A) A   8 (A) A   10 (A) A   13 (A) A      0.0098
     8 (A) A             11 (A) A                 0.0095
     5 (A) A   8 (A) A   10 (A) A   11 (A) A      0.0095
     5 (A) A   8 (A) B   21 (A) A   10 (A) B     -0.0094
     6 (A) A   8 (A) B   10 (A) A   10 (A) B      0.0087
     6 (A) A   8 (A) A   10 (A) A   18 (A) A      0.0085
     7 (A) A   8 (A) A   12 (A) A   16 (A) A      0.0082
     5 (A) A   8 (A) A   10 (A) A   21 (A) A      0.0080
     3 (A) A   4 (A) B   10 (A) A    9 (A) B     -0.0079
     8 (A) A   8 (A) B    9 (A) A   23 (A) B      0.0075
     4 (A) A   8 (A) B   19 (A) A   10 (A) B     -0.0074
     8 (A) A   8 (A) B   10 (A) A   28 (A) B      0.0073
     3 (A) A   8 (A) B   10 (A) A   10 (A) B     -0.0071
     3 (A) A   8 (A) A   10 (A) A   24 (A) A      0.0071
     7 (A) A   8 (A) B   16 (A) A   12 (A) B     -0.0070
     5 (A) A   8 (A) B   10 (A) A   11 (A) B     -0.0070
     3 (A) A   8 (A) B   10 (A) A   18 (A) B      0.0069
     8 (A) A   8 (A) B    9 (A) A   19 (A) B      0.0066
     6 (A) A   8 (A) B   18 (A) A   10 (A) B     -0.0064
     3 (A) A   6 (A) B   10 (A) A   28 (A) B      0.0062
     7 (A) A   8 (A) B   12 (A) A   11 (A) B     -0.0057
     3 (A) A   5 (A) B   10 (A) A   25 (A) B      0.0056
     6 (A) A             28 (A) A                -0.0056
     4 (A) A   8 (A) A   10 (A) A   23 (A) A      0.0055
    -----------------------------------------------------

  Density matrix analysis:
  ------------------------
  NOs
    Occupation of frontier NOs:
       0.9815   0.9850
    Number of electrons: 16.000000
    Number of unpaired electrons: n_u =  2.29204, n_u,nl =  2.02595
    NO participation ratio (PR_NO):  2.707180
  
  
  Mulliken Population Analysis
  Atom      Charge (e)              h+              e-           Del q
  --------------------------------------------------------------------
   1 H       -0.142350        0.054748       -0.245530       -0.190782
   2 C        0.331278        0.531330       -0.101365        0.429965
   3 H       -0.181101        0.054094       -0.284009       -0.229915
   4 C        0.333675        0.538659       -0.104544        0.434115
   5 H       -0.153542        0.054700       -0.258804       -0.204104
   6 H       -0.187959        0.053367       -0.292645       -0.239279
  --------------------------------------------------------------------
  Sum:        0.000000        1.286898       -1.286898       -0.000000
  
  Multipole moment analysis of the density matrix
    Molecular charge:                      -0.000000
    Number of electrons:                   16.000000
      Center of electronic charge [Ang]: [ -1.565446,  -0.070808,   0.001632]
    Total nuclear charge:                  16.000000
      Center of nuclear charge [Ang]:    [ -1.560576,  -0.068102,   0.001978]
    Dipole moment [D]:                     0.428957
      Cartesian components [D]:          [  0.374243,   0.207937,   0.026621]
    RMS size of the density [Ang]:         1.277163
      Cartesian components [Ang]:        [  0.854360,   0.841401,   0.439613]
  
  Exciton analysis of the difference density matrix
    <r_h> [Ang]:                  [ -1.564382,  -0.066500,   0.001555]
    <r_e> [Ang]:                  [ -1.623843,  -0.101247,  -0.002315]
    |<r_e - r_h>| [Ang]:            0.068979
    Hole size [Ang]:                1.412032
      Cartesian components [Ang]: [  0.834941,   0.822358,   0.787677]
    Electron size [Ang]:            2.082211
      Cartesian components [Ang]: [  1.376864,   1.381194,   0.729488]

  Transition density matrix analysis:
  -----------------------------------
  
  CT numbers (Mulliken)
    omega =     0.9260
    <Phe> =    -0.0108
  
  Exciton analysis of the transition density matrix
    Trans. dipole moment [D]:             0.431544
      Cartesian components [D]:         [ -0.020522,  -0.025743,   0.430287]
    <r_h> [Ang]:                        [ -1.559152,  -0.063283,   0.001698]
    <r_e> [Ang]:                        [ -1.645150,  -0.112281,  -0.003722]
    |<r_e - r_h>| [Ang]:                  0.099125
    Hole size [Ang]:                      1.214228
      Cartesian components [Ang]:       [  0.638085,   0.625964,   0.821807]
    Electron size [Ang]:                  2.299761
      Cartesian components [Ang]:       [  1.518792,   1.527006,   0.806489]
    RMS electron-hole separation [Ang]:   2.592501
      Cartesian components [Ang]:       [  1.642059,   1.643992,   1.149779]
    Covariance(r_h, r_e) [Ang^2]:         0.026008
    Correlation coefficient:              0.009314
    Center-of-mass size [Ang]:            1.305303
      Cartesian components [Ang]:       [  0.827466,   0.828681,   0.576545]

  Decomposition into state-averaged NTOs
    H- 0 -> L+ 1: -0.6782 ( 92.0%)
                   omega =  92.6%
  ----------------------------------------------------------------------------


  Excited state 4 (singlet, A)                                     [converged]
  ----------------------------------------------------------------------------
  Term symbol:  5 (1) A                                     R^2 =  6.60914e-14

  Total energy:                                            -77.9573837995 a.u.
  Excitation energy:                                               9.847938 eV

  Osc. strength:                                                      0.000093
  Trans. dip. moment [a.u.]:           [  -0.003381,    0.001088,    0.019284]
  <i|r^2|0> [a.u.]:                    [  -0.000230,    0.017794,   -0.037352]
  Two-photon absorption cross-section (SoS) [a.u.]:                 151.535186
  Two-photon absorption matrix (SoS) [a.u.]:
                                       |    0.295242    0.329884   -3.082644 |
                                       |    0.329884    0.362800   -3.000653 |
                                       |   -3.082644   -3.000653   -0.658887 |
  Two-photon absorption cross-section [a.u.]:                        91.913871
  Two-photon absorption matrix [a.u.]:
                                       |    0.225434    0.256727   -2.380556 |
                                       |    0.256727    0.286864   -2.357509 |
                                       |   -2.380556   -2.357509   -0.513564 |

  Dip. moment [a.u.]:                  [  -0.125749,   -0.159481,   -0.017186]
  Total dipole [Debye]:                                               0.518059
  <r^2> [a.u.]:                        [ 180.570033,   40.595800,   10.737763]
  Total <r^2> [a.u.]:                                               231.903596

  V1^2 = 0.9636, V2^2 = 0.0364

  Important amplitudes:
      occ i     occ j     vir a      vir b          v   
    -----------------------------------------------------
     8 (A) A             11 (A) A                -0.6705
     7 (A) A              9 (A) A                -0.1421
     8 (A) A             21 (A) A                -0.0784
     8 (A) A             16 (A) A                -0.0653
     8 (A) A             12 (A) A                -0.0302
     8 (A) A             10 (A) A                -0.0179
     8 (A) A   8 (A) B    9 (A) A   13 (A) B      0.0167
     5 (A) A   8 (A) B   11 (A) A   11 (A) B     -0.0155
     6 (A) A              9 (A) A                 0.0146
     8 (A) A   8 (A) B   11 (A) A   17 (A) B     -0.0140
     7 (A) A             20 (A) A                -0.0128
     7 (A) A   8 (A) B   13 (A) A   11 (A) B     -0.0127
     5 (A) A   8 (A) A   11 (A) A   21 (A) A      0.0110
     4 (A) A   8 (A) B   12 (A) A   11 (A) B     -0.0109
     8 (A) A   8 (A) B    9 (A) A   22 (A) B      0.0108
     7 (A) A   8 (A) A   11 (A) A   22 (A) A      0.0096
     6 (A) A   8 (A) B   15 (A) A   11 (A) B     -0.0091
     7 (A) A   8 (A) B   22 (A) A   11 (A) B     -0.0089
     6 (A) A   8 (A) B   10 (A) A   11 (A) B      0.0089
     3 (A) A   4 (A) B   11 (A) A    9 (A) B     -0.0083
     6 (A) A   8 (A) A   11 (A) A   15 (A) A      0.0081
     3 (A) A   8 (A) B   11 (A) A   18 (A) B      0.0081
     7 (A) A   8 (A) A   13 (A) A   16 (A) A      0.0078
     7 (A) A   8 (A) A   11 (A) A   13 (A) A      0.0076
     5 (A) A   8 (A) B   21 (A) A   11 (A) B     -0.0071
     4 (A) A   8 (A) B   19 (A) A   11 (A) B     -0.0069
     5 (A) A   8 (A) B    9 (A) A    9 (A) B     -0.0064
     4 (A) A   8 (A) A   11 (A) A   12 (A) A      0.0062
     3 (A) A   6 (A) B   11 (A) A   28 (A) B      0.0060
     6 (A) A   8 (A) A   11 (A) A   18 (A) A      0.0060
     6 (A) A   8 (A) B   18 (A) A   11 (A) B     -0.0058
     7 (A) A   8 (A) B   16 (A) A   13 (A) B     -0.0057
     3 (A) A   8 (A) A   11 (A) A   18 (A) A      0.0056
     3 (A) A   8 (A) B   11 (A) A   30 (A) B      0.0055
     3 (A) A   5 (A) B   11 (A) A   25 (A) B      0.0055
     5 (A) A   8 (A) B   10 (A) A   10 (A) B     -0.0055
     6 (A) A   8 (A) B   11 (A) A   10 (A) B      0.0053
     7 (A) A   8 (A) B   12 (A) A   10 (A) B     -0.0053
     8 (A) A   8 (A) B   20 (A) A   22 (A) B      0.0053
     3 (A) A   8 (A) A   11 (A) A   24 (A) A      0.0052
    -----------------------------------------------------

  Density matrix analysis:
  ------------------------
  NOs
    Occupation of frontier NOs:
       0.9454   1.0232
    Number of electrons: 16.000000
    Number of unpaired electrons: n_u =  2.31815, n_u,nl =  2.04588
    NO participation ratio (PR_NO):  2.886350
  
  
  Mulliken Population Analysis
  Atom      Charge (e)              h+              e-           Del q
  --------------------------------------------------------------------
   1 H       -0.172283        0.044774       -0.265490       -0.220716
   2 C        0.276867        0.498935       -0.123381        0.375554
   3 H       -0.101627        0.046804       -0.197245       -0.150442
   4 C        0.277396        0.500673       -0.122836        0.377837
   5 H       -0.159305        0.046873       -0.256740       -0.209867
   6 H       -0.121047        0.044025       -0.216392       -0.172367
  --------------------------------------------------------------------
  Sum:        0.000000        1.182083       -1.182083        0.000000
  
  Multipole moment analysis of the density matrix
    Molecular charge:                      0.000000
    Number of electrons:                   16.000000
      Center of electronic charge [Ang]: [ -1.556417,  -0.062828,   0.002547]
    Total nuclear charge:                  16.000000
      Center of nuclear charge [Ang]:    [ -1.560576,  -0.068102,   0.001978]
    Dipole moment [D]:                     0.518059
      Cartesian components [D]:          [ -0.319623,  -0.405361,  -0.043682]
    RMS size of the density [Ang]:         1.277630
      Cartesian components [Ang]:        [  0.858989,   0.840566,   0.433501]
  
  Exciton analysis of the difference density matrix
    <r_h> [Ang]:                  [ -1.556731,  -0.062893,   0.002080]
    <r_e> [Ang]:                  [ -1.499258,   0.007296,   0.010250]
    |<r_e - r_h>| [Ang]:            0.091084
    Hole size [Ang]:                1.392958
      Cartesian components [Ang]: [  0.814164,   0.807258,   0.791077]
    Electron size [Ang]:            2.121827
      Cartesian components [Ang]: [  1.440710,   1.403240,   0.676331]

  Transition density matrix analysis:
  -----------------------------------
  
  CT numbers (Mulliken)
    omega =     0.9299
    <Phe> =    -0.0134
  
  Exciton analysis of the transition density matrix
    Trans. dipole moment [D]:             0.024919
      Cartesian components [D]:         [ -0.004297,   0.001383,   0.024507]
    <r_h> [Ang]:                        [ -1.560066,  -0.067312,   0.001446]
    <r_e> [Ang]:                        [ -1.487394,   0.021668,   0.011855]
    |<r_e - r_h>| [Ang]:                  0.115357
    Hole size [Ang]:                      1.226085
      Cartesian components [Ang]:       [  0.652588,   0.650425,   0.808925]
    Electron size [Ang]:                  2.261419
      Cartesian components [Ang]:       [  1.536168,   1.495735,   0.719012]
    RMS electron-hole separation [Ang]:   2.564198
      Cartesian components [Ang]:       [  1.662101,   1.625479,   1.081829]
    Covariance(r_h, r_e) [Ang^2]:         0.027746
    Correlation coefficient:              0.010007
    Center-of-mass size [Ang]:            1.291587
      Cartesian components [Ang]:       [  0.838760,   0.819495,   0.541394]

  Decomposition into state-averaged NTOs
    H- 0 -> L+ 2: -0.6665 ( 88.8%)
    H- 1 -> L+ 0:  0.1401 (  3.9%)
                   omega =  93.0%
  ----------------------------------------------------------------------------


  Excited state 5 (singlet, A)                                     [converged]
  ----------------------------------------------------------------------------
  Term symbol:  6 (1) A                                     R^2 =  1.62673e-13

  Total energy:                                            -77.9430940143 a.u.
  Excitation energy:                                              10.236783 eV

  Osc. strength:                                                      0.000001
  Trans. dip. moment [a.u.]:           [   0.000564,    0.000338,   -0.001704]
  <i|r^2|0> [a.u.]:                    [  -0.083102,    0.098985,   -0.012296]
  Two-photon absorption cross-section (SoS) [a.u.]:                 229.038211
  Two-photon absorption matrix (SoS) [a.u.]:
[...]
    16   -1.603813998610e-03
    17   -1.731907724845e-03
    18   -9.599520701779e-04
    19   -2.717957954339e-03
    20    9.525402672185e-03
    21    9.574390247464e-01
    22    5.977375037600e-04
    23    1.405138871215e-02
    24    8.593359989748e-04
    25    7.079716343924e-02
    26   -5.232232427733e-02
    27   -1.420881592541e+00
    28    1.015781053007e-01
    29   -8.951504071878e-02
    30   -5.490826878675e-04
    31    3.956501147202e-01
    32   -3.457572449429e-01
    33   -1.904320036582e-03
    34    1.586929935579e-02
    35   -1.513408522071e-03
    36   -1.811103264158e-03
    37   -6.128593019856e-05
    38   -3.482956677910e-03
    39    8.131866396100e-03
    40    9.116525470666e-01
    41    2.856408458546e-04
    42   -1.375464098453e-02
    43   -8.090746973163e-04
    44    1.209884752219e-02
    45    9.741579789559e-01
    46    1.465746452849e-02
    47    5.463747675355e-04
    48    7.215263189794e-04
Sym=X
Ene= 0.233748
Spin=Alpha
Occup=0
     1    2.674945241777e-02
     2    1.285354682425e+00
     3   -1.515911779682e-02
     4   -4.127846022877e-03
     5   -9.957867899886e-04
     6    7.292679922062e-03
     7   -8.090301615519e-03
     8   -1.314047340392e-01
     9   -1.589253046087e-01
    10   -1.526517588663e-01
    11   -1.700605469992e-02
    12   -5.755082841623e-01
    13   -5.096130362421e-01
    14   -5.913702383251e-02
    15    1.288445965059e-03
    16   -2.060245582868e-04
    17   -1.678560397872e-04
    18   -2.413205660371e-04
    19   -7.720141388269e-04
    20   -2.625329876924e-02
    21   -1.087175571496e+00
    22   -1.843682350733e-03
    23   -1.270838132372e-02
    24   -8.557825430812e-04
    25   -3.680245479426e-03
    26    5.513298442829e-03
    27    3.071587059120e-02
    28   -1.528867427569e-01
    29   -1.618501578507e-01
    30   -1.676565150813e-02
    31   -5.570546604151e-01
    32   -5.631886324805e-01
    33   -5.937316643849e-02
    34   -4.375549110227e-04
    35    3.547281019479e-05
    36    8.703453520783e-05
    37   -2.102882857362e-04
    38    4.348620183584e-04
    39    2.515649400106e-02
    40    1.168524688147e+00
    41   -2.262154131587e-03
    42   -1.368437446997e-02
    43   -9.122446151072e-04
    44   -2.710912356202e-02
    45   -1.240136742071e+00
    46   -1.406825801355e-02
    47   -4.025974446943e-03
    48   -9.030730031518e-04
Sym=X
Ene= 0.238814
Spin=Alpha
Occup=0
     1   -1.429427466860e-02
     2   -1.048514394485e+00
     3    1.687540972400e-02
     4    9.238647281788e-03
     5    1.402331072680e-03
     6   -8.606940534078e-02
     7    7.874308171350e-02
     8    1.592277345470e+00
     9    4.890699238368e-02
    10   -6.574069996072e-02
    11   -1.079998356015e-03
    12    2.224148310598e-01
    13   -2.576100504936e-01
    14   -2.651434748395e-03
    15   -2.287896294356e-02
    16    2.745661333655e-03
    17    2.893451027293e-03
    18    7.734973705349e-04
    19    1.230953802906e-02
    20   -1.575449642034e-02
    21   -1.142561959736e+00
    22   -9.525395236023e-03
    23   -1.764477916591e-02
    24   -1.482652081077e-03
    25    8.596731491446e-02
    26   -7.997120335464e-02
    27   -1.569195551555e+00
    28    4.644388100921e-02
    29   -6.619000542667e-02
    30   -2.105820639678e-03
    31    1.848722467280e-01
    32   -2.765886082239e-01
    33   -9.309605775745e-03
    34    2.232769161092e-02
    35   -2.502282631191e-03
    36   -3.030190049123e-03
    37    1.266031030157e-03
    38   -1.239223185348e-02
    39    1.816151817218e-02
    40    1.175911666464e+00
    41   -8.615365084328e-03
    42   -1.844995512710e-02
    43   -1.536182883112e-03
    44    1.454446028092e-02
    45    9.883815074493e-01
    46    1.545180903727e-02
    47    9.167208289131e-03
    48    1.260852459824e-03
Sym=X
Ene= 0.303515
Spin=Alpha
Occup=0
     1    2.159640228086e-02
     2   -1.707798496662e+00
     3    2.290227711919e-02
     4   -1.163891305516e-03
     5    1.061469543392e-03
     6    1.533105829985e-03
     7   -8.722713237748e-05
     8   -3.265165429445e-02
     9    1.369157008175e-01
    10    1.406094403253e-01
    11    1.509611464498e-02
    12    1.170324226680e+00
    13    1.165439980395e+00
    14    1.262214448027e-01
    15    8.550748045351e-04
    16    1.699256780641e-03
    17   -1.954845419204e-03
    18    3.352011048483e-02
    19    1.148590651920e-03
    20   -1.755848340478e-02
    21    1.708504592930e+00
    22   -2.010137337230e-03
    23    2.367149005753e-02
    24    1.302063246172e-03
    25   -1.337506467194e-03
    26   -1.050407016361e-03
    27    6.844081008362e-02
    28   -1.350878819455e-01
    29   -1.369148842722e-01
    30   -1.454017496057e-02
    31   -1.123438868432e+00
    32   -1.202937386089e+00
    33   -1.253874266406e-01
    34   -9.521590020122e-04
    35    1.750883000164e-03
    36   -1.880547266720e-03
    37    3.373042904653e-02
    38    2.143505804520e-03
    39   -2.015204477102e-02
    40    1.660895478214e+00
    41    1.900105077512e-03
    42   -2.253226754511e-02
    43   -1.268289953848e-03
    44    2.143949536662e-02
    45   -1.701395409901e+00
    46   -2.373655783381e-02
    47    2.222492547102e-04
    48   -1.093758245282e-03
Sym=X
Ene= 0.464136
Spin=Alpha
Occup=0
     1   -8.933194425073e-02
     2   -7.696165023345e-01
     3   -1.494553547702e-02
     4   -1.116507603584e-02
     5   -1.386927998497e-03
     6    6.221447491213e-02
     7    1.298099350094e-02
     8   -3.616900993948e+00
     9    1.041782459652e-01
    10   -1.049896448198e-01
    11   -8.913590289260e-04
    12    2.443156883063e+00
    13   -2.323787627596e+00
    14   -2.052182073323e-02
    15    5.061570005108e-02
    16   -3.034969114031e-03
    17   -4.284871698795e-03
    18   -6.102884564901e-04
    19    2.067414490090e-02
    20   -1.134530661793e-01
    21   -7.060826911528e-01
    22    7.088390987975e-03
    23    1.576088899265e-02
    24    1.305525085872e-03
    25   -6.182996903146e-02
    26   -1.621426776559e-02
    27    3.624547882480e+00
    28    1.023562698081e-01
    29   -9.651012259936e-02
    30   -1.011550047664e-03
    31    2.459372746672e+00
    32   -2.329965631557e+00
    33   -2.257938170278e-02
    34   -5.382706118870e-02
    35    3.390593393282e-03
    36    4.737946415896e-03
    37   -1.004489476172e-03
    38   -1.768015227575e-02
    39    1.253147987659e-01
    40    7.067845569977e-01
    41    9.175709830533e-03
    42    1.676200006819e-02
    43    1.419549668162e-03
    44    1.140395911477e-01
    45    7.281048712839e-01
    46   -1.485354916618e-02
    47   -1.084357588288e-02
    48   -1.356474386282e-03
Sym=X
Ene= 0.579427
Spin=Alpha
Occup=0
     1    2.062678404089e-01
     2    1.223561860959e-01
     3   -2.311840896495e-02
     4    2.783193586717e-02
     5    5.201240699157e-04
     6   -7.732577292845e-03
     7   -1.665209729917e-01
     8   -3.592565037139e-01
     9    2.909076849167e-01
    10   -2.952797454578e-01
    11   -3.759772550388e-03
    12   -7.882396885321e-01
    13    8.023127757386e-01
    14    9.640168950732e-03
    15   -1.522674627368e-03
    16    3.139085173397e-03
    17    3.663343479040e-03
    18   -1.088242174204e-02
    19    5.914375556054e-02
    20    2.669178681525e-01
    21    5.150676152185e-02
    22   -2.569742271148e-02
    23    1.677742413076e-02
    24   -2.616661322589e-04
    25   -3.906247749895e-03
    26   -1.648613711641e-01
    27   -5.236895184524e-01
    28   -3.058944369908e-01
    29    2.937866531678e-01
    30    2.848351327899e-03
    31    6.893460548283e-01
    32   -6.597991836283e-01
    33   -6.417838279664e-03
    34   -2.404696801437e-03
    35    3.661894996039e-03
    36    3.201544328868e-03
    37   -1.519030216413e-03
    38    5.913965646212e-02
    39    2.270371545805e-01
    40    3.058906096688e-02
    41    2.838932154675e-02
    42   -2.018986748795e-02
    43    1.336576409452e-04
    44    2.569177649065e-01
    45    2.763863213885e-02
    46    1.806964649971e-02
    47   -2.297107844378e-02
    48   -5.236022487136e-04
Sym=X
Ene= 0.611189
Spin=Alpha
Occup=0
     1    5.477413060289e-01
     2   -1.752544285973e-01
     3    5.997690763761e-02
     4   -3.281801678475e-02
     5    9.781874802606e-04
     6    1.528010284668e-03
     7    1.093580975790e-03
     8    2.671896856130e-02
     9    5.823415969410e-02
    10    3.111567600077e-02
    11    4.561236974956e-03
    12   -4.104438955438e-01
    13   -2.087405021246e-01
    14   -3.278804281745e-02
    15   -4.844159566485e-03
    16    7.987701922493e-03
    17   -7.882444931872e-03
    18    1.475251481003e-01
    19    4.241293389992e-03
    20   -4.897278750117e-01
    21    2.298772582708e-01
    22   -4.218710441463e-02
    23    5.759409723280e-02
    24    1.315934078227e-03
    25   -4.931923657833e-04
    26    6.525013186317e-04
    27   -1.212302512000e-01
    28    3.289719628256e-02
    29    4.846563051424e-02
    30    4.537976977424e-03
    31   -3.051952597869e-01
    32   -2.652888832467e-01
    33   -2.991067170153e-02
    34    3.057922291028e-03
    35   -7.149677587230e-03
    36    8.443745804221e-03
    37   -1.451006506846e-01
    38   -1.885671292484e-03
    39    5.148309464809e-01
    40   -2.127870797034e-01
    41   -3.925644490119e-02
    42    5.587608827468e-02
    43    1.524931170774e-03
    44   -5.074697014253e-01
    45    1.969650170945e-01
    46    6.136813709605e-02
    47   -3.891443706199e-02
    48    5.823064518740e-04
Sym=X
Ene= 0.689119
Spin=Alpha
Occup=0
     1    4.657050913324e-04
     2   -9.168793158485e-04
     3    1.363143117187e-03
     4    1.439967297266e-03
     5   -2.285230212007e-02
     6    3.022215745813e-05
     7    9.461307990195e-04
     8   -6.946044031035e-04
     9    3.227005195457e-02
    10    4.031480869443e-02
    11   -6.694464732104e-01
    12   -2.924503227200e-02
    13   -3.740893513044e-02
    14    6.131726027706e-01
    15   -1.518893943479e-03
    16    8.318612084712e-02
    17   -7.861151193020e-02
    18   -8.614138519221e-03
    19   -1.135241277153e-03
    20    4.179154094238e-04
    21   -5.090448660542e-04
    22    1.012432190628e-03
    23    1.035812951865e-03
    24   -2.096037454312e-02
    25    4.585758017678e-05
    26    7.901450003505e-04
    27   -3.408581398823e-04
    28    3.216538613248e-02
    29    3.964999273554e-02
    30   -6.705619892986e-01
    31   -2.893997986050e-02
    32   -3.657637331014e-02
    33    6.140031581363e-01
    34    9.870122573104e-04
    35   -8.252029116483e-02
    36    7.827968708503e-02
    37    8.722934635727e-03
    38    1.320206041128e-03
    39    6.347116768791e-04
    40   -6.115726868783e-05
    41    1.043111500380e-03
    42    1.432308231944e-03
    43   -2.105658476670e-02
    44    7.770949120123e-04
    45   -5.136748785687e-04
    46    7.835393278269e-04
    47    1.145002307440e-03
    48   -2.106609799560e-02
Sym=X
Ene= 0.711860
Spin=Alpha
Occup=0
     1   -4.570844856518e-01
     2    9.927907301597e-02
     3   -7.895628043692e-02
     4   -4.319685846370e-02
     5   -6.432127708349e-03
     6   -4.452814090207e-02
     7   -3.264895898444e-01
     8    4.360321513555e-01
     9    1.926213132890e-01
    10   -1.892199332985e-01
    11   -2.993924694948e-03
    12    1.213316522391e-03
    13   -2.032080349203e-02
    14    3.300828692449e-04
    15    1.918336648785e-01
    16   -2.041299547602e-02
    17   -2.375335217495e-02
    18    3.118088326098e-03
    19   -7.352165042364e-02
    20   -4.788103999888e-01
    21    1.089306385428e-01
    22    4.253028265383e-02
    23    7.901066547320e-02
    24    6.766482471534e-03
    25   -5.015998933384e-02
    26   -3.158498095684e-01
    27    6.004449317992e-01
    28   -1.975352182841e-01
    29    1.795045655775e-01
    30    2.249476940271e-04
    31    1.221809404999e-01
    32   -9.009865034749e-02
    33    1.384926187943e-03
    34    1.978577569270e-01
    35   -2.126150029736e-02
    36   -2.438461532488e-02
    37   -4.338731645262e-04
    38   -8.028306469127e-02
    39   -4.891460578130e-01
    40    1.523958880898e-01
    41   -4.270055372065e-02
    42   -8.137661071108e-02
    43   -6.936357729423e-03
    44   -4.987063296075e-01
    45    1.837610013288e-01
    46    8.421966477117e-02
    47    4.552213253153e-02
    48    6.668034217361e-03
Sym=X
Ene= 0.785233
Spin=Alpha
Occup=0
     1   -5.336997420867e-01
     2    4.186872919661e-01
     3   -1.113128662526e-01
     4   -2.529432719075e-02
     5   -6.941037369307e-03
     6   -9.226549762309e-02
     7    2.004239731743e-01
     8    6.152016849036e-01
     9   -1.156267630557e-01
    10    1.060754130757e-01
    11   -9.250139662778e-04
    12   -2.345659411287e-01
    13    2.190290724653e-01
    14    5.397919412045e-03
    15    2.140128423144e-01
    16   -1.849550574957e-02
    17   -2.235802457064e-02
    18    1.226623382787e-03
    19   -3.305378669128e-03
    20   -5.610373697067e-01
    21    4.427277744479e-01
    22    2.316665579346e-02
    23    1.138659163126e-01
    24    7.911279099795e-03
    25    8.945204212928e-02
    26   -2.245814881146e-01
    27   -5.394739334207e-01
    28   -1.217100994884e-01
    29    1.040360799609e-01
    30    2.167226708763e-03
    31   -2.530064097228e-01
    32    2.486460468754e-01
    33   -7.784803663978e-04
    34   -2.034866691966e-01
    35    1.643786379414e-02
    36    2.177753636843e-02
    37   -7.464371073503e-03
    38    2.088652452315e-03
    39    5.330557374476e-01
    40   -4.589532878505e-01
    41    1.767878725404e-02
    42    1.143728517052e-01
    43    7.678136773054e-03
    44    5.068401868560e-01
    45   -4.296785870515e-01
    46   -1.049225582261e-01
    47   -2.512339284451e-02
    48   -6.454603272875e-03
Sym=X
Ene= 0.807890
Spin=Alpha
Occup=0
     1   -1.076607762329e-03
     2    6.141260267026e-04
     3   -1.960875558570e-03
     4   -1.879534003048e-03
     5    3.344942016686e-02
     6   -2.040910696940e-04
     7    2.747623980074e-04
     8    3.758028725559e-04
     9   -3.777572260687e-02
    10   -4.533481603418e-02
    11    7.633589775941e-01
    12    5.469995812554e-02
    13    6.824131422416e-02
    14   -1.127257026224e+00
    15   -3.374264824275e-04
    16    6.509591233352e-02
    17   -6.172799223607e-02
    18   -6.646994609810e-03
    19   -7.764898382585e-04
    20   -1.132792532271e-03
    21    1.962405598813e-03
    22   -1.713774840558e-03
    23   -1.575783388797e-03
    24    3.469039185682e-02
    25    2.139297948054e-04
    26   -5.610896733355e-04
    27   -1.038165603961e-04
    28    3.551197371293e-02
    29    4.580374797843e-02
    30   -7.626607254010e-01
    31   -5.365346659002e-02
    32   -6.649817100120e-02
    33    1.126707273943e+00
    34   -1.631762044776e-03
    35    6.513981101147e-02
    36   -6.176033768741e-02
    37   -7.001076718408e-03
    38   -1.098570318898e-03
    39    1.160332446178e-03
    40   -1.895716425718e-03
    41    1.610686989972e-03
    42    2.483480707843e-03
    43   -3.419731416461e-02
    44    1.020141020657e-03
    45   -6.307958698570e-04
    46    1.324865222970e-03
    47    2.102563257234e-03
    48   -3.370837238854e-02
Sym=X
Ene= 0.862434
Spin=Alpha
Occup=0
     1    1.485357124502e-02
     2   -1.087392292887e+00
     3    1.498073829308e-01
     4    4.783018436002e-02
     5    1.021195645772e-02
     6    2.170613325411e-03
     7    7.412040173217e-03
     8    4.167794500749e-03
     9   -3.996239985879e-01
    10   -4.269624737281e-01
    11   -4.535302961877e-02
    12    9.420542326375e-01
    13    9.880853671536e-01
    14    1.056908336648e-01
    15   -6.973896868055e-03
    16    1.224529848250e-02
    17   -1.357944613451e-02
    18    2.408350066035e-01
    19    3.632739828397e-04
    20   -5.428964602633e-03
    21    1.104741015587e+00
    22    4.830461860799e-02
    23    1.508200868985e-01
    24    1.125046593668e-02
    25   -8.909015498641e-04
    26    1.431452469492e-02
    27   -1.675768839786e-02
    28   -4.021448684502e-01
    29   -4.370510208577e-01
    30   -4.474391113095e-02
    31    9.273668485214e-01
    32    1.015186088110e+00
    33    1.037089631143e-01
    34    1.572250599862e-03
    35   -1.194265577682e-02
    36    1.374827741988e-02
    37   -2.380687238487e-01
    38   -6.816210376475e-03
    39    1.871166222215e-02
    40   -1.116070624720e+00
    41    4.857013805524e-02
    42    1.519607246794e-01
    43    1.140958848664e-02
    44   -2.287425650524e-02
    45    1.099186675126e+00
    46    1.508763501644e-01
    47    5.490190567521e-02
    48    1.043134478562e-02
Sym=X
Ene= 0.936537
Spin=Alpha
Occup=0
     1   -1.101026123464e-01
     2    1.236945423445e+00
     3   -1.756869279842e-01
     4    1.803868245643e-02
     5   -7.521895992421e-03
     6   -1.411632431285e-03
     7   -3.256293926129e-02
     8    7.313318084839e-03
     9    4.551889456142e-01
    10    5.172513404055e-01
    11    5.293972836361e-02
    12   -1.407032408689e+00
    13   -1.572903597893e+00
    14   -1.620339655617e-01
    15   -1.655796253332e-04
    16   -5.343334882642e-03
    17    8.457136409498e-03
    18   -1.285148642714e-01
    19    1.895065467811e-02
    20    1.279755631544e-01
    21   -1.340879831443e+00
    22    7.531518693740e-03
    23   -1.915414480200e-01
    24   -1.101233563488e-02
    25    7.549887022148e-04
    26   -8.758250293142e-03
    27    4.340623328560e-02
    28   -4.881920422846e-01
    29   -4.789357531860e-01
    30   -5.182633242191e-02
    31    1.512112740491e+00
    32    1.462863587942e+00
    33    1.593488682080e-01
    34   -1.513491246325e-03
    35   -6.191115356838e-03
    36    6.892874451559e-03
    37   -1.210819295837e-01
    38   -1.427982439090e-02
    39    1.144379378655e-01
    40   -1.236332864642e+00
    41   -1.598759314381e-02
    42    1.798154152292e-01
    43    1.004531599311e-02
    44   -1.179885334075e-01
    45    1.301756124419e+00
    46    1.835007325798e-01
    47   -3.443804941437e-03
    48    8.404975839116e-03
Sym=X
Ene= 0.974010
Spin=Alpha
Occup=0
     1   -6.704404304195e-02
     2    9.935923904669e-01
     3   -1.016867124800e-01
     4   -9.367481338290e-02
     5   -1.066057947718e-02
     6    2.388647174854e-02
     7    2.120938054318e-01
     8    5.762859157411e-01
     9    4.937501558752e-01
    10   -4.263372814773e-01
    11   -1.007135610481e-03
    12   -1.579978973664e+00
    13    1.313296843065e+00
    14    5.639806981832e-04
    15   -4.606839362039e-02
    16   -1.366105412865e-02
    17   -9.177572711049e-03
    18    4.627717126657e-04
    19   -2.904987306153e-01
    20   -6.690125911270e-02
    21    8.092119645789e-01
    22    9.530841717155e-02
    23    8.069435631354e-02
    24    9.245037799162e-03
    25   -2.488548644048e-02
    26   -2.966709908018e-01
    27   -4.364358986848e-01
    28    4.638099283499e-01
    29   -4.764165677178e-01
    30   -6.816208317969e-03
    31   -1.420623300937e+00
    32    1.509219247882e+00
    33    2.372284255035e-02
    34    5.074400250687e-02
    35    1.320259194816e-02
    36    1.019533149719e-02
    37   -1.455186789959e-02
    38    3.021390058077e-01
    39    5.823174078323e-02
    40   -9.957835003148e-01
    41    9.650000455997e-02
    42    1.057746866840e-01
    43    1.103052708578e-02
    44    7.597574029976e-02
    45   -8.977620218642e-01
    46   -9.087635537619e-02
    47   -1.004338313307e-01
    48   -1.023741803413e-02
[5D]

======= END OF MOLDEN-FORMATTED INPUT FILE =======


        *************************************************************
        *                                                           *
        *  Thank you very much for using Q-Chem.  Have a nice day.  *
        *                                                           *
        *************************************************************


