                  Welcome to Q-Chem
     A Quantum Leap Into The Future Of Chemistry


 Q-Chem 5.4 (devel), Q-Chem, Inc., Pleasanton, CA (2021)

 E. Epifanovsky,  A. T. B. Gilbert,  Xintian Feng,  Joonho Lee,  Yuezhi Mao,  
 N. Mardirossian,  P. Pokhilko,  A. White,  M. Wormit,  M. P. Coons,  
 A. L. Dempwolff,  Zhengting Gan,  D. Hait,  P. R. Horn,  L. D. Jacobson,  
 I. Kaliman,  J. Kussmann,  A. W. Lange,  Ka Un Lao,  D. S. Levine,  Jie Liu,  
 S. C. McKenzie,  A. F. Morrison,  K. Nanda,  F. Plasser,  D. R. Rehn,  
 M. L. Vidal,  Zhi-Qiang You,  Ying Zhu,  B. Alam,  B. Albrecht,  
 A. Aldossary,  E. Alguire,  J. H. Andersen,  D. Barton,  K. Begam,  A. Behn,  
 Y. A. Bernard,  E. J. Berquist,  H. Burton,  A. Carreras,  K. Carter-Fenk,  
 R. Chakraborty,  A. D. Chien,  K. D. Closser,  V. Cofer-Shabica,  
 S. Dasgupta,  Jia Deng,  M. de Wergifosse,  M. Diedenhofen,  Hainam Do,  
 S. Ehlert,  Po-Tung Fang,  S. Fatehi,  Qingguo Feng,  T. Friedhoff,  
 J. Gayvert,  Qinghui Ge,  G. Gidofalvi,  M. Goldey,  J. Gomes,  
 C. Gonzalez-Espinoza,  S. Gulania,  A. Gunina,  M. W. D. Hanson-Heine,  
 P. H. P. Harbach,  A. W. Hauser,  M. F. Herbst,  M. Hernandez Vera,  
 M. Hodecker,  Z. C. Holden,  S. Houck,  Xunkun Huang,  Kerwin Hui,  
 B. C. Huynh,  M. Ivanov,  Hyunjun Ji,  Hanjie Jiang,  B. Kaduk,  S. Kaehler,  
 K. Khistyaev,  Jaehoon Kim,  P. Klunzinger,  Z. Koczor-Benda,  
 Joong Hoon Koh,  D. Kosenkov,  L. Koulias,  T. Kowalczyk,  C. M. Krauter,  
 K. Kue,  A. Kunitsa,  T. Kus,  A. Landau,  K. V. Lawler,  D. Lefrancois,  
 S. Lehtola,  Rain Li,  Yi-Pei Li,  Jiashu Liang,  M. Liebenthal,  
 Hung-Hsuan Lin,  You-Sheng Lin,  Fenglai Liu,  Kuan-Yu Liu,  
 M. Loipersberger,  A. Luenser,  A. Manjanath,  P. Manohar,  E. Mansoor,  
 S. F. Manzer,  Shan-Ping Mao,  A. V. Marenich,  T. Markovich,  S. Mason,  
 S. A. Maurer,  P. F. McLaughlin,  M. F. S. J. Menger,  J.-M. Mewes,  
 S. A. Mewes,  P. Morgante,  J. W. Mullinax,  K. J. Oosterbaan,  G. Paran,  
 Alexander C. Paul,  Suranjan K. Paul,  F. Pavosevic,  Zheng Pei,  S. Prager,  
 E. I. Proynov,  E. Ramos,  B. Rana,  A. E. Rask,  A. Rettig,  R. M. Richard,  
 F. Rob,  E. Rossomme,  T. Scheele,  M. Scheurer,  M. Schneider,  
 N. Sergueev,  S. M. Sharada,  W. Skomorowski,  D. W. Small,  C. J. Stein,  
 Yu-Chuan Su,  E. J. Sundstrom,  Zhen Tao,  J. Thirman,  T. Tsuchimochi,  
 N. M. Tubman,  S. P. Veccham,  O. Vydrov,  J. Wenzel,  J. Witte,  A. Yamada,  
 Kun Yao,  S. Yeganeh,  S. R. Yost,  A. Zech,  Igor Ying Zhang,  Xing Zhang,  
 Yu Zhang,  D. Zuev,  A. Aspuru-Guzik,  A. T. Bell,  N. A. Besley,  
 K. B. Bravaya,  B. R. Brooks,  D. Casanova,  Jeng-Da Chai,  S. Coriani,  
 C. J. Cramer,  A. E. DePrince, III,  R. A. DiStasio Jr.,  A. Dreuw,  
 B. D. Dunietz,  T. R. Furlani,  W. A. Goddard III,  S. Grimme,  
 S. Hammes-Schiffer,  T. Head-Gordon,  W. J. Hehre,  Chao-Ping Hsu,  
 T.-C. Jagau,  Yousung Jung,  A. Klamt,  Jing Kong,  D. S. Lambrecht,  
 WanZhen Liang,  N. J. Mayhall,  C. W. McCurdy,  J. B. Neaton,  
 C. Ochsenfeld,  J. A. Parkhill,  R. Peverati,  V. A. Rassolov,  Yihan Shao,  
 L. V. Slipchenko,  T. Stauch,  R. P. Steele,  J. E. Subotnik,  
 A. J. W. Thom,  A. Tkatchenko,  D. G. Truhlar,  T. Van Voorhis,  
 T. A. Wesolowski,  K. B. Whaley,  H. L. Woodcock III,  P. M. Zimmerman,  
 S. Faraji,  P. M. W. Gill,  M. Head-Gordon,  J. M. Herbert,  A. I. Krylov

 Additional authors for Version 5.4.1: 
 S. Kotaru,  Shaozhi Li,  Xiangyuan Li,  F. Matz,  A. Molle,  Haisheng Ren,  
 Yingli Su,  Hung-Yi Tsai,  C. Utku,  Fang Wang

 Contributors to earlier versions of Q-Chem not listed above: 
 R. D. Adamson,  B. Austin,  R. Baer,  J. Baker,  G. J. O. Beran,  
 K. Brandhorst,  S. T. Brown,  E. F. C. Byrd,  A. K. Chakraborty,  
 G. K. L. Chan,  Chun-Min Chang,  Yunqing Chen,  C.-L. Cheng,  
 Siu Hung Chien,  D. M. Chipman,  D. L. Crittenden,  H. Dachsel,  
 R. J. Doerksen,  A. D. Dutoi,  R. G. Edgar,  J. Fosso-Tande,  
 L. Fusti-Molnar,  D. Ghosh,  A. Ghysels,  A. Golubeva-Zadorozhnaya,  
 J. Gonthier,  M. S. Gordon,  S. R. Gwaltney,  G. Hawkins,  J. E. Herr,  
 A. Heyden,  S. Hirata,  E. G. Hohenstein,  G. Kedziora,  F. J. Keil,  
 C. Kelley,  Jihan Kim,  R. A. King,  R. Z. Khaliullin,  P. P. Korambath,  
 W. Kurlancheek,  A. Laurent,  A. M. Lee,  M. S. Lee,  S. V. Levchenko,  
 Ching Yeh Lin,  D. Liotard,  E. Livshits,  R. C. Lochan,  I. Lotan,  
 L. A. Martinez-Martinez,  P. E. Maslen,  N. Nair,  D. P. O'Neill,  
 D. Neuhauser,  E. Neuscamman,  C. M. Oana,  R. Olivares-Amaya,  R. Olson,  
 T. M. Perrine,  B. Peters,  P. A. Pieniazek,  A. Prociuk,  Y. M. Rhee,  
 J. Ritchie,  M. A. Rohrdanz,  E. Rosta,  N. J. Russ,  H. F. Schaefer III,  
 M. W. Schmidt,  N. E. Schultz,  S. Sharma,  N. Shenvi,  C. D. Sherrill,  
 A. C. Simmonett,  A. Sodt,  T. Stein,  D. Stuck,  K. S. Thanthiriwatte,  
 V. Vanovschi,  L. Vogt,  Tao Wang,  A. Warshel,  M. A. Watson,  
 C. F. Williams,  Q. Wu,  X. Xu,  Jun Yang,  W. Zhang,  Yan Zhao

 Please cite Q-Chem as follows:
 Y. Shao et al., Mol. Phys. 113, 184-215 (2015)
 DOI: 10.1080/00268976.2014.952696

 Q-Chem 5.4.1 for Intel X86 EM64T Linux

 Parts of Q-Chem use Armadillo 9.800.1 (Horizon Scraper).
 http://arma.sourceforge.net/

 Q-Chem begins on Wed Mar 15 17:53:09 2023  

 Host: cpu121.yggdrasil
0

     Scratch files written to /srv/beegfs/scratch/users/f/fum/qchem93230//
 Processing $rem in /home/share/wesolowski/qc5.aug2021.FDE/config/preferences:
 Processing $rem in /home/fum/.qchemrc:

 Checking the input file for inconsistencies... 	...done.

--------------------------------------------------------------
User input:
--------------------------------------------------------------
$comment
generated from CCJob.Templates
$end

$rem
sym_ignore = true
method = adc(2)
ee_states = 10
basis = cc-pVDZ
mem_static = 1024
mem_total = 40000
adc_davidson_maxiter = 900
adc_davidson_conv = 6
adc_print = 3
adc_prop_es = true
adc_prop_es2es = true
adc_prop_tpa = true
molden_format = True
state_analysis = true
print_orbitals = 15
gen_scfman = false
fde_export_density = true
fde_details = 3
$end

$molecule
0 1
H -0.0348278765 -0.2442097827 0.0636489606
C -1.0365972949 -0.5242748755 -0.0023551776
H -1.313264467 -1.5767591607 -0.0757276926
C -2.043634118 0.3926884087 0.0061254933
H -1.8137616575 1.4459188338 0.0804456828
H -3.085977293 0.114931858 -0.0593381042                     
$end
--------------------------------------------------------------
 ----------------------------------------------------------------
             Standard Nuclear Orientation (Angstroms)
    I     Atom           X                Y                Z
 ----------------------------------------------------------------
    1      H      -0.0348278765    -0.2442097827     0.0636489606
    2      C      -1.0365972949    -0.5242748755    -0.0023551776
    3      H      -1.3132644670    -1.5767591607    -0.0757276926
    4      C      -2.0436341180     0.3926884087     0.0061254933
    5      H      -1.8137616575     1.4459188338     0.0804456828
    6      H      -3.0859772930     0.1149318580    -0.0593381042
 ----------------------------------------------------------------
 Nuclear Repulsion Energy =          33.16223551 hartrees
 There are        8 alpha and        8 beta electrons
 Requested basis set is cc-pVDZ
 There are 24 shells and 48 basis functions
 Total memory of 40000 MB is distributed as follows: 
   MEM_STATIC is set to 1024 MB
   QALLOC/CCMAN JOB total memory use is  38976 MB
 Warning: actual memory use might exceed 40000 MB

 Total QAlloc Memory Limit  40000 MB
 Mega-Array Size      1001 MB
 MEM_STATIC part      1024 MB

                       Distance Matrix (Angstroms)
             H (  1)   C (  2)   H (  3)   C (  4)   H (  5)
   C (  2)  1.042274
   H (  3)  1.851895  1.090711
   C (  4)  2.108139  1.361990  2.102109
   H (  5)  2.453859  2.119553  3.067812  1.080583
   H (  6)  3.074674  2.147508  2.450428  1.080700  1.846510

 A cutoff of  1.0D-11 yielded    300 shell pairs
 There are      1220 function pairs (      1329 Cartesian)
 Smallest overlap matrix eigenvalue = 5.31E-03

 Scale SEOQF with 1.000000e-01/1.000000e-01/1.000000e+00

 Standard Electronic Orientation quadrupole field applied
 Nucleus-field energy     =     0.0000000021 hartrees
 Guess from superposition of atomic densities
 Warning:  Energy on first SCF cycle will be non-variational
 SAD guess density has 16.000000 electrons
 A restricted Hartree-Fock SCF calculation will be
 performed using Pulay DIIS extrapolation
 SCF converges when DIIS error is below 1.0E-08
 using 10 threads for integral computing
 -------------------------------------------------------
 OpenMP Integral computing Module                
 Release: version 1.0, May 2013, Q-Chem Inc. Pittsburgh 
 -------------------------------------------------------
 ---------------------------------------
  Cycle       Energy         DIIS Error
 ---------------------------------------
    1     -78.4018519472      9.90E-02
    2     -78.0142510172      7.12E-03
    3     -78.0347441380      1.80E-03
    4     -78.0362062282      5.32E-04
    5     -78.0363114494      6.32E-05
    6     -78.0363134503      1.71E-05
    7     -78.0363135800      6.62E-06
    8     -78.0363135970      1.23E-06
    9     -78.0363135985      4.02E-07
   10     -78.0363135986      1.01E-07
   11     -78.0363135986      6.98E-09 Convergence criterion met
 ---------------------------------------
 SCF time:  CPU 2.11 s  wall 3.02 s
 SCF   energy in the final basis set = -78.03631360
 Total energy in the final basis set = -78.03631360
Exporting Density Matrix to file 'Densmat_SCF.txt'.
Export successful
================================================================================
|                                                                              |
|                                 A D C  M A N                                 |
|                                                                              |
 ------------------------------------------------------------------------------ 
|                                                                              |
| Components:                                                                  |
|                                                                              |
| - libvmm - 1.3-trunk                                                         |
|   Authors:                                                                   |
|   Evgeny Epifanovsky, Ilya Kaliman                                           |
|                                                                              |
| - libtensor - 2.5-trunk                                                      |
|   Authors:                                                                   |
|   Evgeny Epifanovsky, Michael Wormit, Dmitry Zuev, Sam Manzer,               |
|   Ilya Kaliman                                                               |
|                                                                              |
| - libwfa - 1.1-trunk                                                         |
|   Authors:                                                                   |
|   Felix Plasser, Stefanie Mewes (Baeppler), Benjamin Thomitzni,              |
|   Michael Wormit, Feng Chen, Anna I. Krylov, Pavel Pokhilko                  |
|                                                                              |
| - libadc - 1.1-trunk                                                         |
|   Authors:                                                                   |
|   Michael Wormit, Adrian L. Dempwolff, Philipp H. P. Harbach,                |
|   Caroline Krauter, Dirk Rehn, Matthias Schneider, Jan Wenzel                |
|                                                                              |
| - adcman - 2.6-trunk                                                         |
|   Authors:                                                                   |
|   Michael Wormit, Adrian L. Dempwolff, Philipp H. P. Harbach,                |
|   Caroline Krauter, Daniel Lefrancois, Jan-Michael Mewes, Dirk Rehn,         |
|   Matthias Schneider, Jan Wenzel, Andreas Dreuw                              |
|                                                                              |
| Authors of earlier versions of ADCMAN:                                       |
| Andreas Dreuw, Jan Hendrik Starcke, Dirk Rehn, Michael Wormit                |
|                                                                              |
================================================================================

 Created directory /srv/beegfs/scratch/users/f/fum/qchem93230/plots
  Import QC data ...  CPU 0.00 s  wall 0.00 s

 Alpha MOs, Restricted
 -- Occupied --                  
-11.239 -11.236  -1.025  -0.795  -0.643  -0.576  -0.511  -0.367
  1 A     2 A     3 A     4 A     5 A     6 A     7 A     8 A                  
 -- Virtual --                   
  0.162   0.203   0.235   0.240   0.301   0.455   0.581   0.616
  9 A    10 A    11 A    12 A    13 A    14 A    15 A    16 A                  
  0.695   0.712   0.777   0.805   0.868   0.934   0.960   1.011
 17 A    18 A    19 A    20 A    21 A    22 A    23 A    24 A                  
  1.133   1.225   1.255   1.256   1.290   1.612   1.715   1.748
 25 A    26 A    27 A    28 A    29 A    30 A    31 A    32 A                  
  1.817   1.847   1.862   1.926   1.969   1.992   2.205   2.240
 33 A    34 A    35 A    36 A    37 A    38 A    39 A    40 A                  
  2.378   2.461   2.500   2.609   2.739   2.838   3.156   3.384
 41 A    42 A    43 A    44 A    45 A    46 A    47 A    48 A                  

 Beta MOs, Restricted
 -- Occupied --                  
-11.239 -11.236  -1.025  -0.795  -0.643  -0.576  -0.511  -0.367
  1 A     2 A     3 A     4 A     5 A     6 A     7 A     8 A                  
 -- Virtual --                   
  0.162   0.203   0.235   0.240   0.301   0.455   0.581   0.616
  9 A    10 A    11 A    12 A    13 A    14 A    15 A    16 A                  
  0.695   0.712   0.777   0.805   0.868   0.934   0.960   1.011
 17 A    18 A    19 A    20 A    21 A    22 A    23 A    24 A                  
  1.133   1.225   1.255   1.256   1.290   1.612   1.715   1.748
 25 A    26 A    27 A    28 A    29 A    30 A    31 A    32 A                  
  1.817   1.847   1.862   1.926   1.969   1.992   2.205   2.240
 33 A    34 A    35 A    36 A    37 A    38 A    39 A    40 A                  
  2.378   2.461   2.500   2.609   2.739   2.838   3.156   3.384
 41 A    42 A    43 A    44 A    45 A    46 A    47 A    48 A                  
  Import AO data ...  CPU 0.01 s  wall 0.05 s
  Using point group: C1
  Irreducible representations in point group: A
  Molecular orbitals: 
  Occupied MOs:
  Block   0:   1 (  A) A   2 (  A) A   3 (  A) A   4 (  A) A   5 (  A) A
                  -11.24      -11.24      -1.025      -0.795     -0.6429
               6 (  A) A   7 (  A) A   8 (  A) A
                 -0.5763     -0.5115      -0.367
  Block   1:   1 (  A) B   2 (  A) B   3 (  A) B   4 (  A) B   5 (  A) B
                  -11.24      -11.24      -1.025      -0.795     -0.6429
               6 (  A) B   7 (  A) B   8 (  A) B
                 -0.5763     -0.5115      -0.367
  Virtual MOs:
  Block   0:   9 (  A) A  10 (  A) A  11 (  A) A  12 (  A) A  13 (  A) A
                  0.1617      0.2032      0.2351      0.2401      0.3014
              14 (  A) A  15 (  A) A  16 (  A) A  17 (  A) A  18 (  A) A
                  0.4546      0.5813      0.6163      0.6951      0.7118
              19 (  A) A  20 (  A) A  21 (  A) A  22 (  A) A
                  0.7775      0.8049      0.8685      0.9337
  Block   1:  23 (  A) A  24 (  A) A  25 (  A) A  26 (  A) A  27 (  A) A
                  0.9599       1.011       1.133       1.225       1.255
              28 (  A) A  29 (  A) A  30 (  A) A  31 (  A) A  32 (  A) A
                   1.256        1.29       1.612       1.715       1.748
              33 (  A) A  34 (  A) A  35 (  A) A  36 (  A) A
                   1.817       1.847       1.862       1.926
  Block   2:  37 (  A) A  38 (  A) A  39 (  A) A  40 (  A) A  41 (  A) A
                   1.969       1.992       2.205        2.24       2.378
              42 (  A) A  43 (  A) A  44 (  A) A  45 (  A) A  46 (  A) A
                   2.461         2.5       2.609       2.739       2.838
              47 (  A) A  48 (  A) A
                   3.156       3.384
  Block   3:   9 (  A) B  10 (  A) B  11 (  A) B  12 (  A) B  13 (  A) B
                  0.1617      0.2032      0.2351      0.2401      0.3014
              14 (  A) B  15 (  A) B  16 (  A) B  17 (  A) B  18 (  A) B
                  0.4546      0.5813      0.6163      0.6951      0.7118
              19 (  A) B  20 (  A) B  21 (  A) B  22 (  A) B
                  0.7775      0.8049      0.8685      0.9337
  Block   4:  23 (  A) B  24 (  A) B  25 (  A) B  26 (  A) B  27 (  A) B
                  0.9599       1.011       1.133       1.225       1.255
              28 (  A) B  29 (  A) B  30 (  A) B  31 (  A) B  32 (  A) B
                   1.256        1.29       1.612       1.715       1.748
              33 (  A) B  34 (  A) B  35 (  A) B  36 (  A) B
                   1.817       1.847       1.862       1.926
  Block   5:  37 (  A) B  38 (  A) B  39 (  A) B  40 (  A) B  41 (  A) B
                   1.969       1.992       2.205        2.24       2.378
              42 (  A) B  43 (  A) B  44 (  A) B  45 (  A) B  46 (  A) B
                   2.461         2.5       2.609       2.739       2.838
              47 (  A) B  48 (  A) B
                   3.156       3.384
  Import MO data ...  CPU 0.01 s  wall 0.02 s
  Import HF data ...  CPU 0.07 s  wall 0.03 s
  Import 2e integrals ...  CPU 0.87 s  wall 0.14 s

--------------------------------------------------------------------------------
                                   HF Summary                                   
--------------------------------------------------------------------------------
  Energy:                                                  -78.0363135986 a.u.
  Dip. moment [a.u.]:                  [   0.000316,    0.005988,    0.001885]
  Total dipole [Debye]:                                               0.015977
  <r^2> [a.u.]:                        [ 173.414616,   34.990073,   11.684150]
  Total <r^2> [a.u.]:                                               220.088839
--------------------------------------------------------------------------------
  HF properties ...  CPU 0.01 s  wall 0.00 s
  MP(1) calculation ...  CPU 0.01 s  wall 0.00 s
  N^6 prerequesite intermediates ...  CPU 0.45 s  wall 0.07 s
  Difference density matrix of state mp2_gs printed to ASCII file 'State_mp2_gs_Difference.txt'
Exporting MP density matrix to file 'Densmat_MP.txt'.
Export successful
  Total density matrix of state mp2_gs printed to ASCII file 'State_mp2_gs_Total.txt'
Exporting MP density matrix to file 'Densmat_MP.txt'.
Export successful

--------------------------------------------------------------------------------
                                 MP(2) Summary                                  
--------------------------------------------------------------------------------
  MP energy contribution:                                   -0.2810816134 a.u.
  Total energy:                                            -78.3173952120 a.u.
  Dip. moment [a.u.]:                  [  -0.000133,    0.004519,    0.001755]
  Total dipole [Debye]:                                               0.012327
  <r^2> [a.u.]:                        [ 173.464890,   35.018345,   11.497678]
  Total <r^2> [a.u.]:                                               219.980913

  Density matrix analysis:
  ------------------------
  NOs
    Occupation of frontier NOs:
       0.0478   1.9360
    Number of electrons: 16.000000
    Number of unpaired electrons: n_u =  0.40952, n_u,nl =  0.04733
    NO participation ratio (PR_NO): 13.575170
  
  
  Mulliken Population Analysis
  Atom      Charge (e)              h+              e-           Del q
  --------------------------------------------------------------------
   1 H        0.044004        0.014368       -0.011164        0.003203
   2 C       -0.088340        0.095073       -0.100669       -0.005596
   3 H        0.054004        0.013954       -0.011192        0.002762
   4 C       -0.114197        0.095840       -0.101952       -0.006112
   5 H        0.050966        0.014231       -0.011204        0.003027
   6 H        0.053564        0.013977       -0.011262        0.002716
  --------------------------------------------------------------------
  Sum:       -0.000000        0.247443       -0.247443        0.000000
  
  Multipole moment analysis of the density matrix
    Molecular charge:                      -0.000000
    Number of electrons:                   16.000000
      Center of electronic charge [Ang]: [ -1.545572,  -0.065752,   0.001920]
    Total nuclear charge:                  16.000000
      Center of nuclear charge [Ang]:    [ -1.545576,  -0.065602,   0.001978]
    Dipole moment [D]:                     0.012327
      Cartesian components [D]:          [ -0.000339,   0.011487,   0.004461]
    RMS size of the density [Ang]:         1.207037
      Cartesian components [Ang]:        [  0.804458,   0.780103,   0.448582]
  
  Exciton analysis of the difference density matrix
    <r_h> [Ang]:                  [ -1.549396,  -0.067153,   0.001408]
    <r_e> [Ang]:                  [ -1.548435,  -0.064011,   0.001685]
    |<r_e - r_h>| [Ang]:            0.003297
    Hole size [Ang]:                1.403058
      Cartesian components [Ang]: [  0.847793,   0.837752,   0.740262]
    Electron size [Ang]:            1.360081
      Cartesian components [Ang]: [  0.882397,   0.856876,   0.580482]
--------------------------------------------------------------------------------
  MP(2) calculation ...  CPU 0.11 s  wall 0.25 s
  Start ADC(2)-s ...  CPU 0.01 s  wall 0.00 s
  ADC(2) intermediates ...  CPU 0.02 s  wall 0.01 s
  Starting Davidson for singlet states of irrep A ... 
--------------------------------------------------------------------------------
   It NVec Conv  Avg. Norm  Max. Norm  Conv. states           Remark
--------------------------------------------------------------------------------
        10    0  1.327e-01  4.674e-01  0.4059 n n n n n n n n Guess.
    1   20    0  2.598e-02  1.516e-01  0.3173 n n n n n n n n 
    2   30    0  7.013e-03  4.469e-02  0.3123 n n n n n n n n 
    3   40    0  2.497e-03  1.943e-02  0.3119 n n n n n n n n 
    4   50    0  9.540e-04  8.292e-03  0.3119 n n n n n n n n 
    5   20    0  6.838e-04  6.385e-03  0.3119 n n n n n n n n Subspace collapsed.
    6   30    0  1.359e-03  1.353e-02  0.3119 n n n n n n n n 
    7   40    0  1.187e-03  1.184e-02  0.3119 n n n n n n n n 
    8   50    0  1.001e-03  9.995e-03  0.3119 n n n n n n n n 
    9   20    0  5.680e-04  5.672e-03  0.3119 n n n n n n n n Subspace collapsed.
   10   30    3  4.266e-04  4.260e-03  0.3119 n y y y n n n n 
   11   40    5  2.026e-04  2.021e-03  0.3119 n y y y y y n n 
   12   50    5  1.878e-04  1.877e-03  0.3119 n y y y y y n n 
   13   20    6  1.349e-04  1.349e-03  0.3119 y y y y y y n n Subspace collapsed.
   14   30    6  2.402e-04  2.402e-03  0.3119 y y y y y y n n 
   15   40    8  2.143e-04  2.142e-03  0.3119 y y y y y y n y 
   16   50    8  2.139e-04  2.139e-03  0.3119 y y y y y y n y 
   17   20    8  1.107e-04  1.107e-03  0.3119 y y y y y y n y Subspace collapsed.
   18   30    8  1.048e-04  1.048e-03  0.3119 y y y y y y n y 
   19   40    8  4.818e-05  4.818e-04  0.3119 y y y y y y n y 
   20   50    9  4.848e-05  4.848e-04  0.3119 y y y y y y y y 
   21   20    9  3.451e-05  3.451e-04  0.3119 y y y y y y y y Subspace collapsed.
   22   30    9  5.679e-05  5.679e-04  0.3119 y y y y y y y y 
   23   39    9  5.805e-05  5.805e-04  0.3119 y y y y y y y y 
   24   47    9  5.844e-05  5.844e-04  0.3119 y y y y y y y y 
   25   50    9  5.681e-05  5.681e-04  0.3119 y y y y y y y y 
   26   16    9  2.909e-05  2.909e-04  0.3119 y y y y y y y y Subspace collapsed.
   27   22    9  2.476e-05  2.476e-04  0.3119 y y y y y y y y 
   28   28    9  1.228e-05  1.228e-04  0.3119 y y y y y y y y 
   29   33    9  1.199e-05  1.199e-04  0.3119 y y y y y y y y 
   30   37    9  1.648e-05  1.648e-04  0.3119 y y y y y y y y 
   31   41    9  1.325e-05  1.325e-04  0.3119 y y y y y y y y 
   32   45    9  1.000e-05  1.000e-04  0.3119 y y y y y y y y 
   33   49    9  1.083e-05  1.083e-04  0.3119 y y y y y y y y 
   34   50    9  1.095e-05  1.095e-04  0.3119 y y y y y y y y 
   35   14    9  4.011e-06  4.011e-05  0.3119 y y y y y y y y Subspace collapsed.
   36   18    9  4.012e-06  4.012e-05  0.3119 y y y y y y y y 
   37   22    9  2.300e-06  2.300e-05  0.3119 y y y y y y y y 
   38   26    9  1.964e-06  1.964e-05  0.3119 y y y y y y y y 
   39   30    9  1.855e-06  1.855e-05  0.3119 y y y y y y y y 
   40   34    9  1.926e-06  1.926e-05  0.3119 y y y y y y y y 
   41   38    9  1.499e-06  1.499e-05  0.3119 y y y y y y y y 
   42   41    9  1.448e-06  1.448e-05  0.3119 y y y y y y y y 
   43   44    9  1.334e-06  1.334e-05  0.3119 y y y y y y y y 
   44   44    9  1.334e-06  1.334e-05  0.3119 y y y y y y y y 
   45   50    9  1.348e-06  1.348e-05  0.3119 y y y y y y y y 
   46   10    9  1.348e-06  1.348e-05  0.3119 y y y y y y y y Subspace collapsed.
   47   10    9  1.348e-06  1.348e-05  0.3119 y y y y y y y y 
   48   12    9  1.336e-06  1.336e-05  0.3119 y y y y y y y y 
   49   12    9  1.336e-06  1.336e-05  0.3119 y y y y y y y y 
   50   13    9  1.332e-06  1.332e-05  0.3119 y y y y y y y y 
   51   13    9  1.332e-06  1.332e-05  0.3119 y y y y y y y y 
   52   13    9  1.332e-06  1.332e-05  0.3119 y y y y y y y y 
   53   23    9  5.807e-07  5.807e-06  0.3119 y y y y y y y y 
   54   24    9  6.219e-07  6.219e-06  0.3119 y y y y y y y y 
   55   25    9  5.559e-07  5.559e-06  0.3119 y y y y y y y y 
   56   26    9  5.539e-07  5.539e-06  0.3119 y y y y y y y y 
   57   27    9  5.403e-07  5.403e-06  0.3119 y y y y y y y y 
   58   28    9  6.044e-07  6.044e-06  0.3119 y y y y y y y y 
   59   29    9  5.296e-07  5.296e-06  0.3119 y y y y y y y y 
   60   30    9  4.457e-07  4.457e-06  0.3119 y y y y y y y y 
   61   31    9  4.974e-07  4.974e-06  0.3119 y y y y y y y y 
   62   32    9  4.907e-07  4.907e-06  0.3119 y y y y y y y y 
   63   33    9  4.047e-07  4.047e-06  0.3119 y y y y y y y y 
   64   34    9  2.835e-07  2.835e-06  0.3119 y y y y y y y y 
   65   35    9  2.638e-07  2.638e-06  0.3119 y y y y y y y y 
   66   36    9  2.276e-07  2.276e-06  0.3119 y y y y y y y y 
   67   37    9  2.334e-07  2.334e-06  0.3119 y y y y y y y y 
   68   38    9  1.809e-07  1.809e-06  0.3119 y y y y y y y y 
   69   39    9  1.377e-07  1.377e-06  0.3119 y y y y y y y y 
   70   40   10  9.945e-08  9.945e-07  0.3119 y y y y y y y y Converged.
--------------------------------------------------------------------------------
  Davidson Summary: 
 ------------------------------------------------------------
  State  0: excitation energy =   0.3119 a.u.   (converged)
  State  1: excitation energy =   0.3311 a.u.   (converged)
  State  2: excitation energy =   0.3328 a.u.   (converged)
  State  3: excitation energy =   0.3609 a.u.   (converged)
  State  4: excitation energy =   0.3678 a.u.   (converged)
  State  5: excitation energy =   0.3806 a.u.   (converged)
  State  6: excitation energy =   0.4296 a.u.   (converged)
  State  7: excitation energy =   0.4415 a.u.   (converged)
  State  8: excitation energy =   0.4506 a.u.   (converged)
  State  9: excitation energy =   0.4723 a.u.   (converged)
 ------------------------------------------------------------

  Singlet states of irrep A ...  CPU 134.21 s  wall 36.07 s
  TDMs ...  CPU 0.58 s  wall 0.23 s
  SDMs ...  CPU 1.36 s  wall 0.45 s
  Starting TPA DIIS iterations ... 
------------------------------------ 
   It     Res. Norm  Remark
------------------------------------
                       Guess.
    1     4.903e+00  
    2     6.616e+00  
    3     1.132e+00  
    4     2.692e-01  
    5     7.424e-02  
    6     2.730e-02  
    7     8.613e-03  
    8     1.288e-03  
    9     4.837e-04  
   10     8.493e-05  
   11     2.468e-05  
   12     4.220e-06  
   13     1.304e-06  
   14     4.526e-07  Converged.
   ... Converged in 14 steps (norm: 4.52601e-07)
------------------------------------
  Starting TPA DIIS iterations ... 
------------------------------------ 
   It     Res. Norm  Remark
------------------------------------
                       Guess.
    1     4.422e+00  
    2     5.989e+00  
    3     1.077e+00  
    4     2.836e-01  
    5     7.470e-02  
    6     2.980e-02  
    7     8.748e-03  
    8     1.504e-03  
    9     5.387e-04  
   10     9.364e-05  
   11     2.888e-05  
   12     4.586e-06  
   13     1.395e-06  
   14     4.395e-07  Converged.
   ... Converged in 14 steps (norm: 4.3948e-07)
------------------------------------
  Starting TPA DIIS iterations ... 
------------------------------------ 
   It     Res. Norm  Remark
------------------------------------
                       Guess.
    1     6.895e-01  
    2     4.892e-01  
    3     1.730e-01  
    4     7.379e-02  
    5     1.817e-02  
    6     6.541e-03  
    7     1.163e-03  
    8     4.026e-04  
    9     1.911e-04  
   10     4.152e-05  
   11     2.642e-05  
   12     9.111e-06  
   13     4.761e-06  
   14     1.950e-06  
   15     5.024e-07  Converged.
   ... Converged in 15 steps (norm: 5.02378e-07)
------------------------------------
  Starting TPA DIIS iterations ... 
------------------------------------ 
   It     Res. Norm  Remark
------------------------------------
                       Guess.
    1     5.474e+00  
    2     7.662e+00  
    3     1.282e+00  
    4     3.225e-01  
    5     9.074e-02  
    6     3.364e-02  
    7     1.059e-02  
    8     1.574e-03  
    9     6.012e-04  
   10     1.063e-04  
   11     3.154e-05  
   12     5.470e-06  
   13     1.745e-06  
   14     6.063e-07  Converged.
   ... Converged in 14 steps (norm: 6.06301e-07)
------------------------------------
  Starting TPA DIIS iterations ... 
------------------------------------ 
   It     Res. Norm  Remark
------------------------------------
                       Guess.
    1     4.935e+00  
    2     6.936e+00  
    3     1.218e+00  
    4     3.396e-01  
    5     9.140e-02  
    6     3.694e-02  
    7     1.078e-02  
    8     1.848e-03  
    9     6.695e-04  
   10     1.174e-04  
   11     3.688e-05  
   12     5.931e-06  
   13     1.833e-06  
   14     5.808e-07  Converged.
   ... Converged in 14 steps (norm: 5.80791e-07)
------------------------------------
  Starting TPA DIIS iterations ... 
------------------------------------ 
   It     Res. Norm  Remark
------------------------------------
                       Guess.
    1     7.098e-01  
    2     5.195e-01  
    3     1.903e-01  
    4     9.182e-02  
    5     2.050e-02  
    6     7.617e-03  
    7     1.428e-03  
    8     4.931e-04  
    9     2.416e-04  
   10     5.939e-05  
   11     3.493e-05  
   12     1.227e-05  
   13     6.816e-06  
   14     2.953e-06  
   15     7.180e-07  Converged.
   ... Converged in 15 steps (norm: 7.18019e-07)
------------------------------------
  Starting TPA DIIS iterations ... 
------------------------------------ 
   It     Res. Norm  Remark
------------------------------------
                       Guess.
    1     5.531e+00  
    2     7.769e+00  
    3     1.297e+00  
    4     3.280e-01  
    5     9.244e-02  
    6     3.429e-02  
    7     1.079e-02  
    8     1.603e-03  
    9     6.134e-04  
   10     1.085e-04  
   11     3.227e-05  
   12     5.603e-06  
   13     1.793e-06  
   14     6.230e-07  Converged.
   ... Converged in 14 steps (norm: 6.23014e-07)
------------------------------------
  Starting TPA DIIS iterations ... 
------------------------------------ 
   It     Res. Norm  Remark
------------------------------------
                       Guess.
    1     4.986e+00  
    2     7.032e+00  
    3     1.233e+00  
    4     3.454e-01  
    5     9.313e-02  
    6     3.769e-02  
    7     1.099e-02  
    8     1.884e-03  
    9     6.831e-04  
   10     1.199e-04  
   11     3.772e-05  
   12     6.073e-06  
   13     1.880e-06  
   14     5.961e-07  Converged.
   ... Converged in 14 steps (norm: 5.96091e-07)
------------------------------------
  Starting TPA DIIS iterations ... 
------------------------------------ 
   It     Res. Norm  Remark
------------------------------------
                       Guess.
    1     7.117e-01  
    2     5.224e-01  
    3     1.920e-01  
    4     9.372e-02  
    5     2.074e-02  
    6     7.728e-03  
    7     1.456e-03  
    8     5.022e-04  
    9     2.469e-04  
   10     6.137e-05  
   11     3.584e-05  
   12     1.262e-05  
   13     7.055e-06  
   14     3.069e-06  
   15     7.400e-07  Converged.
   ... Converged in 15 steps (norm: 7.39997e-07)
------------------------------------
  Starting TPA DIIS iterations ... 
------------------------------------ 
   It     Res. Norm  Remark
------------------------------------
                       Guess.
    1     6.604e+00  
    2     9.832e+00  
    3     1.578e+00  
    4     4.379e-01  
    5     1.265e-01  
    6     4.750e-02  
    7     1.486e-02  
    8     2.188e-03  
    9     8.601e-04  
   10     1.533e-04  
   11     4.729e-05  
   12     8.336e-06  
   13     2.847e-06  
   14     9.876e-07  Converged.
   ... Converged in 14 steps (norm: 9.8756e-07)
------------------------------------
  Starting TPA DIIS iterations ... 
------------------------------------ 
   It     Res. Norm  Remark
------------------------------------
                       Guess.
    1     5.952e+00  
    2     8.900e+00  
    3     1.497e+00  
    4     4.609e-01  
    5     1.277e-01  
    6     5.270e-02  
    7     1.519e-02  
    8     2.593e-03  
    9     9.568e-04  
   10     1.698e-04  
   11     5.500e-05  
   12     9.005e-06  
   13     2.882e-06  
   14     9.282e-07  Converged.
   ... Converged in 14 steps (norm: 9.28177e-07)
------------------------------------
  Starting TPA DIIS iterations ... 
------------------------------------ 
   It     Res. Norm  Remark
------------------------------------
                       Guess.
    1     7.438e-01  
    2     5.745e-01  
    3     2.231e-01  
    4     1.324e-01  
    5     2.525e-02  
    6     9.937e-03  
    7     2.028e-03  
    8     6.720e-04  
    9     3.507e-04  
   10     1.045e-04  
   11     5.549e-05  
   12     2.059e-05  
   13     1.303e-05  
   14     5.701e-06  
   15     1.179e-06  
   16     4.311e-07  Converged.
   ... Converged in 16 steps (norm: 4.31138e-07)
------------------------------------
  Starting TPA DIIS iterations ... 
------------------------------------ 
   It     Res. Norm  Remark
------------------------------------
                       Guess.
    1     6.919e+00  
    2     1.046e+01  
    3     1.660e+00  
    4     4.721e-01  
    5     1.372e-01  
    6     5.165e-02  
    7     1.613e-02  
    8     2.369e-03  
    9     9.380e-04  
   10     1.674e-04  
   11     5.214e-05  
   12     9.217e-06  
   13     3.211e-06  
   14     1.114e-06  
   15     6.240e-07  Converged.
   ... Converged in 15 steps (norm: 6.23952e-07)
------------------------------------
  Starting TPA DIIS iterations ... 
------------------------------------ 
   It     Res. Norm  Remark
------------------------------------
                       Guess.
    1     6.235e+00  
    2     9.468e+00  
    3     1.574e+00  
    4     4.969e-01  
    5     1.385e-01  
    6     5.745e-02  
    7     1.650e-02  
    8     2.813e-03  
    9     1.043e-03  
   10     1.855e-04  
   11     6.052e-05  
   12     9.950e-06  
   13     3.216e-06  
   14     1.043e-06  
   15     3.479e-07  Converged.
   ... Converged in 15 steps (norm: 3.47858e-07)
------------------------------------
  Starting TPA DIIS iterations ... 
------------------------------------ 
   It     Res. Norm  Remark
------------------------------------
                       Guess.
    1     7.522e-01  
    2     5.888e-01  
    3     2.319e-01  
    4     1.446e-01  
    5     2.662e-02  
    6     1.062e-02  
    7     2.212e-03  
    8     7.194e-04  
    9     3.826e-04  
   10     1.190e-04  
   11     6.212e-05  
   12     2.342e-05  
   13     1.539e-05  
   14     6.620e-06  
   15     1.331e-06  
   16     4.925e-07  Converged.
   ... Converged in 16 steps (norm: 4.92467e-07)
------------------------------------
  Starting TPA DIIS iterations ... 
------------------------------------ 
   It     Res. Norm  Remark
------------------------------------
                       Guess.
    1     7.577e+00  
    2     1.179e+01  
    3     1.830e+00  
    4     5.462e-01  
    5     1.602e-01  
    6     6.068e-02  
    7     1.888e-02  
    8     2.759e-03  
    9     1.108e-03  
   10     1.981e-04  
   11     6.285e-05  
   12     1.116e-05  
   13     4.051e-06  
   14     1.410e-06  
   15     8.371e-07  Converged.
   ... Converged in 15 steps (norm: 8.37106e-07)
------------------------------------
  Starting TPA DIIS iterations ... 
------------------------------------ 
   It     Res. Norm  Remark
------------------------------------
                       Guess.
    1     6.828e+00  
    2     1.068e+01  
    3     1.734e+00  
    4     5.748e-01  
    5     1.620e-01  
    6     6.780e-02  
    7     1.934e-02  
    8     3.290e-03  
    9     1.230e-03  
   10     2.196e-04  
   11     7.260e-05  
   12     1.203e-05  
   13     3.968e-06  
   14     1.309e-06  
   15     4.416e-07  Converged.
   ... Converged in 15 steps (norm: 4.41588e-07)
------------------------------------
  Starting TPA DIIS iterations ... 
------------------------------------ 
   It     Res. Norm  Remark
------------------------------------
                       Guess.
    1     7.683e-01  
    2     6.176e-01  
    3     2.499e-01  
    4     1.709e-01  
    5     2.957e-02  
    6     1.210e-02  
    7     2.616e-03  
    8     8.136e-04  
    9     4.511e-04  
   10     1.518e-04  
   11     7.722e-05  
   12     3.008e-05  
   13     2.125e-05  
   14     8.718e-06  
   15     1.711e-06  
   16     6.352e-07  Converged.
   ... Converged in 16 steps (norm: 6.35218e-07)
------------------------------------
  Starting TPA DIIS iterations ... 
------------------------------------ 
   It     Res. Norm  Remark
------------------------------------
                       Guess.
    1     1.128e+01  
    2     1.995e+01  
    3     2.764e+00  
    4     1.014e+00  
    5     3.074e-01  
    6     1.194e-01  
    7     3.637e-02  
    8     5.219e-03  
    9     2.224e-03  
   10     3.969e-04  
   11     1.342e-04  
   12     2.395e-05  
   13     1.095e-05  
   14     4.201e-06  
   15     2.790e-06  
   16     1.147e-06  
   17     6.887e-07  Converged.
   ... Converged in 17 steps (norm: 6.88678e-07)
------------------------------------
  Starting TPA DIIS iterations ... 
------------------------------------ 
   It     Res. Norm  Remark
------------------------------------
                       Guess.
    1     1.017e+01  
    2     1.807e+01  
    3     2.610e+00  
    4     1.067e+00  
    5     3.122e-01  
    6     1.358e-01  
    7     3.745e-02  
    8     6.307e-03  
    9     2.449e-03  
   10     4.403e-04  
   11     1.500e-04  
   12     2.627e-05  
   13     9.463e-06  
   14     3.567e-06  
   15     1.280e-06  
   16     5.559e-07  Converged.
   ... Converged in 16 steps (norm: 5.55866e-07)
------------------------------------
  Starting TPA DIIS iterations ... 
------------------------------------ 
   It     Res. Norm  Remark
------------------------------------
                       Guess.
    1     8.377e-01  
    2     7.587e-01  
    3     3.434e-01  
    4     3.218e-01  
    5     4.767e-02  
    6     2.085e-02  
    7     5.256e-03  
    8     1.299e-03  
    9     8.660e-04  
   10     3.776e-04  
   11     1.913e-04  
   12     8.334e-05  
   13     7.044e-05  
   14     2.416e-05  
   15     5.853e-06  
   16     1.892e-06  
   17     6.666e-07  Converged.
   ... Converged in 17 steps (norm: 6.66646e-07)
------------------------------------
  Starting TPA DIIS iterations ... 
------------------------------------ 
   It     Res. Norm  Remark
------------------------------------
                       Guess.
    1     1.263e+01  
    2     2.315e+01  
    3     3.093e+00  
    4     1.200e+00  
    5     3.669e-01  
    6     1.435e-01  
    7     4.342e-02  
    8     6.203e-03  
    9     2.687e-03  
   10     4.778e-04  
   11     1.634e-04  
   12     2.918e-05  
   13     1.442e-05  
   14     5.848e-06  
   15     3.826e-06  
   16     1.650e-06  
   17     9.398e-07  Converged.
   ... Converged in 17 steps (norm: 9.39802e-07)
------------------------------------
  Starting TPA DIIS iterations ... 
------------------------------------ 
   It     Res. Norm  Remark
------------------------------------
                       Guess.
    1     1.139e+01  
    2     2.097e+01  
    3     2.919e+00  
    4     1.261e+00  
    5     3.730e-01  
    6     1.640e-01  
    7     4.476e-02  
    8     7.518e-03  
    9     2.950e-03  
   10     5.299e-04  
   11     1.807e-04  
   12     3.255e-05  
   13     1.199e-05  
   14     4.720e-06  
   15     1.798e-06  
   16     8.034e-07  Converged.
   ... Converged in 16 steps (norm: 8.03373e-07)
------------------------------------
  Starting TPA DIIS iterations ... 
------------------------------------ 
   It     Res. Norm  Remark
------------------------------------
                       Guess.
    1     8.571e-01  
    2     8.041e-01  
    3     3.747e-01  
    4     3.702e-01  
    5     5.466e-02  
    6     2.394e-02  
    7     6.304e-03  
    8     1.507e-03  
    9     1.026e-03  
   10     4.702e-04  
   11     2.433e-04  
   12     1.074e-04  
   13     9.035e-05  
   14     3.099e-05  
   15     8.191e-06  
   16     2.648e-06  
   17     9.382e-07  Converged.
   ... Converged in 17 steps (norm: 9.38159e-07)
------------------------------------
  Starting TPA DIIS iterations ... 
------------------------------------ 
   It     Res. Norm  Remark
------------------------------------
                       Guess.
    1     1.384e+01  
    2     2.613e+01  
    3     3.385e+00  
    4     1.373e+00  
    5     4.228e-01  
    6     1.663e-01  
    7     5.005e-02  
    8     7.125e-03  
    9     3.126e-03  
   10     5.540e-04  
   11     1.909e-04  
   12     3.412e-05  
   13     1.800e-05  
   14     7.674e-06  
   15     4.918e-06  
   16     2.185e-06  
   17     1.191e-06  
   18     5.796e-07  Converged.
   ... Converged in 18 steps (norm: 5.79647e-07)
------------------------------------
  Starting TPA DIIS iterations ... 
------------------------------------ 
   It     Res. Norm  Remark
------------------------------------
                       Guess.
    1     1.248e+01  
    2     2.367e+01  
    3     3.193e+00  
    4     1.442e+00  
    5     4.302e-01  
    6     1.908e-01  
    7     5.163e-02  
    8     8.655e-03  
    9     3.424e-03  
   10     6.143e-04  
   11     2.095e-04  
   12     3.879e-05  
   13     1.450e-05  
   14     5.929e-06  
   15     2.403e-06  
   16     1.083e-06  
   17     5.580e-07  Converged.
   ... Converged in 17 steps (norm: 5.58032e-07)
------------------------------------
  Starting TPA DIIS iterations ... 
------------------------------------ 
   It     Res. Norm  Remark
------------------------------------
                       Guess.
    1     8.729e-01  
    2     8.433e-01  
    3     4.019e-01  
    4     4.089e-01  
    5     6.108e-02  
    6     2.657e-02  
    7     7.266e-03  
    8     1.722e-03  
    9     1.174e-03  
   10     5.562e-04  
   11     2.941e-04  
   12     1.307e-04  
   13     1.074e-04  
   14     3.761e-05  
   15     1.066e-05  
   16     3.537e-06  
   17     1.281e-06  
   18     5.006e-07  Converged.
   ... Converged in 18 steps (norm: 5.00566e-07)
------------------------------------
  Starting TPA DIIS iterations ... 
------------------------------------ 
   It     Res. Norm  Remark
------------------------------------
                       Guess.
    1     1.755e+01  
    2     3.578e+01  
    3     4.256e+00  
    4     1.926e+00  
    5     6.054e-01  
    6     2.419e-01  
    7     7.168e-02  
    8     1.013e-02  
    9     4.590e-03  
   10     8.032e-04  
   11     2.813e-04  
   12     5.055e-05  
   13     3.152e-05  
   14     1.518e-05  
   15     9.294e-06  
   16     4.375e-06  
   17     2.120e-06  
   18     1.098e-06  
   19     2.698e-07  Converged.
   ... Converged in 19 steps (norm: 2.69844e-07)
------------------------------------
  Starting TPA DIIS iterations ... 
------------------------------------ 
   It     Res. Norm  Remark
------------------------------------
                       Guess.
    1     1.585e+01  
    2     3.243e+01  
    3     4.009e+00  
    4     2.016e+00  
    5     6.171e-01  
    6     2.795e-01  
    7     7.405e-02  
    8     1.236e-02  
    9     4.993e-03  
   10     8.898e-04  
   11     3.050e-04  
   12     6.150e-05  
   13     2.363e-05  
   14     1.082e-05  
   15     5.162e-06  
   16     2.334e-06  
   17     1.081e-06  
   18     6.616e-07  Converged.
   ... Converged in 18 steps (norm: 6.61606e-07)
------------------------------------
  Starting TPA DIIS iterations ... 
------------------------------------ 
   It     Res. Norm  Remark
------------------------------------
                       Guess.
    1     9.142e-01  
    2     9.564e-01  
    3     4.802e-01  
    4     4.997e-01  
    5     8.111e-02  
    6     3.343e-02  
    7     1.023e-02  
    8     2.522e-03  
    9     1.646e-03  
   10     8.264e-04  
   11     4.694e-04  
   12     2.102e-04  
   13     1.464e-04  
   14     6.018e-05  
   15     2.023e-05  
   16     7.977e-06  
   17     2.513e-06  
   18     1.051e-06  
   19     4.734e-07  Converged.
   ... Converged in 19 steps (norm: 4.73412e-07)
------------------------------------
  Two-photon absorbption ...  CPU 96.99 s  wall 18.94 s
  Transition density matrix of state singlet_A_1 printed to ASCII file 'State_singlet_A_1_Transition.txt'
  Transition density matrix of state singlet_A_2 printed to ASCII file 'State_singlet_A_2_Transition.txt'
  Transition density matrix of state singlet_A_3 printed to ASCII file 'State_singlet_A_3_Transition.txt'
  Transition density matrix of state singlet_A_4 printed to ASCII file 'State_singlet_A_4_Transition.txt'
  Transition density matrix of state singlet_A_5 printed to ASCII file 'State_singlet_A_5_Transition.txt'
  Transition density matrix of state singlet_A_6 printed to ASCII file 'State_singlet_A_6_Transition.txt'
  Transition density matrix of state singlet_A_7 printed to ASCII file 'State_singlet_A_7_Transition.txt'
  Transition density matrix of state singlet_A_8 printed to ASCII file 'State_singlet_A_8_Transition.txt'
  Transition density matrix of state singlet_A_9 printed to ASCII file 'State_singlet_A_9_Transition.txt'
  Transition density matrix of state singlet_A_10 printed to ASCII file 'State_singlet_A_10_Transition.txt'
  Transition properties ...  CPU 0.15 s  wall 0.91 s
  Difference density matrix of state singlet_A_1 printed to ASCII file 'State_singlet_A_1_Difference.txt'
  Total density matrix of state singlet_A_1 printed to ASCII file 'State_singlet_A_1_Total.txt'
  Difference density matrix of state singlet_A_2 printed to ASCII file 'State_singlet_A_2_Difference.txt'
  Total density matrix of state singlet_A_2 printed to ASCII file 'State_singlet_A_2_Total.txt'
  Difference density matrix of state singlet_A_3 printed to ASCII file 'State_singlet_A_3_Difference.txt'
  Total density matrix of state singlet_A_3 printed to ASCII file 'State_singlet_A_3_Total.txt'
  Difference density matrix of state singlet_A_4 printed to ASCII file 'State_singlet_A_4_Difference.txt'
  Total density matrix of state singlet_A_4 printed to ASCII file 'State_singlet_A_4_Total.txt'
  Difference density matrix of state singlet_A_5 printed to ASCII file 'State_singlet_A_5_Difference.txt'
  Total density matrix of state singlet_A_5 printed to ASCII file 'State_singlet_A_5_Total.txt'
  Difference density matrix of state singlet_A_6 printed to ASCII file 'State_singlet_A_6_Difference.txt'
  Total density matrix of state singlet_A_6 printed to ASCII file 'State_singlet_A_6_Total.txt'
  Difference density matrix of state singlet_A_7 printed to ASCII file 'State_singlet_A_7_Difference.txt'
  Total density matrix of state singlet_A_7 printed to ASCII file 'State_singlet_A_7_Total.txt'
  Difference density matrix of state singlet_A_8 printed to ASCII file 'State_singlet_A_8_Difference.txt'
  Total density matrix of state singlet_A_8 printed to ASCII file 'State_singlet_A_8_Total.txt'
  Difference density matrix of state singlet_A_9 printed to ASCII file 'State_singlet_A_9_Difference.txt'
  Total density matrix of state singlet_A_9 printed to ASCII file 'State_singlet_A_9_Total.txt'
  Difference density matrix of state singlet_A_10 printed to ASCII file 'State_singlet_A_10_Difference.txt'
  Total density matrix of state singlet_A_10 printed to ASCII file 'State_singlet_A_10_Total.txt'
  Properties ...  CPU 0.27 s  wall 1.28 s
  ISR TDMS ...  CPU 7.75 s  wall 2.66 s
  ISR transition properties ...  CPU 0.14 s  wall 0.07 s
  Sum-over-states TPA ...  CPU 0.00 s  wall 0.00 s

--------------------------------------------------------------------------------
                   State-averaged natural transition orbitals
--------------------------------------------------------------------------------
--------------------------------------------------------------------------------
  SA-NTO decomposition ...  CPU 0.01 s  wall 0.04 s

--------------------------------------------------------------------------------
                             Excited State Summary
--------------------------------------------------------------------------------
--------------------------------------------------------------------------------

  Excited state 1 (singlet, A)                                     [converged]
  ----------------------------------------------------------------------------
  Term symbol:  2 (1) A                                     R^2 =  1.79579e-14

  Total energy:                                            -78.0055132534 a.u.
  Excitation energy:                                               8.486740 eV

  Osc. strength:                                                      0.431670
  Trans. dip. moment [a.u.]:           [   1.050895,   -0.985707,   -0.011174]
  <i|r^2|0> [a.u.]:                    [   6.157468,   -0.266104,    0.001629]
  Two-photon absorption cross-section (SoS) [a.u.]:                   0.028896
  Two-photon absorption matrix (SoS) [a.u.]:
                                       |    0.067530    0.026485    0.006042 |
                                       |    0.026485   -0.013649    0.001576 |
                                       |    0.006042    0.001576   -0.013588 |
  Two-photon absorption cross-section [a.u.]:                         0.024362
  Two-photon absorption matrix [a.u.]:
                                       |    0.025580    0.005353    0.002198 |
                                       |    0.005353   -0.057084    0.001641 |
                                       |    0.002198    0.001641   -0.023893 |

  Dip. moment [a.u.]:                  [  -0.000136,    0.003026,    0.002106]
  Total dipole [Debye]:                                               0.009377
  <r^2> [a.u.]:                        [ 174.237086,   35.666353,   11.866167]
  Total <r^2> [a.u.]:                                               221.769606

  V1^2 = 0.9715, V2^2 = 0.0285

  Important amplitudes:
      occ i     occ j     vir a      vir b          v   
    -----------------------------------------------------
     8 (A) A              9 (A) A                 0.6807
     6 (A) A             14 (A) A                 0.0680
     4 (A) A             10 (A) A                 0.0579
     7 (A) A             16 (A) A                 0.0539
     5 (A) A             13 (A) A                -0.0491
     6 (A) A             23 (A) A                -0.0466
     8 (A) A             20 (A) A                 0.0361
     6 (A) A             19 (A) A                 0.0354
     3 (A) A             12 (A) A                -0.0285
     7 (A) A             11 (A) A                 0.0237
     5 (A) A             22 (A) A                 0.0194
     8 (A) A   8 (A) B   17 (A) A   20 (A) B     -0.0186
     4 (A) A             24 (A) A                 0.0181
     3 (A) A             26 (A) A                -0.0181
     8 (A) A   8 (A) B    9 (A) A   27 (A) B     -0.0156
     6 (A) A             26 (A) A                -0.0154
     7 (A) A             21 (A) A                 0.0150
     3 (A) A             14 (A) A                 0.0142
     3 (A) A   4 (A) B    9 (A) A    9 (A) B     -0.0130
     3 (A) A             19 (A) A                 0.0125
     6 (A) A             22 (A) A                 0.0124
     8 (A) A   8 (A) B   18 (A) A   19 (A) B     -0.0113
     7 (A) A             32 (A) A                 0.0089
     6 (A) A             16 (A) A                 0.0085
     7 (A) A             14 (A) A                -0.0084
     7 (A) A             36 (A) A                 0.0083
     6 (A) A             12 (A) A                 0.0076
     8 (A) A   8 (A) B   25 (A) A   29 (A) B      0.0076
     3 (A) A             23 (A) A                -0.0076
     7 (A) A             23 (A) A                 0.0072
     5 (A) A             23 (A) A                 0.0069
     6 (A) A             40 (A) A                -0.0066
     6 (A) A             35 (A) A                -0.0064
     8 (A) A   8 (A) B    9 (A) A   28 (A) B      0.0062
     3 (A) A   6 (A) B    9 (A) A   27 (A) B     -0.0061
     5 (A) A   7 (A) B    9 (A) A    9 (A) B     -0.0059
     6 (A) A   8 (A) A   19 (A) A   27 (A) A      0.0059
     7 (A) A             19 (A) A                -0.0059
     5 (A) A   8 (A) B   11 (A) A   20 (A) B     -0.0059
     7 (A) A   8 (A) B   13 (A) A   20 (A) B      0.0058
    -----------------------------------------------------

  Density matrix analysis:
  ------------------------
  NOs
    Occupation of frontier NOs:
       0.9488   1.0221
    Number of electrons: 16.000000
    Number of unpaired electrons: n_u =  2.31459, n_u,nl =  2.03373
    NO participation ratio (PR_NO):  2.869680
  
  
  Mulliken Population Analysis
  Atom      Charge (e)              h+              e-           Del q
  --------------------------------------------------------------------
   1 H        0.050564        0.019108       -0.012548        0.006560
   2 C       -0.100094        0.489148       -0.500902       -0.011754
   3 H        0.060029        0.018850       -0.012825        0.006025
   4 C       -0.128503        0.488357       -0.502663       -0.014306
   5 H        0.057211        0.018819       -0.012575        0.006245
   6 H        0.060794        0.019451       -0.012221        0.007230
  --------------------------------------------------------------------
  Sum:       -0.000000        1.053734       -1.053734        0.000000
  
  Multipole moment analysis of the density matrix
    Molecular charge:                      -0.000000
    Number of electrons:                   16.000000
      Center of electronic charge [Ang]: [ -1.545572,  -0.065702,   0.001909]
    Total nuclear charge:                  16.000000
      Center of nuclear charge [Ang]:    [ -1.545576,  -0.065602,   0.001978]
    Dipole moment [D]:                     0.009377
      Cartesian components [D]:          [ -0.000346,   0.007691,   0.005354]
    RMS size of the density [Ang]:         1.219939
      Cartesian components [Ang]:        [  0.812815,   0.787342,   0.455714]
  
  Exciton analysis of the difference density matrix
    <r_h> [Ang]:                  [ -1.541725,  -0.066081,   0.001310]
    <r_e> [Ang]:                  [ -1.541724,  -0.065331,   0.001134]
    |<r_e - r_h>| [Ang]:            0.000770
    Hole size [Ang]:                1.289295
      Cartesian components [Ang]: [  0.735478,   0.709501,   0.786105]
    Electron size [Ang]:            1.462097
      Cartesian components [Ang]: [  0.863796,   0.822008,   0.846102]

  Transition density matrix analysis:
  -----------------------------------
  
  CT numbers (Mulliken)
    omega =     0.9535
    <Phe> =    -0.1680
  
  Exciton analysis of the transition density matrix
    Trans. dipole moment [D]:             1.831170
      Cartesian components [D]:         [  1.335554,  -1.252708,  -0.014201]
    <r_h> [Ang]:                        [ -1.539778,  -0.066924,   0.001513]
    <r_e> [Ang]:                        [ -1.542058,  -0.065270,   0.001020]
    |<r_e - r_h>| [Ang]:                  0.002859
    Hole size [Ang]:                      1.225148
      Cartesian components [Ang]:       [  0.662649,   0.639552,   0.807996]
    Electron size [Ang]:                  1.481279
      Cartesian components [Ang]:       [  0.872901,   0.828672,   0.863444]
    RMS electron-hole separation [Ang]:   1.944967
      Cartesian components [Ang]:       [  1.127871,   1.069893,   1.168815]
    Covariance(r_h, r_e) [Ang^2]:        -0.043855
    Correlation coefficient:             -0.024166
    Center-of-mass size [Ang]:            0.949666
      Cartesian components [Ang]:       [  0.531515,   0.511561,   0.598050]

  Decomposition into state-averaged NTOs
    H- 0 -> L+ 0:  0.6693 ( 89.6%)
    H- 2 -> L+ 5:  0.0887 (  1.6%)
    H- 5 -> L+ 6:  0.0733 (  1.1%)
                   omega =  95.4%
  ----------------------------------------------------------------------------


  Excited state 2 (singlet, A)                                     [converged]
  ----------------------------------------------------------------------------
  Term symbol:  3 (1) A                                     R^2 =  1.64185e-14

  Total energy:                                            -77.9863339013 a.u.
  Excitation energy:                                               9.008636 eV

  Osc. strength:                                                      0.008824
  Trans. dip. moment [a.u.]:           [   0.008585,    0.013758,   -0.199295]
  <i|r^2|0> [a.u.]:                    [   0.087699,    0.088648,   -0.122157]
  Two-photon absorption cross-section (SoS) [a.u.]:                   5.567338
  Two-photon absorption matrix (SoS) [a.u.]:
                                       |    0.049546    0.061292   -0.487921 |
                                       |    0.061292    0.084783   -0.664981 |
                                       |   -0.487921   -0.664981   -0.118390 |
  Two-photon absorption cross-section [a.u.]:                         0.308976
  Two-photon absorption matrix [a.u.]:
                                       |    0.009198    0.000446   -0.133296 |
                                       |    0.000446   -0.005014    0.143912 |
                                       |   -0.133296    0.143912    0.009279 |

  Dip. moment [a.u.]:                  [   0.243581,    0.369524,    0.035161]
  Total dipole [Debye]:                                               1.128479
  <r^2> [a.u.]:                        [ 176.525676,   35.967403,   12.458314]
  Total <r^2> [a.u.]:                                               224.951393

  V1^2 = 0.9554, V2^2 = 0.0446

  Important amplitudes:
      occ i     occ j     vir a      vir b          v   
    -----------------------------------------------------
     7 (A) A              9 (A) A                -0.5465
     8 (A) A             10 (A) A                 0.3930
     8 (A) A             11 (A) A                -0.1307
     7 (A) A             20 (A) A                -0.0620
     8 (A) A             24 (A) A                 0.0273
     5 (A) A   8 (A) B    9 (A) A    9 (A) B      0.0263
     6 (A) A              9 (A) A                 0.0258
     8 (A) A             16 (A) A                 0.0254
     8 (A) A             21 (A) A                -0.0185
     8 (A) A             18 (A) A                -0.0180
     8 (A) A             12 (A) A                 0.0155
     8 (A) A   8 (A) B    9 (A) A   12 (A) B     -0.0126
     4 (A) A   7 (A) B    9 (A) A   19 (A) B      0.0109
     5 (A) A             27 (A) A                 0.0108
     4 (A) A              9 (A) A                 0.0106
     5 (A) A   7 (A) B    9 (A) A   16 (A) B     -0.0106
     8 (A) A             15 (A) A                -0.0100
     8 (A) A   8 (A) B   10 (A) A   17 (A) B      0.0095
     5 (A) A   8 (A) B   11 (A) A   10 (A) B      0.0089
     7 (A) A   8 (A) B   20 (A) A   17 (A) B      0.0085
     7 (A) A   8 (A) B   13 (A) A   10 (A) B     -0.0078
     3 (A) A              9 (A) A                 0.0077
     5 (A) A   8 (A) B    9 (A) A   20 (A) B      0.0077
     5 (A) A   6 (A) A    9 (A) A   14 (A) A     -0.0076
     5 (A) A   6 (A) B    9 (A) A   19 (A) B     -0.0073
     7 (A) A   8 (A) A    9 (A) A   27 (A) A     -0.0073
     5 (A) A   6 (A) A    9 (A) A   23 (A) A      0.0072
     4 (A) A   6 (A) B    9 (A) A   16 (A) B      0.0071
     4 (A) A   5 (A) A    9 (A) A   10 (A) A      0.0068
     8 (A) A   7 (A) B    9 (A) A   27 (A) B      0.0065
     3 (A) A   7 (A) B    9 (A) A   18 (A) B     -0.0065
     5 (A) A   7 (A) A    9 (A) A   16 (A) A     -0.0063
     4 (A) A   8 (A) B    9 (A) A   25 (A) B      0.0062
     7 (A) A   8 (A) B   17 (A) A   20 (A) B      0.0062
     4 (A) A   8 (A) B   12 (A) A   10 (A) B     -0.0062
     5 (A) A   6 (A) B    9 (A) A   23 (A) B      0.0061
     7 (A) A   8 (A) B   19 (A) A   18 (A) B      0.0060
     6 (A) A   7 (A) B    9 (A) A   18 (A) B      0.0060
     7 (A) A   8 (A) B   22 (A) A   10 (A) B      0.0059
     4 (A) A   8 (A) A   10 (A) A   12 (A) A      0.0058
    -----------------------------------------------------

  Density matrix analysis:
  ------------------------
  NOs
    Occupation of frontier NOs:
       0.6488   1.3552
    Number of electrons: 16.000000
    Number of unpaired electrons: n_u =  2.35300, n_u,nl =  2.32445
    NO participation ratio (PR_NO):  4.868288
  
  
  Mulliken Population Analysis
  Atom      Charge (e)              h+              e-           Del q
  --------------------------------------------------------------------
   1 H        0.070180        0.064599       -0.038422        0.026177
   2 C       -0.074802        0.321855       -0.308317        0.013538
   3 H       -0.000962        0.118066       -0.173032       -0.054966
   4 C       -0.106592        0.329049       -0.321444        0.007605
   5 H        0.127731        0.111673       -0.034908        0.076765
   6 H       -0.015556        0.087009       -0.156129       -0.069119
  --------------------------------------------------------------------
  Sum:       -0.000000        1.032252       -1.032252        0.000000
  
  Multipole moment analysis of the density matrix
    Molecular charge:                      -0.000000
    Number of electrons:                   16.000000
      Center of electronic charge [Ang]: [ -1.553632,  -0.077824,   0.000815]
    Total nuclear charge:                  16.000000
      Center of nuclear charge [Ang]:    [ -1.545576,  -0.065602,   0.001978]
    Dipole moment [D]:                     1.128479
      Cartesian components [D]:          [  0.619121,   0.939237,   0.089370]
    RMS size of the density [Ang]:         1.231755
      Cartesian components [Ang]:        [  0.822034,   0.789580,   0.466950]
  
  Exciton analysis of the difference density matrix
    <r_h> [Ang]:                  [ -1.595553,  -0.083395,  -0.001494]
    <r_e> [Ang]:                  [ -1.720491,  -0.270512,  -0.018619]
    |<r_e - r_h>| [Ang]:            0.225645
    Hole size [Ang]:                1.474642
      Cartesian components [Ang]: [  0.889283,   1.000012,   0.619451]
    Electron size [Ang]:            1.744159
      Cartesian components [Ang]: [  1.098568,   1.091450,   0.802481]

  Transition density matrix analysis:
  -----------------------------------
  
  CT numbers (Mulliken)
    omega =     0.9216
    <Phe> =    -0.0117
  
  Exciton analysis of the transition density matrix
    Trans. dipole moment [D]:             0.254115
      Cartesian components [D]:         [  0.010910,   0.017485,  -0.253278]
    <r_h> [Ang]:                        [ -1.588974,  -0.071410,  -0.000439]
    <r_e> [Ang]:                        [ -1.728297,  -0.288594,  -0.020175]
    |<r_e - r_h>| [Ang]:                  0.258784
    Hole size [Ang]:                      1.418145
      Cartesian components [Ang]:       [  0.841002,   0.972271,   0.598783]
    Electron size [Ang]:                  1.762980
      Cartesian components [Ang]:       [  1.110896,   1.098780,   0.816512]
    RMS electron-hole separation [Ang]:   2.266038
      Cartesian components [Ang]:       [  1.394504,   1.472014,   1.011664]
    Covariance(r_h, r_e) [Ang^2]:         0.025637
    Correlation coefficient:              0.010254
    Center-of-mass size [Ang]:            1.136938
      Cartesian components [Ang]:       [  0.699557,   0.739189,   0.506802]

  Decomposition into state-averaged NTOs
    H- 1 -> L+ 0:  0.5401 ( 58.3%)
    H- 0 -> L+ 1: -0.3987 ( 31.8%)
    H- 0 -> L+ 2:  0.0917 (  1.7%)
                   omega =  92.2%
  ----------------------------------------------------------------------------


  Excited state 3 (singlet, A)                                     [converged]
  ----------------------------------------------------------------------------
  Term symbol:  4 (1) A                                     R^2 =  3.09437e-14

  Total energy:                                            -77.9845964630 a.u.
  Excitation energy:                                               9.055915 eV

  Osc. strength:                                                      0.016623
  Trans. dip. moment [a.u.]:           [   0.015348,    0.013321,   -0.272964]
  <i|r^2|0> [a.u.]:                    [   0.067022,   -0.059279,    0.085772]
  Two-photon absorption cross-section (SoS) [a.u.]:                   0.790805
  Two-photon absorption matrix (SoS) [a.u.]:
                                       |    0.001671   -0.016555    0.062150 |
                                       |   -0.016555   -0.046088    0.303578 |
                                       |    0.062150    0.303578    0.054170 |
  Two-photon absorption cross-section [a.u.]:                         0.320149
  Two-photon absorption matrix [a.u.]:
                                       |    0.022654    0.013146   -0.084018 |
                                       |    0.013146    0.015001   -0.179218 |
                                       |   -0.084018   -0.179218   -0.021665 |

  Dip. moment [a.u.]:                  [  -0.029641,   -0.132532,   -0.009447]
  Total dipole [Debye]:                                               0.346020
  <r^2> [a.u.]:                        [ 176.770334,   38.281397,   11.781057]
  Total <r^2> [a.u.]:                                               226.832788

  V1^2 = 0.9574, V2^2 = 0.0426

  Important amplitudes:
      occ i     occ j     vir a      vir b          v   
    -----------------------------------------------------
     8 (A) A             10 (A) A                 0.5652
     7 (A) A              9 (A) A                 0.3877
     8 (A) A             11 (A) A                 0.0549
     7 (A) A             20 (A) A                 0.0435
     8 (A) A             24 (A) A                 0.0412
     8 (A) A             18 (A) A                -0.0247
     6 (A) A              9 (A) A                -0.0219
     4 (A) A              9 (A) A                 0.0209
     5 (A) A   8 (A) B    9 (A) A    9 (A) B     -0.0187
     8 (A) A   8 (A) B    9 (A) A   12 (A) B     -0.0184
     8 (A) A             15 (A) A                -0.0155
     8 (A) A   8 (A) B   10 (A) A   17 (A) B      0.0138
     5 (A) A   8 (A) B   11 (A) A   10 (A) B      0.0131
     7 (A) A   8 (A) B   13 (A) A   10 (A) B     -0.0112
     8 (A) A             13 (A) A                -0.0109
     4 (A) A   8 (A) B   12 (A) A   10 (A) B     -0.0090
     6 (A) A   8 (A) A   10 (A) A   15 (A) A      0.0085
     4 (A) A   8 (A) A   10 (A) A   12 (A) A      0.0085
     6 (A) A   8 (A) B   15 (A) A   10 (A) B     -0.0084
     7 (A) A   8 (A) B   22 (A) A   10 (A) B      0.0084
     5 (A) A             27 (A) A                -0.0080
     8 (A) A             16 (A) A                -0.0079
     4 (A) A   7 (A) B    9 (A) A   19 (A) B     -0.0077
     7 (A) A   8 (A) A   10 (A) A   13 (A) A      0.0077
     7 (A) A   8 (A) A   10 (A) A   22 (A) A     -0.0077
     5 (A) A   8 (A) B   21 (A) A   10 (A) B      0.0076
     6 (A) A   8 (A) A   10 (A) A   18 (A) A     -0.0075
     5 (A) A   7 (A) B    9 (A) A   16 (A) B      0.0075
     5 (A) A   8 (A) A   10 (A) A   11 (A) A     -0.0073
     6 (A) A   8 (A) B   10 (A) A   10 (A) B     -0.0068
     3 (A) A   4 (A) B   10 (A) A    9 (A) B     -0.0066
     8 (A) A   8 (A) B    9 (A) A   23 (A) B      0.0065
     7 (A) A   8 (A) A   12 (A) A   16 (A) A     -0.0064
     5 (A) A   8 (A) A   10 (A) A   21 (A) A     -0.0064
     7 (A) A   8 (A) B   20 (A) A   17 (A) B     -0.0061
     3 (A) A   8 (A) B   10 (A) A   10 (A) B      0.0060
     4 (A) A   8 (A) B   19 (A) A   10 (A) B      0.0060
     3 (A) A   8 (A) A   10 (A) A   24 (A) A     -0.0058
     5 (A) A   8 (A) B   10 (A) A   11 (A) B      0.0058
     6 (A) A   8 (A) B   18 (A) A   10 (A) B      0.0057
    -----------------------------------------------------

  Density matrix analysis:
  ------------------------
  NOs
    Occupation of frontier NOs:
       0.6719   1.2915
    Number of electrons: 16.000000
    Number of unpaired electrons: n_u =  2.34230, n_u,nl =  2.29322
    NO participation ratio (PR_NO):  4.608220
  
  
  Mulliken Population Analysis
  Atom      Charge (e)              h+              e-           Del q
  --------------------------------------------------------------------
   1 H       -0.083576        0.063336       -0.190916       -0.127580
   2 C        0.123631        0.401526       -0.189555        0.211971
   3 H       -0.023142        0.079791       -0.156936       -0.077145
   4 C        0.117424        0.414516       -0.182895        0.231621
   5 H       -0.080860        0.091735       -0.223561       -0.131826
   6 H       -0.053478        0.063766       -0.170807       -0.107041
  --------------------------------------------------------------------
  Sum:       -0.000000        1.114671       -1.114671        0.000000
  
  Multipole moment analysis of the density matrix
    Molecular charge:                      -0.000000
    Number of electrons:                   16.000000
      Center of electronic charge [Ang]: [ -1.544596,  -0.061219,   0.002291]
    Total nuclear charge:                  16.000000
      Center of nuclear charge [Ang]:    [ -1.545576,  -0.065602,   0.001978]
    Dipole moment [D]:                     0.346020
      Cartesian components [D]:          [ -0.075340,  -0.336863,  -0.024012]
    RMS size of the density [Ang]:         1.257159
      Cartesian components [Ang]:        [  0.841439,   0.816238,   0.454075]
  
  Exciton analysis of the difference density matrix
    <r_h> [Ang]:                  [ -1.551817,  -0.037544,   0.003095]
    <r_e> [Ang]:                  [ -1.537808,   0.027520,   0.008413]
    |<r_e - r_h>| [Ang]:            0.066767
    Hole size [Ang]:                1.458675
      Cartesian components [Ang]: [  0.869003,   0.917223,   0.728882]
    Electron size [Ang]:            1.973053
      Cartesian components [Ang]: [  1.276261,   1.289068,   0.776144]

  Transition density matrix analysis:
  -----------------------------------
  
  CT numbers (Mulliken)
    omega =     0.9236
    <Phe> =    -0.0129
  
  Exciton analysis of the transition density matrix
    Trans. dipole moment [D]:             0.347862
      Cartesian components [D]:         [  0.019506,   0.016930,  -0.346902]
    <r_h> [Ang]:                        [ -1.551630,  -0.038241,   0.002892]
    <r_e> [Ang]:                        [ -1.534359,   0.043794,   0.009581]
    |<r_e - r_h>| [Ang]:                  0.084100
    Hole size [Ang]:                      1.325408
      Cartesian components [Ang]:       [  0.749768,   0.821070,   0.721386]
    Electron size [Ang]:                  2.055553
      Cartesian components [Ang]:       [  1.327106,   1.342106,   0.814149]
    RMS electron-hole separation [Ang]:   2.435266
      Cartesian components [Ang]:       [  1.514067,   1.567737,   1.086427]
    Covariance(r_h, r_e) [Ang^2]:         0.029277
    Correlation coefficient:              0.010746
    Center-of-mass size [Ang]:            1.228877
      Cartesian components [Ang]:       [  0.767239,   0.790528,   0.544563]

  Decomposition into state-averaged NTOs
    H- 0 -> L+ 1: -0.5493 ( 60.3%)
    H- 1 -> L+ 0: -0.3832 ( 29.4%)
    H- 0 -> L+ 2: -0.1081 (  2.3%)
                   omega =  92.4%
  ----------------------------------------------------------------------------


  Excited state 4 (singlet, A)                                     [converged]
  ----------------------------------------------------------------------------
  Term symbol:  5 (1) A                                     R^2 =  4.54669e-14

  Total energy:                                            -77.9565135613 a.u.
  Excitation energy:                                               9.820089 eV

  Osc. strength:                                                      0.000571
  Trans. dip. moment [a.u.]:           [  -0.001063,   -0.004192,    0.048528]
  <i|r^2|0> [a.u.]:                    [   0.023220,    0.012501,   -0.043049]
  Two-photon absorption cross-section (SoS) [a.u.]:                 163.653484
  Two-photon absorption matrix (SoS) [a.u.]:
                                       |    0.283294    0.337784   -3.225962 |
                                       |    0.337784    0.398533   -3.096000 |
                                       |   -3.225962   -3.096000   -0.679703 |
  Two-photon absorption cross-section [a.u.]:                       107.365854
  Two-photon absorption matrix [a.u.]:
                                       |    0.202420    0.271184   -2.422564 |
                                       |    0.271184    0.352018   -2.691160 |
                                       |   -2.422564   -2.691160   -0.554233 |

  Dip. moment [a.u.]:                  [  -0.226695,   -0.307754,   -0.031283]
  Total dipole [Debye]:                                               0.974792
  <r^2> [a.u.]:                        [ 177.838580,   40.924562,   10.823735]
  Total <r^2> [a.u.]:                                               229.586877

  V1^2 = 0.9636, V2^2 = 0.0364

  Important amplitudes:
      occ i     occ j     vir a      vir b          v   
    -----------------------------------------------------
     8 (A) A             11 (A) A                -0.6683
     7 (A) A              9 (A) A                 0.1361
     8 (A) A             21 (A) A                -0.0773
     6 (A) A              9 (A) A                -0.0728
     8 (A) A             16 (A) A                 0.0610
     8 (A) A             10 (A) A                -0.0309
     8 (A) A   8 (A) B    9 (A) A   13 (A) B      0.0174
     5 (A) A   8 (A) B   11 (A) A   11 (A) B     -0.0153
     8 (A) A   8 (A) B   11 (A) A   17 (A) B     -0.0139
     7 (A) A   8 (A) B   13 (A) A   11 (A) B      0.0125
     7 (A) A             20 (A) A                 0.0125
     8 (A) A             13 (A) A                 0.0110
     4 (A) A   8 (A) B   12 (A) A   11 (A) B      0.0109
     5 (A) A   8 (A) A   11 (A) A   21 (A) A      0.0108
     6 (A) A             20 (A) A                -0.0104
     8 (A) A   8 (A) B    9 (A) A   22 (A) B     -0.0104
     7 (A) A   8 (A) A   11 (A) A   22 (A) A      0.0093
     8 (A) A             14 (A) A                 0.0093
     6 (A) A   8 (A) B   15 (A) A   11 (A) B      0.0087
     6 (A) A   8 (A) B   10 (A) A   11 (A) B      0.0085
     7 (A) A   8 (A) B   22 (A) A   11 (A) B     -0.0085
     3 (A) A   4 (A) B   11 (A) A    9 (A) B      0.0082
     3 (A) A   8 (A) B   11 (A) A   18 (A) B      0.0080
     6 (A) A   8 (A) A   11 (A) A   15 (A) A     -0.0078
     7 (A) A   8 (A) A   11 (A) A   13 (A) A     -0.0077
     7 (A) A   8 (A) A   13 (A) A   16 (A) A      0.0075
     3 (A) A              9 (A) A                -0.0074
     5 (A) A   8 (A) B   21 (A) A   11 (A) B     -0.0071
     8 (A) A             24 (A) A                -0.0069
     4 (A) A   8 (A) B   19 (A) A   11 (A) B     -0.0067
     6 (A) A   8 (A) A   11 (A) A   18 (A) A      0.0066
     4 (A) A   8 (A) A   11 (A) A   12 (A) A     -0.0063
     6 (A) A   8 (A) B   18 (A) A   11 (A) B     -0.0061
     5 (A) A   8 (A) B    9 (A) A    9 (A) B     -0.0058
     3 (A) A   6 (A) B   11 (A) A   27 (A) B      0.0057
     7 (A) A   8 (A) B   16 (A) A   13 (A) B     -0.0056
     3 (A) A   8 (A) A   11 (A) A   18 (A) A      0.0056
     5 (A) A   8 (A) B   10 (A) A   10 (A) B     -0.0055
     3 (A) A   8 (A) B   10 (A) A   11 (A) B     -0.0054
     3 (A) A   5 (A) B   11 (A) A   25 (A) B      0.0054
    -----------------------------------------------------

  Density matrix analysis:
  ------------------------
  NOs
    Occupation of frontier NOs:
       0.9378   1.0301
    Number of electrons: 16.000000
    Number of unpaired electrons: n_u =  2.32060, n_u,nl =  2.05201
    NO participation ratio (PR_NO):  2.932017
  
  
  Mulliken Population Analysis
  Atom      Charge (e)              h+              e-           Del q
  --------------------------------------------------------------------
   1 H       -0.199157        0.041761       -0.284922       -0.243161
   2 C        0.301111        0.495893       -0.106442        0.389451
   3 H       -0.086534        0.049578       -0.190116       -0.140538
   4 C        0.268568        0.501508       -0.118743        0.382765
   5 H       -0.197212        0.050058       -0.298236       -0.248179
   6 H       -0.086776        0.040847       -0.181187       -0.140339
  --------------------------------------------------------------------
  Sum:       -0.000000        1.179646       -1.179646        0.000000
  
  Multipole moment analysis of the density matrix
    Molecular charge:                      -0.000000
    Number of electrons:                   16.000000
      Center of electronic charge [Ang]: [ -1.538079,  -0.055424,   0.003013]
    Total nuclear charge:                  16.000000
      Center of nuclear charge [Ang]:    [ -1.545576,  -0.065602,   0.001978]
    Dipole moment [D]:                     0.974791
      Cartesian components [D]:          [ -0.576201,  -0.782233,  -0.079513]
    RMS size of the density [Ang]:         1.284295
      Cartesian components [Ang]:        [  0.864180,   0.844500,   0.435230]
  
  Exciton analysis of the difference density matrix
    <r_h> [Ang]:                  [ -1.537834,  -0.056446,   0.002375]
    <r_e> [Ang]:                  [ -1.436201,   0.083637,   0.017196]
    |<r_e - r_h>| [Ang]:            0.173701
    Hole size [Ang]:                1.404043
      Cartesian components [Ang]: [  0.815578,   0.822175,   0.793849]
    Electron size [Ang]:            2.133025
      Cartesian components [Ang]: [  1.416217,   1.440209,   0.685510]

  Transition density matrix analysis:
  -----------------------------------
  
  CT numbers (Mulliken)
    omega =     0.9289
    <Phe> =    -0.0115
  
[...]
    16   -1.695754043797e-03
    17   -1.613964885312e-03
    18   -2.263318323672e-03
    19   -3.793521463477e-03
    20    1.485987189672e-02
    21    9.401850260624e-01
    22    7.503111564672e-05
    23    1.383255223079e-02
    24    7.915386412434e-04
    25    7.275509631678e-02
    26   -5.682099812763e-02
    27   -1.413019069482e+00
    28    1.029293404322e-01
    29   -8.503793622023e-02
    30   -1.133919351648e-05
    31    4.181209720441e-01
    32   -3.389367562463e-01
    33    4.335148513378e-04
    34    1.623524037476e-02
    35   -1.568213931858e-03
    36   -1.837221150497e-03
    37   -1.363931440586e-04
    38   -3.416598745866e-03
    39    6.740851604704e-03
    40    8.955770408302e-01
    41    1.919526582495e-04
    42   -1.338375350140e-02
    43   -7.888712412284e-04
    44    1.493654790457e-02
    45    1.018096342927e+00
    46    1.518931419251e-02
    47    7.098400472788e-04
    48    7.680334545060e-04
Sym=X
Ene= 0.235134
Spin=Alpha
Occup=0
     1    1.714923577804e-02
     2    1.294772862351e+00
     3   -1.516193301665e-02
     4   -4.756660976791e-03
     5   -1.007448080306e-03
     6    2.037191887376e-03
     7   -4.396512046975e-03
     8   -6.179005036913e-02
     9   -1.482615164672e-01
    10   -1.569795096781e-01
    11   -1.626019086378e-02
    12   -6.096713363770e-01
    13   -5.539969501060e-01
    14   -6.148095435364e-02
    15    3.240715336148e-04
    16   -2.274455595916e-04
    17   -4.219547090848e-05
    18   -1.742205520874e-03
    19   -6.841279383078e-04
    20   -2.607894888881e-02
    21   -1.184556834839e+00
    22   -2.365619861573e-03
    23   -1.408350153470e-02
    24   -9.307198648087e-04
    25    4.733162196174e-03
    26   -3.097752541301e-04
    27   -1.485535658296e-01
    28   -1.432658895448e-01
    29   -1.693492038314e-01
    30   -1.697464684121e-02
    31   -5.301861156236e-01
    32   -5.761782420343e-01
    33   -5.974963776644e-02
    34    2.729913939978e-03
    35   -5.411659806586e-05
    36   -5.320992810004e-04
    37    3.879305109871e-03
    38   -7.866464176209e-04
    39    2.109158228177e-02
    40    1.262245387736e+00
    41   -2.803531022286e-03
    42   -1.638808318989e-02
    43   -1.109157850861e-03
    44   -2.055699486472e-02
    45   -1.112462046137e+00
    46   -1.239266938813e-02
    47   -3.766527574055e-03
    48   -8.263299337781e-04
Sym=X
Ene= 0.240075
Spin=Alpha
Occup=0
     1    1.662893662462e-02
     2    1.174739725898e+00
     3   -1.920897403845e-02
     4   -8.803726549946e-03
     5   -1.496715708880e-03
     6    8.904607403090e-02
     7   -8.218978974849e-02
     8   -1.676567221461e+00
     9   -5.326256284951e-02
    10    5.417311629075e-02
    11   -7.120392125705e-05
    12   -2.201761766446e-01
    13    1.866175903021e-01
    14   -2.432009194408e-03
    15    2.352302477568e-02
    16   -2.855829847766e-03
    17   -2.987902912150e-03
    18   -9.903794547945e-04
    19   -1.372131995848e-02
    20    1.439102857910e-02
    21    1.061400594796e+00
    22    8.616389609555e-03
    23    1.689933208783e-02
    24    1.359726440416e-03
    25   -8.548703221265e-02
    26    7.703442442463e-02
    27    1.589495313128e+00
    28   -5.845170360060e-02
    29    4.909330511457e-02
    30    4.752933824855e-04
    31   -2.064141599975e-01
    32    1.928830474870e-01
    33    3.309274017895e-03
    34   -2.188890454972e-02
    35    2.496367555719e-03
    36    2.934898353197e-03
    37   -1.594401977571e-04
    38    1.258123475123e-02
    39   -1.790739811462e-02
    40   -1.046889429312e+00
    41    8.537003514315e-03
    42    1.676635247270e-02
    43    1.421739534239e-03
    44   -1.550474722225e-02
    45   -1.079380315471e+00
    46   -1.647451961224e-02
    47   -9.696216214302e-03
    48   -1.338982657821e-03
Sym=X
Ene= 0.301369
Spin=Alpha
Occup=0
     1   -2.772775067937e-02
     2    1.761782300250e+00
     3   -2.248402476668e-02
     4   -1.058121951442e-03
     5   -1.134701057144e-03
     6   -6.005307173044e-04
     7    1.235162809809e-03
     8   -8.207900028755e-02
     9   -1.331560416468e-01
    10   -1.375748755633e-01
    11   -1.442316316854e-02
    12   -1.149627190452e+00
    13   -1.173218100247e+00
    14   -1.240863803729e-01
    15    1.048179625808e-03
    16   -1.989996640227e-03
    17    1.523006828122e-03
    18   -3.269023738930e-02
    19   -3.609981102511e-03
    20    1.348264905169e-02
    21   -1.657006736214e+00
    22    1.376290850022e-03
    23   -2.223098844883e-02
    24   -1.233134084625e-03
    25    5.043576487559e-04
    26    4.728716146016e-04
    27   -4.472524129436e-02
    28    1.371737877025e-01
    29    1.401270843051e-01
    30    1.487411000215e-02
    31    1.104921076818e+00
    32    1.180037761311e+00
    33    1.227426087155e-01
    34    3.528159593430e-04
    35   -1.570612161739e-03
    36    1.730212134546e-03
    37   -3.054542188960e-02
    38   -2.729712911617e-03
    39    1.248303755592e-02
    40   -1.668062381758e+00
    41   -1.728611690202e-03
    42    2.218380825896e-02
    43    1.284002837918e-03
    44   -1.686127463160e-02
    45    1.702957017733e+00
    46    2.279212528986e-02
    47    5.498739897260e-04
    48    1.071116686097e-03
Sym=X
Ene= 0.454612
Spin=Alpha
Occup=0
     1    1.032993500838e-01
     2    7.911357274583e-01
     3    1.335511961376e-02
     4    1.347060780522e-02
     5    1.404533186893e-03
     6   -6.021748226717e-02
     7   -1.442854808942e-02
     8    3.193492796413e+00
     9   -1.057748997421e-01
    10    1.046215423600e-01
    11    4.984589990792e-04
    12   -2.373523435270e+00
    13    2.121621555297e+00
    14    1.540888247854e-02
    15   -5.093166743041e-02
    16    3.321985431680e-03
    17    4.880005935300e-03
    18   -2.101322086484e-03
    19   -1.150702389437e-02
    20    1.512821721893e-01
    21    5.925155094653e-01
    22   -7.014897227789e-03
    23   -1.608438999514e-02
    24   -1.308971242724e-03
    25    6.191204015122e-02
    26    8.249580292298e-03
    27   -3.225883439528e+00
    28   -1.193413640847e-01
    29    1.133630299252e-01
    30    1.117572986508e-03
    31   -2.311468097550e+00
    32    2.129828580175e+00
    33    2.210281598330e-02
    34    4.606480839716e-02
    35   -2.698438351357e-03
    36   -3.946162924817e-03
    37    7.344408666791e-04
    38    1.842400148630e-02
    39   -1.150882365232e-01
    40   -6.842246026921e-01
    41   -6.576092565083e-03
    42   -1.442026952707e-02
    43   -1.170602797952e-03
    44   -8.361504069569e-02
    45   -7.256838067118e-01
    46    1.164989682243e-02
    47    1.160822626897e-02
    48    1.256820597284e-03
Sym=X
Ene= 0.581308
Spin=Alpha
Occup=0
     1   -2.723695523297e-01
     2   -5.132167344204e-02
     3    1.138467313627e-02
     4   -2.063666807452e-02
     5   -6.369152614316e-04
     6   -2.009510423759e-03
     7    1.272633706684e-01
     8    6.396243537502e-01
     9   -2.943035371190e-01
    10    2.930725313664e-01
    11    3.847671414602e-03
    12    6.172912924388e-01
    13   -5.801761965506e-01
    14   -4.447921647030e-03
    15    9.480592780103e-03
    16   -4.318199232571e-03
    17   -4.822759047419e-03
    18    1.082167746573e-02
    19   -6.754345214981e-02
    20   -2.892829529437e-01
    21    7.205956383603e-02
    22    2.787492374906e-02
    23   -1.292363895548e-02
    24    5.952679060314e-04
    25    5.998848075134e-03
    26    1.335236439593e-01
    27    3.021524605949e-01
    28    2.792253088432e-01
    29   -2.792312632810e-01
    30   -3.829941163153e-03
    31   -8.206815671315e-01
    32    8.206687951140e-01
    33    1.042285957845e-02
    34    9.393272665378e-03
    35   -4.040763720343e-03
    36   -5.089329320872e-03
    37    1.577431567700e-02
    38   -6.668273973214e-02
    39   -2.952644063070e-01
    40   -4.964686548449e-02
    41   -2.932825088632e-02
    42    1.258318137314e-02
    43   -6.214566799877e-04
    44   -2.442132185141e-01
    45   -1.165847269650e-01
    46   -1.953620498592e-02
    47    2.798886154602e-02
    48    7.666927454664e-04
Sym=X
Ene= 0.616307
Spin=Alpha
Occup=0
     1   -5.089863579190e-01
     2    3.861295002037e-02
     3   -6.109988527654e-02
     4    3.619793058984e-02
     5   -8.284047912477e-04
     6   -3.290169308573e-03
     7   -1.458438280679e-02
     8   -8.019982375593e-02
     9   -5.658095830600e-02
    10   -4.357472665566e-02
    11   -5.244072053880e-03
    12    4.769860262112e-01
    13    2.134223982722e-01
    14    3.511685171696e-02
    15    4.359444980711e-03
    16   -7.296309893748e-03
    17    7.680444359687e-03
    18   -1.415144500092e-01
    19    1.603638998870e-03
    20    4.839936841880e-01
    21   -1.864360091206e-01
    22    4.504781179207e-02
    23   -5.471636841552e-02
    24   -1.022687330164e-03
    25    2.799205096697e-03
    26   -6.955077427880e-03
    27    1.506175606245e-01
    28   -5.788871093242e-02
    29   -3.266335698646e-02
    30   -4.606870086332e-03
    31    4.533944692469e-01
    32    1.891756328715e-01
    33    3.257477541012e-02
    34   -1.138369075456e-02
    35    8.401028963950e-03
    36   -7.733632934279e-03
    37    1.521529705228e-01
    38    7.640157827961e-03
    39   -4.828340103915e-01
    40    2.221056463005e-01
    41    4.391606809558e-02
    42   -5.503988327896e-02
    43   -1.279312093845e-03
    44    5.661964048037e-01
    45   -1.726692464320e-01
    46   -6.403071364640e-02
    47    3.385049139153e-02
    48   -9.314988630442e-04
Sym=X
Ene= 0.695126
Spin=Alpha
Occup=0
     1   -1.979284704431e-04
     2   -1.500689353895e-03
     3    1.715593556596e-03
     4    1.719454417486e-03
     5   -2.913245499852e-02
     6   -2.925711842399e-05
     7    1.396899376385e-03
     8   -8.761271193773e-04
     9    3.175739314217e-02
    10    4.040366247988e-02
    11   -6.772375191154e-01
    12   -2.713029324055e-02
    13   -3.832245447914e-02
    14    6.169798384398e-01
    15   -1.351711999338e-03
    16    8.437097197675e-02
    17   -7.551119735902e-02
    18   -8.480043180770e-03
    19   -1.608331203291e-03
    20   -1.342573278503e-04
    21   -1.485717407111e-03
    22    9.390005312493e-04
    23    8.653811827459e-04
    24   -1.978989985660e-02
    25    8.344077864779e-05
    26    6.231329843479e-04
    27   -6.371374529383e-05
    28    3.209049633458e-02
    29    4.044523595928e-02
    30   -6.770847645523e-01
    31   -2.738041438146e-02
    32   -3.821236873013e-02
    33    6.124850544609e-01
    34    8.905136541890e-04
    35   -8.358879909094e-02
    36    7.595103055919e-02
    37    8.427477364931e-03
    38    1.757917206502e-03
    39    1.259403447166e-03
    40    2.330068995649e-04
    41    1.192116604591e-03
    42    1.527042899804e-03
    43   -2.214191302309e-02
    44    1.218645964400e-03
    45    4.033153105374e-04
    46    8.751243989515e-04
    47    1.205590726089e-03
    48   -2.234979432174e-02
Sym=X
Ene= 0.711785
Spin=Alpha
Occup=0
     1   -4.306362537760e-01
     2    9.661914718250e-02
     3   -8.244036484441e-02
     4   -4.176450237717e-02
     5   -6.363869077156e-03
     6   -4.723836927089e-02
     7   -3.399736885336e-01
     8    5.673669477750e-01
     9    2.147184954967e-01
    10   -2.277182582738e-01
    11   -4.622009076848e-03
    12   -1.463223158344e-01
    13    1.886052921719e-01
    14    7.188233878136e-03
    15    1.884281541399e-01
    16   -2.001315770811e-02
    17   -2.324729263467e-02
    18    7.762152610853e-04
    19   -7.702196692146e-02
    20   -4.481981186368e-01
    21    1.884409927184e-01
    22    4.349316378010e-02
    23    7.875273731974e-02
    24    6.767449342400e-03
    25   -4.846874541149e-02
    26   -3.163759965266e-01
    27    3.590630414347e-01
    28   -2.279854175911e-01
    29    1.970566609920e-01
    30    1.980278385355e-04
    31    9.204721256750e-02
    32   -1.687200702847e-02
    33    3.148773991636e-03
    34    2.039942808302e-01
    35   -2.062265635502e-02
    36   -2.470184918683e-02
    37    1.345420928998e-03
    38   -6.767120974336e-02
    39   -4.896114982459e-01
    40    1.275927009031e-01
    41   -3.806212836425e-02
    42   -8.584551981261e-02
    43   -7.061302256192e-03
    44   -4.604159065779e-01
    45    1.759774845164e-01
    46    8.812434695139e-02
    47    4.498484338686e-02
    48    6.723658164786e-03
Sym=X
Ene= 0.777471
Spin=Alpha
Occup=0
     1   -4.831572540305e-01
     2    3.038389840666e-01
     3   -1.014746685584e-01
     4   -2.195922877087e-02
     5   -6.068315458890e-03
     6   -9.255778272517e-02
     7    1.869242117624e-01
     8    5.269724701144e-01
     9   -1.675035442714e-01
    10    9.085501272691e-02
    11   -3.833111527064e-03
    12   -1.407713932379e-01
    13    2.645553028485e-01
    14    1.319828727057e-02
    15    2.142544404509e-01
    16   -1.741111299188e-02
    17   -2.280193997927e-02
    18    1.383420449364e-02
    19   -3.909184214160e-03
    20   -5.712182139976e-01
    21    5.161348405050e-01
    22    1.844929857257e-02
    23    1.217766858438e-01
    24    8.070998061203e-03
    25    8.900688468172e-02
    26   -2.350158777770e-01
    27   -4.972013243447e-01
    28   -1.597379522539e-01
    29    1.408274033735e-01
    30    3.284129971566e-03
    31   -1.930107419421e-01
    32    1.339368290958e-01
    33   -5.033240822034e-03
    34   -1.980577306336e-01
    35    1.531920494666e-02
    36    2.127590221713e-02
    37   -1.161130203164e-02
    38   -5.279299618024e-03
    39    5.422252971250e-01
    40   -4.156186615031e-01
    41    1.568181686344e-02
    42    1.085828251105e-01
    43    7.311105410781e-03
    44    4.980767639075e-01
    45   -4.013549469491e-01
    46   -9.663882219678e-02
    47   -2.263691314112e-02
    48   -5.873008768972e-03
Sym=X
Ene= 0.804883
Spin=Alpha
Occup=0
     1    9.939301143159e-04
     2   -1.151075368859e-03
     3    2.438628252974e-03
     4    2.213820228309e-03
     5   -3.919308302190e-02
     6    1.936108542177e-04
     7    2.332947526025e-04
     8    3.357516554727e-04
     9    3.666098740348e-02
    10    4.470717285334e-02
    11   -7.607158033785e-01
    12   -5.264053822360e-02
    13   -6.663742934319e-02
    14    1.112948467999e+00
    15    7.569184819567e-05
    16   -5.846373861962e-02
    17    5.364267938596e-02
    18    5.953682030820e-03
    19    8.796274460283e-04
    20    1.171376619425e-03
    21   -1.633142207255e-03
    22    1.782746691583e-03
    23    1.406423381203e-03
    24   -3.462852100231e-02
    25   -2.337303908567e-04
    26    1.140974218015e-03
    27   -1.092958863932e-03
    28   -3.487462789267e-02
    29   -4.691198186654e-02
    30    7.634939620438e-01
    31    5.185149196181e-02
    32    6.762149636172e-02
    33   -1.112452990533e+00
    34    1.449284861879e-03
    35   -5.859651311671e-02
    36    5.294284317407e-02
    37    5.884562207360e-03
    38    1.379726906948e-03
    39   -1.076083305232e-03
    40    8.450351101720e-04
    41   -1.530109916822e-03
    42   -2.348631073138e-03
    43    3.472955947667e-02
    44   -9.711156895857e-04
    45    1.194186527821e-03
    46   -1.199000032160e-03
    47   -1.945619985751e-03
    48    3.149359431174e-02
Sym=X
Ene= 0.868500
Spin=Alpha
Occup=0
     1    2.832429115088e-02
     2   -1.034698825646e+00
     3    1.446123544611e-01
     4    5.606300733841e-02
     5    1.035971497589e-02
     6    7.444178711579e-03
     7    3.392534978441e-02
     8    1.984676595604e-02
     9   -3.461200863276e-01
    10   -4.391545959781e-01
    11   -4.225154498995e-02
    12    8.259279903070e-01
    13    1.020694576072e+00
    14    9.915790510612e-02
    15   -2.438907074404e-02
    16    1.279704443003e-02
    17   -1.159957605090e-02
    18    2.344379257928e-01
    19   -6.952231994732e-03
    20    2.381282615088e-03
    21    1.105982937015e+00
    22    6.040132049167e-02
    23    1.442749958496e-01
    24    1.117517450629e-02
    25   -3.527128368439e-03
    26    4.605347783261e-02
    27   -9.125368319025e-02
    28   -3.925744086228e-01
    29   -4.834728469710e-01
    30   -4.757616931682e-02
    31    9.120523373743e-01
    32    1.117240547847e+00
    33    1.103418505899e-01
    34    7.356031246723e-03
    35   -1.219186880390e-02
    36    1.426838268151e-02
    37   -2.499224555260e-01
    38    3.731580729724e-03
    39    2.130906920417e-02
    40   -1.160996779862e+00
    41    5.107822747836e-02
    42    1.605611758311e-01
    43    1.198448741272e-02
    44   -3.460986062618e-02
    45    1.111018440050e+00
    46    1.600255702860e-01
    47    5.289444814986e-02
    48    1.077149947210e-02
Sym=X
Ene= 0.933662
Spin=Alpha
Occup=0
     1   -9.148787032960e-02
     2    1.091954368966e+00
     3   -1.571200952525e-01
     4    2.549320800141e-02
     5   -5.776854797429e-03
     6   -8.559823919545e-03
     7   -1.285261260842e-01
     8   -2.630480874408e-02
     9    3.530550746574e-01
    10    6.007149527489e-01
    11    5.220277647007e-02
    12   -1.145364025680e+00
    13   -1.834212324804e+00
    14   -1.627373199739e-01
    15    2.092252622833e-02
    16   -3.621485625715e-03
    17    8.680687537279e-03
    18   -1.305935129571e-01
    19    7.224128103001e-02
    20    1.198825774411e-01
    21   -1.505094407846e+00
    22   -1.951290336049e-02
    23   -2.047557510414e-01
    24   -1.296645101110e-02
    25    4.512588560334e-03
    26   -5.739330722634e-02
    27    2.761126999197e-01
    28   -5.352651619732e-01
    29   -3.912157429486e-01
    30   -4.857132545246e-02
    31    1.674745502908e+00
    32    1.204674009044e+00
    33    1.506536288745e-01
    34   -1.386440237488e-02
    35   -6.494259803454e-03
    36    6.030676485040e-03
    37   -1.061960508127e-01
    38   -4.905640782305e-02
    39    1.076584274826e-01
    40   -1.105839006522e+00
    41   -2.644180131104e-02
    42    1.665577235184e-01
    43    9.018528338510e-03
    44   -1.141535019390e-01
    45    1.353949634610e+00
    46    1.755511670913e-01
    47    6.389509033510e-03
    48    8.398803185961e-03
Sym=X
Ene= 0.959911
Spin=Alpha
Occup=0
     1   -1.095836363356e-01
     2    1.276789976265e+00
     3   -1.367102602888e-01
     4   -9.388881762679e-02
     5   -1.231495228385e-02
     6    1.299940332684e-02
     7    1.487682209532e-01
     8    7.500187490000e-01
     9    5.708854318990e-01
    10   -3.116612982108e-01
    11    9.281267504517e-03
    12   -1.909525213501e+00
    13    9.828494550310e-01
    14   -3.330940021563e-02
    15   -3.159670173495e-02
    16   -1.676304414031e-02
    17   -8.537989382178e-03
    18   -2.823650698738e-02
    19   -2.934073933309e-01
    20   -8.167321364178e-02
    21    5.046909479660e-01
    22    9.114591080875e-02
    23    3.910407462508e-02
    24    6.290446167455e-03
    25   -1.489155215704e-02
    26   -2.446757148073e-01
    27   -6.045134645472e-01
    28    4.079278489440e-01
    29   -5.217575679808e-01
    30   -1.286357429838e-02
    31   -1.289685408530e+00
    32    1.731895408794e+00
    33    4.547182134824e-02
    34    3.381028990598e-02
    35    1.436989418885e-02
    36    1.192130229454e-02
    37   -2.469675184125e-02
    38    2.973524807866e-01
    39    1.051395592924e-01
    40   -1.144037673721e+00
    41    9.126072917674e-02
    42    1.271958321057e-01
    43    1.197242553192e-02
    44    1.130364622222e-01
    45   -7.515577003792e-01
    46   -7.412311462483e-02
    47   -9.798876815713e-02
    48   -9.439375256057e-03
[5D]

======= END OF MOLDEN-FORMATTED INPUT FILE =======


        *************************************************************
        *                                                           *
        *  Thank you very much for using Q-Chem.  Have a nice day.  *
        *                                                           *
        *************************************************************


