                  Welcome to Q-Chem
     A Quantum Leap Into The Future Of Chemistry


 Q-Chem 5.4 (devel), Q-Chem, Inc., Pleasanton, CA (2021)

 E. Epifanovsky,  A. T. B. Gilbert,  Xintian Feng,  Joonho Lee,  Yuezhi Mao,  
 N. Mardirossian,  P. Pokhilko,  A. White,  M. Wormit,  M. P. Coons,  
 A. L. Dempwolff,  Zhengting Gan,  D. Hait,  P. R. Horn,  L. D. Jacobson,  
 I. Kaliman,  J. Kussmann,  A. W. Lange,  Ka Un Lao,  D. S. Levine,  Jie Liu,  
 S. C. McKenzie,  A. F. Morrison,  K. Nanda,  F. Plasser,  D. R. Rehn,  
 M. L. Vidal,  Zhi-Qiang You,  Ying Zhu,  B. Alam,  B. Albrecht,  
 A. Aldossary,  E. Alguire,  J. H. Andersen,  D. Barton,  K. Begam,  A. Behn,  
 Y. A. Bernard,  E. J. Berquist,  H. Burton,  A. Carreras,  K. Carter-Fenk,  
 R. Chakraborty,  A. D. Chien,  K. D. Closser,  V. Cofer-Shabica,  
 S. Dasgupta,  Jia Deng,  M. de Wergifosse,  M. Diedenhofen,  Hainam Do,  
 S. Ehlert,  Po-Tung Fang,  S. Fatehi,  Qingguo Feng,  T. Friedhoff,  
 J. Gayvert,  Qinghui Ge,  G. Gidofalvi,  M. Goldey,  J. Gomes,  
 C. Gonzalez-Espinoza,  S. Gulania,  A. Gunina,  M. W. D. Hanson-Heine,  
 P. H. P. Harbach,  A. W. Hauser,  M. F. Herbst,  M. Hernandez Vera,  
 M. Hodecker,  Z. C. Holden,  S. Houck,  Xunkun Huang,  Kerwin Hui,  
 B. C. Huynh,  M. Ivanov,  Hyunjun Ji,  Hanjie Jiang,  B. Kaduk,  S. Kaehler,  
 K. Khistyaev,  Jaehoon Kim,  P. Klunzinger,  Z. Koczor-Benda,  
 Joong Hoon Koh,  D. Kosenkov,  L. Koulias,  T. Kowalczyk,  C. M. Krauter,  
 K. Kue,  A. Kunitsa,  T. Kus,  A. Landau,  K. V. Lawler,  D. Lefrancois,  
 S. Lehtola,  Rain Li,  Yi-Pei Li,  Jiashu Liang,  M. Liebenthal,  
 Hung-Hsuan Lin,  You-Sheng Lin,  Fenglai Liu,  Kuan-Yu Liu,  
 M. Loipersberger,  A. Luenser,  A. Manjanath,  P. Manohar,  E. Mansoor,  
 S. F. Manzer,  Shan-Ping Mao,  A. V. Marenich,  T. Markovich,  S. Mason,  
 S. A. Maurer,  P. F. McLaughlin,  M. F. S. J. Menger,  J.-M. Mewes,  
 S. A. Mewes,  P. Morgante,  J. W. Mullinax,  K. J. Oosterbaan,  G. Paran,  
 Alexander C. Paul,  Suranjan K. Paul,  F. Pavosevic,  Zheng Pei,  S. Prager,  
 E. I. Proynov,  E. Ramos,  B. Rana,  A. E. Rask,  A. Rettig,  R. M. Richard,  
 F. Rob,  E. Rossomme,  T. Scheele,  M. Scheurer,  M. Schneider,  
 N. Sergueev,  S. M. Sharada,  W. Skomorowski,  D. W. Small,  C. J. Stein,  
 Yu-Chuan Su,  E. J. Sundstrom,  Zhen Tao,  J. Thirman,  T. Tsuchimochi,  
 N. M. Tubman,  S. P. Veccham,  O. Vydrov,  J. Wenzel,  J. Witte,  A. Yamada,  
 Kun Yao,  S. Yeganeh,  S. R. Yost,  A. Zech,  Igor Ying Zhang,  Xing Zhang,  
 Yu Zhang,  D. Zuev,  A. Aspuru-Guzik,  A. T. Bell,  N. A. Besley,  
 K. B. Bravaya,  B. R. Brooks,  D. Casanova,  Jeng-Da Chai,  S. Coriani,  
 C. J. Cramer,  A. E. DePrince, III,  R. A. DiStasio Jr.,  A. Dreuw,  
 B. D. Dunietz,  T. R. Furlani,  W. A. Goddard III,  S. Grimme,  
 S. Hammes-Schiffer,  T. Head-Gordon,  W. J. Hehre,  Chao-Ping Hsu,  
 T.-C. Jagau,  Yousung Jung,  A. Klamt,  Jing Kong,  D. S. Lambrecht,  
 WanZhen Liang,  N. J. Mayhall,  C. W. McCurdy,  J. B. Neaton,  
 C. Ochsenfeld,  J. A. Parkhill,  R. Peverati,  V. A. Rassolov,  Yihan Shao,  
 L. V. Slipchenko,  T. Stauch,  R. P. Steele,  J. E. Subotnik,  
 A. J. W. Thom,  A. Tkatchenko,  D. G. Truhlar,  T. Van Voorhis,  
 T. A. Wesolowski,  K. B. Whaley,  H. L. Woodcock III,  P. M. Zimmerman,  
 S. Faraji,  P. M. W. Gill,  M. Head-Gordon,  J. M. Herbert,  A. I. Krylov

 Additional authors for Version 5.4.1: 
 S. Kotaru,  Shaozhi Li,  Xiangyuan Li,  F. Matz,  A. Molle,  Haisheng Ren,  
 Yingli Su,  Hung-Yi Tsai,  C. Utku,  Fang Wang

 Contributors to earlier versions of Q-Chem not listed above: 
 R. D. Adamson,  B. Austin,  R. Baer,  J. Baker,  G. J. O. Beran,  
 K. Brandhorst,  S. T. Brown,  E. F. C. Byrd,  A. K. Chakraborty,  
 G. K. L. Chan,  Chun-Min Chang,  Yunqing Chen,  C.-L. Cheng,  
 Siu Hung Chien,  D. M. Chipman,  D. L. Crittenden,  H. Dachsel,  
 R. J. Doerksen,  A. D. Dutoi,  R. G. Edgar,  J. Fosso-Tande,  
 L. Fusti-Molnar,  D. Ghosh,  A. Ghysels,  A. Golubeva-Zadorozhnaya,  
 J. Gonthier,  M. S. Gordon,  S. R. Gwaltney,  G. Hawkins,  J. E. Herr,  
 A. Heyden,  S. Hirata,  E. G. Hohenstein,  G. Kedziora,  F. J. Keil,  
 C. Kelley,  Jihan Kim,  R. A. King,  R. Z. Khaliullin,  P. P. Korambath,  
 W. Kurlancheek,  A. Laurent,  A. M. Lee,  M. S. Lee,  S. V. Levchenko,  
 Ching Yeh Lin,  D. Liotard,  E. Livshits,  R. C. Lochan,  I. Lotan,  
 L. A. Martinez-Martinez,  P. E. Maslen,  N. Nair,  D. P. O'Neill,  
 D. Neuhauser,  E. Neuscamman,  C. M. Oana,  R. Olivares-Amaya,  R. Olson,  
 T. M. Perrine,  B. Peters,  P. A. Pieniazek,  A. Prociuk,  Y. M. Rhee,  
 J. Ritchie,  M. A. Rohrdanz,  E. Rosta,  N. J. Russ,  H. F. Schaefer III,  
 M. W. Schmidt,  N. E. Schultz,  S. Sharma,  N. Shenvi,  C. D. Sherrill,  
 A. C. Simmonett,  A. Sodt,  T. Stein,  D. Stuck,  K. S. Thanthiriwatte,  
 V. Vanovschi,  L. Vogt,  Tao Wang,  A. Warshel,  M. A. Watson,  
 C. F. Williams,  Q. Wu,  X. Xu,  Jun Yang,  W. Zhang,  Yan Zhao

 Please cite Q-Chem as follows:
 Y. Shao et al., Mol. Phys. 113, 184-215 (2015)
 DOI: 10.1080/00268976.2014.952696

 Q-Chem 5.4.1 for Intel X86 EM64T Linux

 Parts of Q-Chem use Armadillo 9.800.1 (Horizon Scraper).
 http://arma.sourceforge.net/

 Q-Chem begins on Thu Nov 17 00:22:07 2022  

 Host: cpu016.baobab
0

     Scratch files written to /scratch/fum/qchem47574//
 Processing $rem in /home/share/wesolowski/qc5.aug2021.FDE/config/preferences:
 Processing $rem in /home/fum/.qchemrc:

 Checking the input file for inconsistencies... 	...done.

--------------------------------------------------------------
User input:
--------------------------------------------------------------
$comment
generated from CCJob.Templates
$end

$rem
sym_ignore = true
method = adc(2)
ee_states = 10
basis = cc-pVDZ
mem_static = 1024
mem_total = 30000
adc_davidson_maxiter = 900
adc_davidson_conv = 6
adc_print = 3
adc_prop_es = true
adc_prop_es2es = true
adc_prop_tpa = true
molden_format = True
state_analysis = true
print_orbitals = 15
gen_scfman = false
fde_export_density = true
fde_details = 3
$end

$molecule
0 1
H -0.0298278765 -0.2442097827 0.0636489606
C -1.0765972949 -0.5242748755 -0.0023551776
H -1.313264467 -1.5767591607 -0.0757276926
C -2.043634118 0.3926884087 0.0061254933
H -1.8137616575 1.4459188338 0.0804456828
H -3.085977293 0.114931858 -0.0593381042                     
$end
--------------------------------------------------------------
 ----------------------------------------------------------------
             Standard Nuclear Orientation (Angstroms)
    I     Atom           X                Y                Z
 ----------------------------------------------------------------
    1      H      -0.0298278765    -0.2442097827     0.0636489606
    2      C      -1.0765972949    -0.5242748755    -0.0023551776
    3      H      -1.3132644670    -1.5767591607    -0.0757276926
    4      C      -2.0436341180     0.3926884087     0.0061254933
    5      H      -1.8137616575     1.4459188338     0.0804456828
    6      H      -3.0859772930     0.1149318580    -0.0593381042
 ----------------------------------------------------------------
 Nuclear Repulsion Energy =          33.40608236 hartrees
 There are        8 alpha and        8 beta electrons
 Requested basis set is cc-pVDZ
 There are 24 shells and 48 basis functions
 Total memory of 30000 MB is distributed as follows: 
   MEM_STATIC is set to 1024 MB
   QALLOC/CCMAN JOB total memory use is  28976 MB
 Warning: actual memory use might exceed 30000 MB

 Total QAlloc Memory Limit  30000 MB
 Mega-Array Size      1001 MB
 MEM_STATIC part      1024 MB

                       Distance Matrix (Angstroms)
             H (  1)   C (  2)   H (  3)   C (  4)   H (  5)
   C (  2)  1.085596
   H (  3)  1.855350  1.081258
   C (  4)  2.112904  1.332687  2.102109
   H (  5)  2.457486  2.105215  3.067812  1.080583
   H (  6)  3.079636  2.109370  2.450428  1.080700  1.846510

 A cutoff of  1.0D-11 yielded    300 shell pairs
 There are      1220 function pairs (      1329 Cartesian)
 Smallest overlap matrix eigenvalue = 4.80E-03

 Scale SEOQF with 1.000000e-01/1.000000e-01/1.000000e+00

 Standard Electronic Orientation quadrupole field applied
 Nucleus-field energy     =     0.0000000022 hartrees
 Guess from superposition of atomic densities
 Warning:  Energy on first SCF cycle will be non-variational
 SAD guess density has 16.000000 electrons
 A restricted Hartree-Fock SCF calculation will be
 performed using Pulay DIIS extrapolation
 SCF converges when DIIS error is below 1.0E-08
 using 8 threads for integral computing
 -------------------------------------------------------
 OpenMP Integral computing Module                
 Release: version 1.0, May 2013, Q-Chem Inc. Pittsburgh 
 -------------------------------------------------------
 ---------------------------------------
  Cycle       Energy         DIIS Error
 ---------------------------------------
    1     -78.4353521841      1.01E-01
    2     -78.0177057555      7.21E-03
    3     -78.0383247968      1.84E-03
    4     -78.0398073663      5.73E-04
    5     -78.0399289009      5.83E-05
    6     -78.0399307803      1.01E-05
    7     -78.0399308443      3.53E-06
    8     -78.0399308492      1.09E-06
    9     -78.0399308498      1.18E-07
   10     -78.0399308498      3.23E-08
   11     -78.0399308498      7.81E-09 Convergence criterion met
 ---------------------------------------
 SCF time:  CPU 1.65 s  wall 2.12 s
 SCF   energy in the final basis set = -78.03993085
 Total energy in the final basis set = -78.03993085
Exporting Density Matrix to file 'Densmat_SCF.txt'.
Export successful
================================================================================
|                                                                              |
|                                 A D C  M A N                                 |
|                                                                              |
 ------------------------------------------------------------------------------ 
|                                                                              |
| Components:                                                                  |
|                                                                              |
| - libvmm - 1.3-trunk                                                         |
|   Authors:                                                                   |
|   Evgeny Epifanovsky, Ilya Kaliman                                           |
|                                                                              |
| - libtensor - 2.5-trunk                                                      |
|   Authors:                                                                   |
|   Evgeny Epifanovsky, Michael Wormit, Dmitry Zuev, Sam Manzer,               |
|   Ilya Kaliman                                                               |
|                                                                              |
| - libwfa - 1.1-trunk                                                         |
|   Authors:                                                                   |
|   Felix Plasser, Stefanie Mewes (Baeppler), Benjamin Thomitzni,              |
|   Michael Wormit, Feng Chen, Anna I. Krylov, Pavel Pokhilko                  |
|                                                                              |
| - libadc - 1.1-trunk                                                         |
|   Authors:                                                                   |
|   Michael Wormit, Adrian L. Dempwolff, Philipp H. P. Harbach,                |
|   Caroline Krauter, Dirk Rehn, Matthias Schneider, Jan Wenzel                |
|                                                                              |
| - adcman - 2.6-trunk                                                         |
|   Authors:                                                                   |
|   Michael Wormit, Adrian L. Dempwolff, Philipp H. P. Harbach,                |
|   Caroline Krauter, Daniel Lefrancois, Jan-Michael Mewes, Dirk Rehn,         |
|   Matthias Schneider, Jan Wenzel, Andreas Dreuw                              |
|                                                                              |
| Authors of earlier versions of ADCMAN:                                       |
| Andreas Dreuw, Jan Hendrik Starcke, Dirk Rehn, Michael Wormit                |
|                                                                              |
================================================================================

 Created directory /scratch/fum/qchem47574/plots
  Import QC data ...  CPU 0.00 s  wall 0.00 s

 Alpha MOs, Restricted
 -- Occupied --                  
-11.235 -11.234  -1.032  -0.789  -0.641  -0.582  -0.504  -0.374
  1 A     2 A     3 A     4 A     5 A     6 A     7 A     8 A                  
 -- Virtual --                   
  0.168   0.204   0.233   0.239   0.303   0.462   0.578   0.615
  9 A    10 A    11 A    12 A    13 A    14 A    15 A    16 A                  
  0.689   0.708   0.784   0.808   0.862   0.935   0.972   1.009
 17 A    18 A    19 A    20 A    21 A    22 A    23 A    24 A                  
  1.130   1.235   1.254   1.266   1.293   1.600   1.726   1.750
 25 A    26 A    27 A    28 A    29 A    30 A    31 A    32 A                  
  1.819   1.859   1.866   1.920   1.975   1.978   2.221   2.257
 33 A    34 A    35 A    36 A    37 A    38 A    39 A    40 A                  
  2.374   2.451   2.504   2.632   2.718   2.819   3.137   3.396
 41 A    42 A    43 A    44 A    45 A    46 A    47 A    48 A                  

 Beta MOs, Restricted
 -- Occupied --                  
-11.235 -11.234  -1.032  -0.789  -0.641  -0.582  -0.504  -0.374
  1 A     2 A     3 A     4 A     5 A     6 A     7 A     8 A                  
 -- Virtual --                   
  0.168   0.204   0.233   0.239   0.303   0.462   0.578   0.615
  9 A    10 A    11 A    12 A    13 A    14 A    15 A    16 A                  
  0.689   0.708   0.784   0.808   0.862   0.935   0.972   1.009
 17 A    18 A    19 A    20 A    21 A    22 A    23 A    24 A                  
  1.130   1.235   1.254   1.266   1.293   1.600   1.726   1.750
 25 A    26 A    27 A    28 A    29 A    30 A    31 A    32 A                  
  1.819   1.859   1.866   1.920   1.975   1.978   2.221   2.257
 33 A    34 A    35 A    36 A    37 A    38 A    39 A    40 A                  
  2.374   2.451   2.504   2.632   2.718   2.819   3.137   3.396
 41 A    42 A    43 A    44 A    45 A    46 A    47 A    48 A                  
  Import AO data ...  CPU 0.00 s  wall 0.01 s
  Using point group: C1
  Irreducible representations in point group: A
  Molecular orbitals: 
  Occupied MOs:
  Block   0:   1 (  A) A   2 (  A) A   3 (  A) A   4 (  A) A   5 (  A) A
                  -11.24      -11.23      -1.032     -0.7894     -0.6407
               6 (  A) A   7 (  A) A   8 (  A) A
                 -0.5818     -0.5042      -0.374
  Block   1:   1 (  A) B   2 (  A) B   3 (  A) B   4 (  A) B   5 (  A) B
                  -11.24      -11.23      -1.032     -0.7894     -0.6407
               6 (  A) B   7 (  A) B   8 (  A) B
                 -0.5818     -0.5042      -0.374
  Virtual MOs:
  Block   0:   9 (  A) A  10 (  A) A  11 (  A) A  12 (  A) A  13 (  A) A
                  0.1684      0.2036      0.2328      0.2392      0.3032
              14 (  A) A  15 (  A) A  16 (  A) A  17 (  A) A  18 (  A) A
                   0.462      0.5776      0.6148      0.6891      0.7084
              19 (  A) A  20 (  A) A  21 (  A) A  22 (  A) A
                  0.7838      0.8079      0.8619      0.9353
  Block   1:  23 (  A) A  24 (  A) A  25 (  A) A  26 (  A) A  27 (  A) A
                  0.9723       1.009        1.13       1.235       1.254
              28 (  A) A  29 (  A) A  30 (  A) A  31 (  A) A  32 (  A) A
                   1.266       1.293         1.6       1.726        1.75
              33 (  A) A  34 (  A) A  35 (  A) A  36 (  A) A
                   1.819       1.859       1.866        1.92
  Block   2:  37 (  A) A  38 (  A) A  39 (  A) A  40 (  A) A  41 (  A) A
                   1.975       1.978       2.221       2.257       2.374
              42 (  A) A  43 (  A) A  44 (  A) A  45 (  A) A  46 (  A) A
                   2.451       2.504       2.632       2.718       2.819
              47 (  A) A  48 (  A) A
                   3.137       3.396
  Block   3:   9 (  A) B  10 (  A) B  11 (  A) B  12 (  A) B  13 (  A) B
                  0.1684      0.2036      0.2328      0.2392      0.3032
              14 (  A) B  15 (  A) B  16 (  A) B  17 (  A) B  18 (  A) B
                   0.462      0.5776      0.6148      0.6891      0.7084
              19 (  A) B  20 (  A) B  21 (  A) B  22 (  A) B
                  0.7838      0.8079      0.8619      0.9353
  Block   4:  23 (  A) B  24 (  A) B  25 (  A) B  26 (  A) B  27 (  A) B
                  0.9723       1.009        1.13       1.235       1.254
              28 (  A) B  29 (  A) B  30 (  A) B  31 (  A) B  32 (  A) B
                   1.266       1.293         1.6       1.726        1.75
              33 (  A) B  34 (  A) B  35 (  A) B  36 (  A) B
                   1.819       1.859       1.866        1.92
  Block   5:  37 (  A) B  38 (  A) B  39 (  A) B  40 (  A) B  41 (  A) B
                   1.975       1.978       2.221       2.257       2.374
              42 (  A) B  43 (  A) B  44 (  A) B  45 (  A) B  46 (  A) B
                   2.451       2.504       2.632       2.718       2.819
              47 (  A) B  48 (  A) B
                   3.137       3.396
  Import MO data ...  CPU 0.25 s  wall 0.09 s
  Import HF data ...  CPU 0.44 s  wall 0.18 s
  Import 2e integrals ...  CPU 0.99 s  wall 0.23 s

--------------------------------------------------------------------------------
                                   HF Summary                                   
--------------------------------------------------------------------------------
  Energy:                                                  -78.0399308498 a.u.
  Dip. moment [a.u.]:                  [  -0.001542,    0.000508,    0.000347]
  Total dipole [Debye]:                                               0.004221
  <r^2> [a.u.]:                        [ 175.313994,   34.920851,   11.630472]
  Total <r^2> [a.u.]:                                               221.865316
--------------------------------------------------------------------------------
  HF properties ...  CPU 0.02 s  wall 0.01 s
  MP(1) calculation ...  CPU 0.01 s  wall 0.01 s
  N^6 prerequesite intermediates ...  CPU 0.50 s  wall 0.09 s
  Difference density matrix of state mp2_gs printed to ASCII file 'State_mp2_gs_Difference.txt'
Exporting MP density matrix to file 'Densmat_MP.txt'.
Export successful
  Total density matrix of state mp2_gs printed to ASCII file 'State_mp2_gs_Total.txt'
Exporting MP density matrix to file 'Densmat_MP.txt'.
Export successful

--------------------------------------------------------------------------------
                                 MP(2) Summary                                  
--------------------------------------------------------------------------------
  MP energy contribution:                                   -0.2797715338 a.u.
  Total energy:                                            -78.3197023836 a.u.
  Dip. moment [a.u.]:                  [  -0.001453,    0.000471,    0.000344]
  Total dipole [Debye]:                                               0.003980
  <r^2> [a.u.]:                        [ 175.360439,   34.961264,   11.461973]
  Total <r^2> [a.u.]:                                               221.783676

  Density matrix analysis:
  ------------------------
  NOs
    Occupation of frontier NOs:
       0.0453   1.9382
    Number of electrons: 16.000000
    Number of unpaired electrons: n_u =  0.40374, n_u,nl =  0.04514
    NO participation ratio (PR_NO): 13.861700
  
  
  Mulliken Population Analysis
  Atom      Charge (e)              h+              e-           Del q
  --------------------------------------------------------------------
   1 H        0.052233        0.013960       -0.011226        0.002735
   2 C       -0.103107        0.093530       -0.098999       -0.005468
   3 H        0.050677        0.014068       -0.011205        0.002863
   4 C       -0.100659        0.092935       -0.098892       -0.005957
   5 H        0.050205        0.014124       -0.011188        0.002936
   6 H        0.050650        0.014085       -0.011193        0.002892
  --------------------------------------------------------------------
  Sum:        0.000000        0.242701       -0.242701       -0.000000
  
  Multipole moment analysis of the density matrix
    Molecular charge:                      -0.000000
    Number of electrons:                   16.000000
      Center of electronic charge [Ang]: [ -1.560216,  -0.065618,   0.001967]
    Total nuclear charge:                  16.000000
      Center of nuclear charge [Ang]:    [ -1.560264,  -0.065602,   0.001978]
    Dipole moment [D]:                     0.003980
      Cartesian components [D]:          [ -0.003693,   0.001197,   0.000875]
    RMS size of the density [Ang]:         1.201261
      Cartesian components [Ang]:        [  0.796773,   0.779473,   0.447885]
  
  Exciton analysis of the difference density matrix
    <r_h> [Ang]:                  [ -1.559361,  -0.066078,   0.001918]
    <r_e> [Ang]:                  [ -1.559556,  -0.065998,   0.001924]
    |<r_e - r_h>| [Ang]:            0.000211
    Hole size [Ang]:                1.394327
      Cartesian components [Ang]: [  0.847666,   0.834126,   0.727904]
    Electron size [Ang]:            1.359910
      Cartesian components [Ang]: [  0.878361,   0.861630,   0.579164]
--------------------------------------------------------------------------------
  MP(2) calculation ...  CPU 0.26 s  wall 0.19 s
  Start ADC(2)-s ...  CPU 0.01 s  wall 0.01 s
  ADC(2) intermediates ...  CPU 0.02 s  wall 0.01 s
  Starting Davidson for singlet states of irrep A ... 
--------------------------------------------------------------------------------
   It NVec Conv  Avg. Norm  Max. Norm  Conv. states           Remark
--------------------------------------------------------------------------------
        10    0  1.330e-01  4.687e-01  0.4118 n n n n n n n n Guess.
    1   20    0  2.305e-02  1.110e-01  0.3263 n n n n n n n n 
    2   30    0  5.831e-03  2.506e-02  0.3215 n n n n n n n n 
    3   40    0  1.923e-03  1.247e-02  0.3211 n n n n n n n n 
    4   50    0  6.125e-04  4.509e-03  0.3211 n n n n n n n n 
    5   20    0  2.829e-04  2.128e-03  0.3211 n n n n n n n n Subspace collapsed.
    6   30    0  1.702e-04  1.498e-03  0.3211 n n n n n n n n 
    7   40    0  9.626e-05  7.083e-04  0.3211 n n n n n n n n 
    8   50    0  9.627e-05  9.055e-04  0.3211 n n n n n n n n 
    9   20    2  5.872e-05  5.521e-04  0.3211 n y n y n n n n Subspace collapsed.
   10   30    4  7.777e-05  7.547e-04  0.3211 n y y y y n n n 
   11   40    5  7.653e-05  7.609e-04  0.3211 n y y y y y n n 
   12   50    6  7.511e-05  7.502e-04  0.3211 y y y y y y n n 
   13   20    6  3.455e-05  3.451e-04  0.3211 y y y y y y n n Subspace collapsed.
   14   30    6  2.515e-05  2.511e-04  0.3211 y y y y y y n n 
   15   40    6  1.320e-05  1.313e-04  0.3211 y y y y y y n n 
   16   50    6  1.882e-05  1.881e-04  0.3211 y y y y y y n n 
   17   20    7  8.754e-06  8.750e-05  0.3211 y y y y y y n y Subspace collapsed.
   18   30    7  1.509e-05  1.509e-04  0.3211 y y y y y y n y 
   19   40    7  1.537e-05  1.536e-04  0.3211 y y y y y y n y 
   20   50    8  1.552e-05  1.552e-04  0.3211 y y y y y y y y 
   21   20    9  6.919e-06  6.919e-05  0.3211 y y y y y y y y Subspace collapsed.
   22   30    9  5.718e-06  5.718e-05  0.3211 y y y y y y y y 
   23   31    9  5.690e-06  5.690e-05  0.3211 y y y y y y y y 
   24   32    9  5.572e-06  5.572e-05  0.3211 y y y y y y y y 
   25   33    9  5.579e-06  5.579e-05  0.3211 y y y y y y y y 
   26   34    9  5.562e-06  5.561e-05  0.3211 y y y y y y y y 
   27   34    9  5.562e-06  5.561e-05  0.3211 y y y y y y y y 
   28   44    9  3.309e-06  3.309e-05  0.3211 y y y y y y y y 
   29   50    9  4.030e-06  4.030e-05  0.3211 y y y y y y y y 
   30   16    9  2.120e-06  2.120e-05  0.3211 y y y y y y y y Subspace collapsed.
   31   16    9  2.120e-06  2.120e-05  0.3211 y y y y y y y y 
   32   26    9  2.940e-06  2.940e-05  0.3211 y y y y y y y y 
   33   31    9  3.125e-06  3.125e-05  0.3211 y y y y y y y y 
   34   31    9  3.125e-06  3.125e-05  0.3211 y y y y y y y y 
   35   38    9  2.496e-06  2.496e-05  0.3211 y y y y y y y y 
   36   38    9  2.496e-06  2.496e-05  0.3211 y y y y y y y y 
   37   38    9  2.496e-06  2.496e-05  0.3211 y y y y y y y y 
   38   48    9  2.323e-06  2.323e-05  0.3211 y y y y y y y y 
   39   50    9  1.079e-06  1.079e-05  0.3211 y y y y y y y y 
   40   14    9  5.637e-07  5.637e-06  0.3211 y y y y y y y y Subspace collapsed.
   41   18    9  4.039e-07  4.039e-06  0.3211 y y y y y y y y 
   42   22    9  2.715e-07  2.715e-06  0.3211 y y y y y y y y 
   43   26    9  2.014e-07  2.014e-06  0.3211 y y y y y y y y 
   44   30    9  1.105e-07  1.105e-06  0.3211 y y y y y y y y 
   45   34   10  8.219e-08  8.219e-07  0.3211 y y y y y y y y Converged.
--------------------------------------------------------------------------------
  Davidson Summary: 
 ------------------------------------------------------------
  State  0: excitation energy =   0.3211 a.u.   (converged)
  State  1: excitation energy =   0.3325 a.u.   (converged)
  State  2: excitation energy =   0.3369 a.u.   (converged)
  State  3: excitation energy =   0.3611 a.u.   (converged)
  State  4: excitation energy =   0.3751 a.u.   (converged)
  State  5: excitation energy =   0.3871 a.u.   (converged)
  State  6: excitation energy =   0.4243 a.u.   (converged)
  State  7: excitation energy =   0.4468 a.u.   (converged)
  State  8: excitation energy =   0.4561 a.u.   (converged)
  State  9: excitation energy =   0.4642 a.u.   (converged)
 ------------------------------------------------------------

  Singlet states of irrep A ...  CPU 153.52 s  wall 66.89 s
  TDMs ...  CPU 1.25 s  wall 0.57 s
  SDMs ...  CPU 3.76 s  wall 1.42 s
  Starting TPA DIIS iterations ... 
------------------------------------ 
   It     Res. Norm  Remark
------------------------------------
                       Guess.
    1     4.403e+00  
    2     5.838e+00  
    3     1.078e+00  
    4     2.580e-01  
    5     6.585e-02  
    6     2.695e-02  
    7     8.267e-03  
    8     1.462e-03  
    9     5.432e-04  
   10     9.101e-05  
   11     2.878e-05  
   12     4.461e-06  
   13     1.447e-06  
   14     4.502e-07  Converged.
   ... Converged in 14 steps (norm: 4.50242e-07)
------------------------------------
  Starting TPA DIIS iterations ... 
------------------------------------ 
   It     Res. Norm  Remark
------------------------------------
                       Guess.
    1     4.184e+00  
    2     5.540e+00  
    3     1.029e+00  
    4     2.552e-01  
    5     6.525e-02  
    6     2.667e-02  
    7     8.121e-03  
    8     1.452e-03  
    9     5.370e-04  
   10     9.005e-05  
   11     2.839e-05  
   12     4.358e-06  
   13     1.438e-06  
   14     4.396e-07  Converged.
   ... Converged in 14 steps (norm: 4.3961e-07)
------------------------------------
  Starting TPA DIIS iterations ... 
------------------------------------ 
   It     Res. Norm  Remark
------------------------------------
                       Guess.
    1     6.879e-01  
    2     4.828e-01  
    3     1.703e-01  
    4     5.980e-02  
    5     1.839e-02  
    6     6.658e-03  
    7     1.042e-03  
    8     4.486e-04  
    9     1.245e-04  
   10     2.883e-05  
   11     5.460e-06  
   12     1.601e-06  
   13     9.255e-07  Converged.
   ... Converged in 13 steps (norm: 9.25473e-07)
------------------------------------
  Starting TPA DIIS iterations ... 
------------------------------------ 
   It     Res. Norm  Remark
------------------------------------
                       Guess.
    1     4.683e+00  
    2     6.341e+00  
    3     1.158e+00  
    4     2.860e-01  
    5     7.397e-02  
    6     3.054e-02  
    7     9.349e-03  
    8     1.651e-03  
    9     6.180e-04  
   10     1.041e-04  
   11     3.324e-05  
   12     5.197e-06  
   13     1.698e-06  
   14     5.304e-07  Converged.
   ... Converged in 14 steps (norm: 5.30398e-07)
------------------------------------
  Starting TPA DIIS iterations ... 
------------------------------------ 
   It     Res. Norm  Remark
------------------------------------
                       Guess.
    1     4.450e+00  
    2     6.016e+00  
    3     1.104e+00  
    4     2.826e-01  
    5     7.332e-02  
    6     3.023e-02  
    7     9.186e-03  
    8     1.641e-03  
    9     6.108e-04  
   10     1.030e-04  
   11     3.276e-05  
   12     5.074e-06  
   13     1.687e-06  
   14     5.183e-07  Converged.
   ... Converged in 14 steps (norm: 5.18299e-07)
------------------------------------
  Starting TPA DIIS iterations ... 
------------------------------------ 
   It     Res. Norm  Remark
------------------------------------
                       Guess.
    1     6.997e-01  
    2     4.997e-01  
    3     1.799e-01  
    4     6.744e-02  
    5     1.978e-02  
    6     7.259e-03  
    7     1.173e-03  
    8     5.263e-04  
    9     1.494e-04  
   10     3.278e-05  
   11     6.181e-06  
   12     1.881e-06  
   13     1.152e-06  
   14     4.210e-07  Converged.
   ... Converged in 14 steps (norm: 4.21023e-07)
------------------------------------
  Starting TPA DIIS iterations ... 
------------------------------------ 
   It     Res. Norm  Remark
------------------------------------
                       Guess.
    1     4.800e+00  
    2     6.553e+00  
    3     1.190e+00  
    4     2.979e-01  
    5     7.745e-02  
    6     3.208e-02  
    7     9.812e-03  
    8     1.731e-03  
    9     6.502e-04  
   10     1.097e-04  
   11     3.518e-05  
   12     5.517e-06  
   13     1.809e-06  
   14     5.657e-07  Converged.
   ... Converged in 14 steps (norm: 5.65719e-07)
------------------------------------
  Starting TPA DIIS iterations ... 
------------------------------------ 
   It     Res. Norm  Remark
------------------------------------
                       Guess.
    1     4.560e+00  
    2     6.217e+00  
    3     1.135e+00  
    4     2.944e-01  
    5     7.677e-02  
    6     3.177e-02  
    7     9.642e-03  
    8     1.721e-03  
    9     6.425e-04  
   10     1.086e-04  
   11     3.466e-05  
   12     5.386e-06  
   13     1.796e-06  
   14     5.531e-07  Converged.
   ... Converged in 14 steps (norm: 5.53058e-07)
------------------------------------
  Starting TPA DIIS iterations ... 
------------------------------------ 
   It     Res. Norm  Remark
------------------------------------
                       Guess.
    1     7.043e-01  
    2     5.066e-01  
    3     1.838e-01  
    4     7.077e-02  
    5     2.035e-02  
    6     7.516e-03  
    7     1.230e-03  
    8     5.606e-04  
    9     1.604e-04  
   10     3.417e-05  
   11     6.487e-06  
   12     2.004e-06  
   13     1.256e-06  
   14     4.580e-07  Converged.
   ... Converged in 14 steps (norm: 4.58047e-07)
------------------------------------
  Starting TPA DIIS iterations ... 
------------------------------------ 
   It     Res. Norm  Remark
------------------------------------
                       Guess.
    1     5.532e+00  
    2     7.918e+00  
    3     1.396e+00  
    4     3.777e-01  
    5     1.006e-01  
    6     4.244e-02  
    7     1.290e-02  
    8     2.269e-03  
    9     8.663e-04  
   10     1.476e-04  
   11     4.848e-05  
   12     7.723e-06  
   13     2.586e-06  
   14     8.163e-07  Converged.
   ... Converged in 14 steps (norm: 8.16273e-07)
------------------------------------
  Starting TPA DIIS iterations ... 
------------------------------------ 
   It     Res. Norm  Remark
------------------------------------
                       Guess.
    1     5.253e+00  
    2     7.512e+00  
    3     1.331e+00  
    4     3.724e-01  
    5     9.977e-02  
    6     4.208e-02  
    7     1.268e-02  
    8     2.256e-03  
    9     8.555e-04  
   10     1.461e-04  
   11     4.767e-05  
   12     7.530e-06  
   13     2.560e-06  
   14     8.011e-07  Converged.
   ... Converged in 14 steps (norm: 8.01115e-07)
------------------------------------
  Starting TPA DIIS iterations ... 
------------------------------------ 
   It     Res. Norm  Remark
------------------------------------
                       Guess.
    1     7.310e-01  
    2     5.475e-01  
    3     2.080e-01  
    4     9.359e-02  
    5     2.388e-02  
    6     9.234e-03  
    7     1.624e-03  
    8     7.954e-04  
    9     2.346e-04  
   10     3.952e-05  
   11     8.521e-06  
   12     2.878e-06  
   13     2.050e-06  
   14     7.422e-07  Converged.
   ... Converged in 14 steps (norm: 7.42162e-07)
------------------------------------
  Starting TPA DIIS iterations ... 
------------------------------------ 
   It     Res. Norm  Remark
------------------------------------
                       Guess.
    1     6.047e+00  
    2     8.912e+00  
    3     1.540e+00  
    4     4.380e-01  
    5     1.181e-01  
    6     5.037e-02  
    7     1.524e-02  
    8     2.673e-03  
    9     1.032e-03  
   10     1.766e-04  
   11     5.887e-05  
   12     9.450e-06  
   13     3.211e-06  
   14     1.024e-06  
   15     3.543e-07  Converged.
   ... Converged in 15 steps (norm: 3.54346e-07)
------------------------------------
  Starting TPA DIIS iterations ... 
------------------------------------ 
   It     Res. Norm  Remark
------------------------------------
                       Guess.
    1     5.741e+00  
    2     8.454e+00  
    3     1.467e+00  
    4     4.313e-01  
    5     1.171e-01  
    6     4.999e-02  
    7     1.498e-02  
    8     2.659e-03  
    9     1.018e-03  
   10     1.748e-04  
   11     5.782e-05  
   12     9.212e-06  
   13     3.174e-06  
   14     1.008e-06  
   15     3.258e-07  Converged.
   ... Converged in 15 steps (norm: 3.25764e-07)
------------------------------------
  Starting TPA DIIS iterations ... 
------------------------------------ 
   It     Res. Norm  Remark
------------------------------------
                       Guess.
    1     7.475e-01  
    2     5.744e-01  
    3     2.244e-01  
    4     1.115e-01  
    5     2.638e-02  
    6     1.054e-02  
    7     1.939e-03  
    8     9.687e-04  
    9     2.884e-04  
   10     4.087e-05  
   11     1.009e-05  
   12     3.586e-06  
   13     2.750e-06  
   14     9.963e-07  Converged.
   ... Converged in 14 steps (norm: 9.96337e-07)
------------------------------------
  Starting TPA DIIS iterations ... 
------------------------------------ 
   It     Res. Norm  Remark
------------------------------------
                       Guess.
    1     6.548e+00  
    2     9.903e+00  
    3     1.678e+00  
    4     4.996e-01  
    5     1.360e-01  
    6     5.855e-02  
    7     1.762e-02  
    8     3.086e-03  
    9     1.202e-03  
   10     2.065e-04  
   11     6.968e-05  
   12     1.125e-05  
   13     3.874e-06  
   14     1.253e-06  
   15     4.413e-07  Converged.
   ... Converged in 15 steps (norm: 4.41302e-07)
------------------------------------
  Starting TPA DIIS iterations ... 
------------------------------------ 
   It     Res. Norm  Remark
------------------------------------
                       Guess.
    1     6.216e+00  
    2     9.393e+00  
    3     1.599e+00  
    4     4.914e-01  
    5     1.349e-01  
    6     5.815e-02  
    7     1.734e-02  
    8     3.070e-03  
    9     1.186e-03  
   10     2.043e-04  
   11     6.835e-05  
   12     1.097e-05  
   13     3.822e-06  
   14     1.239e-06  
   15     4.015e-07  Converged.
   ... Converged in 15 steps (norm: 4.01548e-07)
------------------------------------
  Starting TPA DIIS iterations ... 
------------------------------------ 
   It     Res. Norm  Remark
------------------------------------
                       Guess.
    1     7.621e-01  
    2     5.992e-01  
    3     2.399e-01  
    4     1.302e-01  
    5     2.888e-02  
    6     1.189e-02  
    7     2.274e-03  
    8     1.133e-03  
    9     3.399e-04  
   10     4.163e-05  
   11     1.176e-05  
   12     4.340e-06  
   13     3.538e-06  
   14     1.287e-06  
   15     4.708e-07  Converged.
   ... Converged in 15 steps (norm: 4.70833e-07)
------------------------------------
  Starting TPA DIIS iterations ... 
------------------------------------ 
   It     Res. Norm  Remark
------------------------------------
                       Guess.
    1     8.628e+00  
    2     1.425e+01  
    3     2.245e+00  
    4     7.829e-01  
    5     2.182e-01  
    6     9.696e-02  
    7     2.862e-02  
    8     4.977e-03  
    9     1.999e-03  
   10     3.459e-04  
   11     1.200e-04  
   12     1.980e-05  
   13     7.047e-06  
   14     2.539e-06  
   15     9.166e-07  Converged.
   ... Converged in 15 steps (norm: 9.16578e-07)
------------------------------------
  Starting TPA DIIS iterations ... 
------------------------------------ 
   It     Res. Norm  Remark
------------------------------------
                       Guess.
    1     8.187e+00  
    2     1.352e+01  
    3     2.138e+00  
    4     7.668e-01  
    5     2.167e-01  
    6     9.650e-02  
    7     2.816e-02  
    8     4.948e-03  
    9     1.968e-03  
   10     3.421e-04  
   11     1.174e-04  
   12     1.935e-05  
   13     6.903e-06  
   14     2.558e-06  
   15     8.108e-07  Converged.
   ... Converged in 15 steps (norm: 8.10771e-07)
------------------------------------
  Starting TPA DIIS iterations ... 
------------------------------------ 
   It     Res. Norm  Remark
------------------------------------
                       Guess.
    1     8.118e-01  
    2     6.916e-01  
    3     3.007e-01  
    4     2.175e-01  
    5     4.007e-02  
    6     1.803e-02  
    7     3.924e-03  
    8     1.653e-03  
    9     5.370e-04  
   10     5.250e-05  
   11     2.014e-05  
   12     8.029e-06  
   13     7.780e-06  
   14     2.951e-06  
   15     1.287e-06  
   16     7.116e-07  Converged.
   ... Converged in 16 steps (norm: 7.11588e-07)
------------------------------------
  Starting TPA DIIS iterations ... 
------------------------------------ 
   It     Res. Norm  Remark
------------------------------------
                       Guess.
    1     1.046e+01  
    2     1.836e+01  
    3     2.731e+00  
    4     1.060e+00  
    5     2.994e-01  
    6     1.358e-01  
    7     3.946e-02  
    8     6.832e-03  
    9     2.800e-03  
   10     4.849e-04  
   11     1.684e-04  
   12     2.856e-05  
   13     1.019e-05  
   14     4.176e-06  
   15     1.521e-06  
   16     8.964e-07  Converged.
   ... Converged in 16 steps (norm: 8.96448e-07)
------------------------------------
  Starting TPA DIIS iterations ... 
------------------------------------ 
   It     Res. Norm  Remark
------------------------------------
                       Guess.
    1     9.920e+00  
    2     1.741e+01  
    3     2.599e+00  
    4     1.035e+00  
    5     2.975e-01  
    6     1.353e-01  
    7     3.884e-02  
    8     6.789e-03  
    9     2.753e-03  
   10     4.793e-04  
   11     1.645e-04  
   12     2.805e-05  
   13     9.930e-06  
   14     4.269e-06  
   15     1.358e-06  
   16     1.038e-06  
   17     3.549e-07  Converged.
   ... Converged in 17 steps (norm: 3.54899e-07)
------------------------------------
  Starting TPA DIIS iterations ... 
------------------------------------ 
   It     Res. Norm  Remark
------------------------------------
                       Guess.
    1     8.456e-01  
    2     7.628e-01  
    3     3.500e-01  
    4     2.996e-01  
    5     5.080e-02  
    6     2.377e-02  
    7     5.619e-03  
    8     1.876e-03  
    9     6.915e-04  
   10     7.285e-05  
   11     2.931e-05  
   12     1.183e-05  
   13     1.255e-05  
   14     4.992e-06  
   15     2.528e-06  
   16     1.317e-06  
   17     6.945e-07  Converged.
   ... Converged in 17 steps (norm: 6.94537e-07)
------------------------------------
  Starting TPA DIIS iterations ... 
------------------------------------ 
   It     Res. Norm  Remark
------------------------------------
                       Guess.
    1     1.139e+01  
    2     2.056e+01  
    3     2.975e+00  
    4     1.210e+00  
    5     3.437e-01  
    6     1.572e-01  
    7     4.538e-02  
    8     7.843e-03  
    9     3.242e-03  
   10     5.610e-04  
   11     1.939e-04  
   12     3.353e-05  
   13     1.196e-05  
   14     5.209e-06  
   15     1.929e-06  
   16     1.197e-06  
   17     2.652e-07  Converged.
   ... Converged in 17 steps (norm: 2.65242e-07)
------------------------------------
  Starting TPA DIIS iterations ... 
------------------------------------ 
   It     Res. Norm  Remark
------------------------------------
                       Guess.
    1     1.081e+01  
    2     1.950e+01  
    3     2.831e+00  
    4     1.180e+00  
    5     3.416e-01  
    6     1.568e-01  
    7     4.467e-02  
    8     7.790e-03  
    9     3.185e-03  
   10     5.544e-04  
   11     1.895e-04  
   12     3.302e-05  
   13     1.161e-05  
   14     5.360e-06  
   15     1.750e-06  
   16     1.405e-06  
   17     4.803e-07  Converged.
   ... Converged in 17 steps (norm: 4.80271e-07)
------------------------------------
  Starting TPA DIIS iterations ... 
------------------------------------ 
   It     Res. Norm  Remark
------------------------------------
                       Guess.
    1     8.605e-01  
    2     7.966e-01  
    3     3.741e-01  
    4     3.407e-01  
    5     5.653e-02  
    6     2.667e-02  
    7     6.541e-03  
    8     1.936e-03  
    9     7.665e-04  
   10     8.491e-05  
   11     3.460e-05  
   12     1.399e-05  
   13     1.538e-05  
   14     6.237e-06  
   15     3.336e-06  
   16     1.706e-06  
   17     9.502e-07  Converged.
   ... Converged in 17 steps (norm: 9.50227e-07)
------------------------------------
  Starting TPA DIIS iterations ... 
------------------------------------ 
   It     Res. Norm  Remark
------------------------------------
                       Guess.
    1     1.232e+01  
    2     2.278e+01  
    3     3.213e+00  
    4     1.361e+00  
    5     3.891e-01  
    6     1.794e-01  
    7     5.144e-02  
    8     8.876e-03  
    9     3.697e-03  
   10     6.389e-04  
   11     2.197e-04  
   12     3.877e-05  
   13     1.386e-05  
   14     6.359e-06  
   15     2.415e-06  
   16     1.550e-06  
   17     3.393e-07  Converged.
   ... Converged in 17 steps (norm: 3.39307e-07)
------------------------------------
  Starting TPA DIIS iterations ... 
------------------------------------ 
   It     Res. Norm  Remark
------------------------------------
                       Guess.
    1     1.169e+01  
    2     2.161e+01  
    3     3.057e+00  
    4     1.326e+00  
    5     3.867e-01  
    6     1.789e-01  
    7     5.064e-02  
    8     8.812e-03  
    9     3.631e-03  
   10     6.313e-04  
   11     2.147e-04  
   12     3.830e-05  
   13     1.339e-05  
   14     6.582e-06  
   15     2.234e-06  
   16     1.839e-06  
   17     6.305e-07  Converged.
   ... Converged in 17 steps (norm: 6.30451e-07)
------------------------------------
  Starting TPA DIIS iterations ... 
------------------------------------ 
   It     Res. Norm  Remark
------------------------------------
                       Guess.
    1     8.739e-01  
    2     8.286e-01  
    3     3.971e-01  
    4     3.795e-01  
    5     6.230e-02  
    6     2.945e-02  
    7     7.473e-03  
    8     1.980e-03  
    9     8.386e-04  
   10     9.722e-05  
   11     4.020e-05  
   12     1.631e-05  
   13     1.851e-05  
   14     7.597e-06  
   15     4.242e-06  
   16     2.138e-06  
   17     1.237e-06  
   18     4.184e-07  Converged.
   ... Converged in 18 steps (norm: 4.18407e-07)
------------------------------------
  Two-photon absorbption ...  CPU 119.06 s  wall 41.25 s
  Transition density matrix of state singlet_A_1 printed to ASCII file 'State_singlet_A_1_Transition.txt'
  Transition density matrix of state singlet_A_2 printed to ASCII file 'State_singlet_A_2_Transition.txt'
  Transition density matrix of state singlet_A_3 printed to ASCII file 'State_singlet_A_3_Transition.txt'
  Transition density matrix of state singlet_A_4 printed to ASCII file 'State_singlet_A_4_Transition.txt'
  Transition density matrix of state singlet_A_5 printed to ASCII file 'State_singlet_A_5_Transition.txt'
  Transition density matrix of state singlet_A_6 printed to ASCII file 'State_singlet_A_6_Transition.txt'
  Transition density matrix of state singlet_A_7 printed to ASCII file 'State_singlet_A_7_Transition.txt'
  Transition density matrix of state singlet_A_8 printed to ASCII file 'State_singlet_A_8_Transition.txt'
  Transition density matrix of state singlet_A_9 printed to ASCII file 'State_singlet_A_9_Transition.txt'
  Transition density matrix of state singlet_A_10 printed to ASCII file 'State_singlet_A_10_Transition.txt'
  Transition properties ...  CPU 0.23 s  wall 0.36 s
  Difference density matrix of state singlet_A_1 printed to ASCII file 'State_singlet_A_1_Difference.txt'
  Total density matrix of state singlet_A_1 printed to ASCII file 'State_singlet_A_1_Total.txt'
  Difference density matrix of state singlet_A_2 printed to ASCII file 'State_singlet_A_2_Difference.txt'
  Total density matrix of state singlet_A_2 printed to ASCII file 'State_singlet_A_2_Total.txt'
  Difference density matrix of state singlet_A_3 printed to ASCII file 'State_singlet_A_3_Difference.txt'
  Total density matrix of state singlet_A_3 printed to ASCII file 'State_singlet_A_3_Total.txt'
  Difference density matrix of state singlet_A_4 printed to ASCII file 'State_singlet_A_4_Difference.txt'
  Total density matrix of state singlet_A_4 printed to ASCII file 'State_singlet_A_4_Total.txt'
  Difference density matrix of state singlet_A_5 printed to ASCII file 'State_singlet_A_5_Difference.txt'
  Total density matrix of state singlet_A_5 printed to ASCII file 'State_singlet_A_5_Total.txt'
  Difference density matrix of state singlet_A_6 printed to ASCII file 'State_singlet_A_6_Difference.txt'
  Total density matrix of state singlet_A_6 printed to ASCII file 'State_singlet_A_6_Total.txt'
  Difference density matrix of state singlet_A_7 printed to ASCII file 'State_singlet_A_7_Difference.txt'
  Total density matrix of state singlet_A_7 printed to ASCII file 'State_singlet_A_7_Total.txt'
  Difference density matrix of state singlet_A_8 printed to ASCII file 'State_singlet_A_8_Difference.txt'
  Total density matrix of state singlet_A_8 printed to ASCII file 'State_singlet_A_8_Total.txt'
  Difference density matrix of state singlet_A_9 printed to ASCII file 'State_singlet_A_9_Difference.txt'
  Total density matrix of state singlet_A_9 printed to ASCII file 'State_singlet_A_9_Total.txt'
  Difference density matrix of state singlet_A_10 printed to ASCII file 'State_singlet_A_10_Difference.txt'
  Total density matrix of state singlet_A_10 printed to ASCII file 'State_singlet_A_10_Total.txt'
  Properties ...  CPU 0.44 s  wall 0.78 s
  ISR TDMS ...  CPU 23.03 s  wall 8.48 s
  ISR transition properties ...  CPU 0.34 s  wall 0.17 s
  Sum-over-states TPA ...  CPU 0.00 s  wall 0.00 s

--------------------------------------------------------------------------------
                   State-averaged natural transition orbitals
--------------------------------------------------------------------------------
--------------------------------------------------------------------------------
  SA-NTO decomposition ...  CPU 0.01 s  wall 0.02 s

--------------------------------------------------------------------------------
                             Excited State Summary
--------------------------------------------------------------------------------
--------------------------------------------------------------------------------

  Excited state 1 (singlet, A)                                     [converged]
  ----------------------------------------------------------------------------
  Term symbol:  2 (1) A                                     R^2 =  2.35943e-14

  Total energy:                                            -77.9986102567 a.u.
  Excitation energy:                                               8.737361 eV

  Osc. strength:                                                      0.445745
  Trans. dip. moment [a.u.]:           [  -1.046185,    0.993849,    0.009202]
  <i|r^2|0> [a.u.]:                    [  -6.165496,    0.246889,    0.000508]
  Two-photon absorption cross-section (SoS) [a.u.]:                   0.001170
  Two-photon absorption matrix (SoS) [a.u.]:
                                       |   -0.001598    0.008017    0.001242 |
                                       |    0.008017    0.000008    0.000775 |
                                       |    0.001242    0.000775   -0.009676 |
  Two-photon absorption cross-section [a.u.]:                         0.000864
  Two-photon absorption matrix [a.u.]:
                                       |    0.000803    0.006504   -0.000515 |
                                       |    0.006504    0.004848   -0.001503 |
                                       |   -0.000515   -0.001503   -0.009696 |

  Dip. moment [a.u.]:                  [  -0.001321,    0.000313,    0.000438]
  Total dipole [Debye]:                                               0.003627
  <r^2> [a.u.]:                        [ 176.114310,   35.651310,   11.872010]
  Total <r^2> [a.u.]:                                               223.637630

  V1^2 = 0.9715, V2^2 = 0.0285

  Important amplitudes:
      occ i     occ j     vir a      vir b          v   
    -----------------------------------------------------
     8 (A) A              9 (A) A                 0.6811
     6 (A) A             14 (A) A                -0.0623
     4 (A) A             10 (A) A                 0.0608
     7 (A) A             16 (A) A                -0.0570
     5 (A) A             13 (A) A                 0.0514
     6 (A) A             23 (A) A                -0.0486
     8 (A) A             20 (A) A                -0.0350
     6 (A) A             19 (A) A                -0.0308
     3 (A) A             12 (A) A                -0.0281
     5 (A) A             22 (A) A                 0.0215
     7 (A) A             11 (A) A                -0.0207
     4 (A) A             24 (A) A                 0.0188
     3 (A) A             26 (A) A                -0.0185
     8 (A) A   8 (A) B   17 (A) A   20 (A) B      0.0184
     8 (A) A   8 (A) B    9 (A) A   28 (A) B     -0.0168
     6 (A) A             26 (A) A                 0.0163
     7 (A) A             21 (A) A                -0.0149
     3 (A) A             14 (A) A                 0.0139
     6 (A) A             12 (A) A                -0.0132
     3 (A) A   4 (A) B    9 (A) A    9 (A) B     -0.0129
     3 (A) A             19 (A) A                 0.0119
     8 (A) A   8 (A) B   18 (A) A   19 (A) B     -0.0112
     7 (A) A             32 (A) A                -0.0096
     7 (A) A             36 (A) A                 0.0086
     3 (A) A             23 (A) A                 0.0081
     8 (A) A   8 (A) B   25 (A) A   29 (A) B     -0.0076
     6 (A) A             35 (A) A                -0.0072
     6 (A) A             40 (A) A                 0.0068
     3 (A) A   6 (A) B    9 (A) A   28 (A) B      0.0065
     6 (A) A   8 (A) A   19 (A) A   28 (A) A     -0.0061
     5 (A) A   7 (A) B    9 (A) A    9 (A) B      0.0060
     5 (A) A   8 (A) B   11 (A) A   20 (A) B      0.0059
     7 (A) A   8 (A) B   13 (A) A   20 (A) B     -0.0059
     5 (A) A   8 (A) B   16 (A) A    9 (A) B     -0.0059
     5 (A) A   8 (A) B   11 (A) A    9 (A) B      0.0059
     3 (A) A   5 (A) B    9 (A) A   25 (A) B     -0.0058
     7 (A) A   8 (A) B   22 (A) A   20 (A) B     -0.0057
     3 (A) A             40 (A) A                -0.0057
     6 (A) A   8 (A) A    9 (A) A   18 (A) A      0.0057
     8 (A) A   8 (A) B   19 (A) A   30 (A) B     -0.0056
    -----------------------------------------------------

  Density matrix analysis:
  ------------------------
  NOs
    Occupation of frontier NOs:
       0.9495   1.0217
    Number of electrons: 16.000000
    Number of unpaired electrons: n_u =  2.31368, n_u,nl =  2.03269
    NO participation ratio (PR_NO):  2.864856
  
  
  Mulliken Population Analysis
  Atom      Charge (e)              h+              e-           Del q
  --------------------------------------------------------------------
   1 H        0.060054        0.020336       -0.012515        0.007821
   2 C       -0.118430        0.490890       -0.506213       -0.015323
   3 H        0.058235        0.020152       -0.012595        0.007558
   4 C       -0.116194        0.490716       -0.506252       -0.015535
   5 H        0.057857        0.020202       -0.012550        0.007652
   6 H        0.058478        0.020350       -0.012522        0.007828
  --------------------------------------------------------------------
  Sum:        0.000000        1.062647       -1.062647       -0.000000
  
  Multipole moment analysis of the density matrix
    Molecular charge:                      -0.000000
    Number of electrons:                   16.000000
      Center of electronic charge [Ang]: [ -1.560220,  -0.065613,   0.001964]
    Total nuclear charge:                  16.000000
      Center of nuclear charge [Ang]:    [ -1.560264,  -0.065602,   0.001978]
    Dipole moment [D]:                     0.003627
      Cartesian components [D]:          [ -0.003358,   0.000795,   0.001114]
    RMS size of the density [Ang]:         1.214686
      Cartesian components [Ang]:        [  0.805002,   0.787183,   0.455826]
  
  Exciton analysis of the difference density matrix
    <r_h> [Ang]:                  [ -1.560107,  -0.065798,   0.001769]
    <r_e> [Ang]:                  [ -1.560172,  -0.065719,   0.001722]
    |<r_e - r_h>| [Ang]:            0.000113
    Hole size [Ang]:                1.285576
      Cartesian components [Ang]: [  0.728770,   0.712622,   0.783434]
    Electron size [Ang]:            1.463238
      Cartesian components [Ang]: [  0.854144,   0.830470,   0.849601]

  Transition density matrix analysis:
  -----------------------------------
  
  CT numbers (Mulliken)
    omega =     0.9535
    <Phe> =    -0.1606
  
  Exciton analysis of the transition density matrix
    Trans. dipole moment [D]:             1.833903
      Cartesian components [D]:         [ -1.329569,   1.263056,   0.011695]
    <r_h> [Ang]:                        [ -1.560095,  -0.065883,   0.001803]
    <r_e> [Ang]:                        [ -1.560162,  -0.065707,   0.001693]
    |<r_e - r_h>| [Ang]:                  0.000218
    Hole size [Ang]:                      1.214152
      Cartesian components [Ang]:       [  0.649658,   0.636413,   0.804418]
    Electron size [Ang]:                  1.486094
      Cartesian components [Ang]:       [  0.864583,   0.839372,   0.869728]
    RMS electron-hole separation [Ang]:   1.936694
      Cartesian components [Ang]:       [  1.106766,   1.075122,   1.170455]
    Covariance(r_h, r_e) [Ang^2]:        -0.034072
    Correlation coefficient:             -0.018883
    Center-of-mass size [Ang]:            0.950592
      Cartesian components [Ang]:       [  0.527775,   0.515569,   0.599388]

  Decomposition into state-averaged NTOs
    H- 0 -> L+ 0:  0.6699 ( 89.7%)
    H- 2 -> L+ 5:  0.0836 (  1.4%)
                   omega =  95.3%
  ----------------------------------------------------------------------------


  Excited state 2 (singlet, A)                                     [converged]
  ----------------------------------------------------------------------------
  Term symbol:  3 (1) A                                     R^2 =  2.58380e-14

  Total energy:                                            -77.9872256088 a.u.
  Excitation energy:                                               9.047153 eV

  Osc. strength:                                                      0.000011
  Trans. dip. moment [a.u.]:           [  -0.004254,    0.004042,    0.003623]
  <i|r^2|0> [a.u.]:                    [   0.039704,    0.086566,   -0.150351]
  Two-photon absorption cross-section (SoS) [a.u.]:                   4.905948
  Two-photon absorption matrix (SoS) [a.u.]:
                                       |    0.053798    0.058914   -0.552056 |
                                       |    0.058914    0.063892   -0.542791 |
                                       |   -0.552056   -0.542791   -0.117450 |
  Two-photon absorption cross-section [a.u.]:                         0.082414
  Two-photon absorption matrix [a.u.]:
                                       |   -0.003034   -0.007370    0.068659 |
                                       |   -0.007370   -0.012241    0.073061 |
                                       |    0.068659    0.073061    0.015225 |

  Dip. moment [a.u.]:                  [  -0.005613,   -0.001988,    0.000492]
  Total dipole [Debye]:                                               0.015186
  <r^2> [a.u.]:                        [ 174.497254,   33.979741,   13.176080]
  Total <r^2> [a.u.]:                                               221.653075

  V1^2 = 0.9542, V2^2 = 0.0458

  Important amplitudes:
      occ i     occ j     vir a      vir b          v   
    -----------------------------------------------------
     7 (A) A              9 (A) A                 0.6691
     8 (A) A             11 (A) A                -0.1486
     7 (A) A             20 (A) A                -0.0758
     5 (A) A   8 (A) B    9 (A) A    9 (A) B      0.0316
     8 (A) A             16 (A) A                 0.0274
     8 (A) A             21 (A) A                -0.0176
     5 (A) A             28 (A) A                 0.0151
     4 (A) A   7 (A) B    9 (A) A   19 (A) B     -0.0135
     5 (A) A   7 (A) B    9 (A) A   16 (A) B      0.0134
     7 (A) A   8 (A) B   20 (A) A   17 (A) B      0.0105
     7 (A) A   8 (A) A    9 (A) A   28 (A) A      0.0098
     5 (A) A   8 (A) B    9 (A) A   20 (A) B     -0.0095
     4 (A) A   6 (A) B    9 (A) A   16 (A) B     -0.0091
     5 (A) A   6 (A) A    9 (A) A   23 (A) A      0.0091
     5 (A) A   6 (A) A    9 (A) A   14 (A) A      0.0089
     5 (A) A   6 (A) B    9 (A) A   19 (A) B      0.0087
     8 (A) A   7 (A) B    9 (A) A   28 (A) B     -0.0085
     4 (A) A   5 (A) A    9 (A) A   10 (A) A      0.0085
     6 (A) A   7 (A) B    9 (A) A   18 (A) B      0.0083
     5 (A) A   6 (A) B    9 (A) A   23 (A) B      0.0080
     8 (A) A             12 (A) A                -0.0080
     3 (A) A   7 (A) B    9 (A) A   18 (A) B      0.0080
     5 (A) A   7 (A) A    9 (A) A   16 (A) A      0.0079
     4 (A) A   8 (A) B    9 (A) A   25 (A) B      0.0077
     7 (A) A   8 (A) B   17 (A) A   20 (A) B      0.0074
     4 (A) A   7 (A) B   19 (A) A    9 (A) B     -0.0074
     5 (A) A   5 (A) B    9 (A) A   13 (A) B     -0.0072
     7 (A) A   8 (A) B   19 (A) A   18 (A) B     -0.0072
     5 (A) A   8 (A) A    9 (A) A   20 (A) A     -0.0069
     4 (A) A   5 (A) B    9 (A) A   18 (A) B     -0.0068
     7 (A) A   7 (A) B   20 (A) A   22 (A) B     -0.0065
     7 (A) A   8 (A) B   17 (A) A    9 (A) B     -0.0065
     5 (A) A   6 (A) B    9 (A) A   14 (A) B      0.0063
     8 (A) A             10 (A) A                -0.0062
     4 (A) A   7 (A) A    9 (A) A   19 (A) A     -0.0061
     4 (A) A   5 (A) B   10 (A) A    9 (A) B     -0.0061
     5 (A) A   7 (A) B   11 (A) A   20 (A) B      0.0060
     4 (A) A   7 (A) B    9 (A) A   14 (A) B      0.0060
     5 (A) A             38 (A) A                 0.0057
     4 (A) A   8 (A) A    9 (A) A   25 (A) A      0.0057
    -----------------------------------------------------

  Density matrix analysis:
  ------------------------
  NOs
    Occupation of frontier NOs:
       0.9576   1.0540
    Number of electrons: 16.000000
    Number of unpaired electrons: n_u =  2.35559, n_u,nl =  2.06307
    NO participation ratio (PR_NO):  3.030020
  
  
  Mulliken Population Analysis
  Atom      Charge (e)              h+              e-           Del q
  --------------------------------------------------------------------
   1 H        0.149906        0.123470       -0.025797        0.097673
   2 C       -0.303823        0.271905       -0.472622       -0.200717
   3 H        0.153715        0.126444       -0.023406        0.103038
   4 C       -0.301801        0.272125       -0.473267       -0.201143
   5 H        0.152118        0.127264       -0.025350        0.101914
   6 H        0.149885        0.122757       -0.023523        0.099235
  --------------------------------------------------------------------
  Sum:        0.000000        1.043965       -1.043965        0.000000
  
  Multipole moment analysis of the density matrix
    Molecular charge:                      0.000000
    Number of electrons:                   16.000000
      Center of electronic charge [Ang]: [ -1.560078,  -0.065537,   0.001962]
    Total nuclear charge:                  16.000000
      Center of nuclear charge [Ang]:    [ -1.560264,  -0.065602,   0.001978]
    Dipole moment [D]:                     0.015186
      Cartesian components [D]:          [ -0.014266,  -0.005052,   0.001251]
    RMS size of the density [Ang]:         1.200492
      Cartesian components [Ang]:        [  0.787508,   0.768382,   0.480209]
  
  Exciton analysis of the difference density matrix
    <r_h> [Ang]:                  [ -1.559479,  -0.064044,   0.002153]
    <r_e> [Ang]:                  [ -1.557371,  -0.062798,   0.002078]
    |<r_e - r_h>| [Ang]:            0.002451
    Hole size [Ang]:                1.487079
      Cartesian components [Ang]: [  1.002155,   1.000204,   0.454623]
    Electron size [Ang]:            1.477532
      Cartesian components [Ang]: [  0.882808,   0.858654,   0.816374]

  Transition density matrix analysis:
  -----------------------------------
  
  CT numbers (Mulliken)
    omega =     0.9217
    <Phe> =    -0.0121
  
  Exciton analysis of the transition density matrix
    Trans. dipole moment [D]:             0.008764
      Cartesian components [D]:         [ -0.005406,   0.005136,   0.004604]
    <r_h> [Ang]:                        [ -1.559660,  -0.063939,   0.002202]
    <r_e> [Ang]:                        [ -1.557065,  -0.062686,   0.002041]
    |<r_e - r_h>| [Ang]:                  0.002886
    Hole size [Ang]:                      1.515871
      Cartesian components [Ang]:       [  1.025039,   1.024533,   0.444399]
    Electron size [Ang]:                  1.474478
      Cartesian components [Ang]:       [  0.873313,   0.847880,   0.832171]
    RMS electron-hole separation [Ang]:   2.094875
      Cartesian components [Ang]:       [  1.330719,   1.314952,   0.942649]
    Covariance(r_h, r_e) [Ang^2]:         0.041729
    Correlation coefficient:              0.018669
    Center-of-mass size [Ang]:            1.067170
      Cartesian components [Ang]:       [  0.681167,   0.672317,   0.472072]

  Decomposition into state-averaged NTOs
    H- 1 -> L+ 0:  0.6614 ( 87.5%)
    H- 0 -> L+ 2:  0.1487 (  4.4%)
                   omega =  92.2%
  ----------------------------------------------------------------------------


  Excited state 3 (singlet, A)                                     [converged]
  ----------------------------------------------------------------------------
  Term symbol:  4 (1) A                                     R^2 =  1.60372e-14

  Total energy:                                            -77.9828188225 a.u.
  Excitation energy:                                               9.167068 eV

  Osc. strength:                                                      0.025008
  Trans. dip. moment [a.u.]:           [   0.015102,    0.020373,   -0.332725]
  <i|r^2|0> [a.u.]:                    [   0.091374,    0.003511,    0.001279]
  Two-photon absorption cross-section (SoS) [a.u.]:                   0.002654
  Two-photon absorption matrix (SoS) [a.u.]:
                                       |    0.015467    0.001532   -0.006240 |
                                       |    0.001532   -0.013010   -0.008916 |
                                       |   -0.006240   -0.008916    0.001956 |
  Two-photon absorption cross-section [a.u.]:                         0.001383
  Two-photon absorption matrix [a.u.]:
                                       |    0.012764    0.000391   -0.006559 |
                                       |    0.000391   -0.008885   -0.000204 |
                                       |   -0.006559   -0.000204    0.001579 |

  Dip. moment [a.u.]:                  [  -0.024327,    0.012707,   -0.000912]
  Total dipole [Debye]:                                               0.069797
  <r^2> [a.u.]:                        [ 180.728614,   40.599840,   11.029592]
  Total <r^2> [a.u.]:                                               232.358046

  V1^2 = 0.9587, V2^2 = 0.0413

  Important amplitudes:
      occ i     occ j     vir a      vir b          v   
    -----------------------------------------------------
     8 (A) A             10 (A) A                 0.6890
     8 (A) A             24 (A) A                 0.0507
     8 (A) A             18 (A) A                -0.0314
     4 (A) A              9 (A) A                 0.0239
     8 (A) A   8 (A) B    9 (A) A   12 (A) B     -0.0219
     8 (A) A   8 (A) B   10 (A) A   17 (A) B      0.0173
     8 (A) A             15 (A) A                 0.0168
     5 (A) A   8 (A) B   11 (A) A   10 (A) B      0.0165
     7 (A) A   8 (A) B   13 (A) A   10 (A) B     -0.0141
     4 (A) A   8 (A) B   12 (A) A   10 (A) B     -0.0111
     6 (A) A   8 (A) A   10 (A) A   15 (A) A      0.0110
     7 (A) A   8 (A) B   22 (A) A   10 (A) B     -0.0108
     6 (A) A   8 (A) B   15 (A) A   10 (A) B     -0.0108
     4 (A) A   8 (A) A   10 (A) A   12 (A) A      0.0106
     7 (A) A   8 (A) A   10 (A) A   22 (A) A      0.0099
     7 (A) A   8 (A) A   10 (A) A   13 (A) A      0.0097
     5 (A) A   8 (A) B   21 (A) A   10 (A) B      0.0094
     5 (A) A   8 (A) A   10 (A) A   11 (A) A     -0.0094
     6 (A) A   8 (A) A   10 (A) A   18 (A) A      0.0088
     6 (A) A   8 (A) B   10 (A) A   10 (A) B      0.0087
     7 (A) A   8 (A) A   12 (A) A   16 (A) A      0.0082
     5 (A) A   8 (A) A   10 (A) A   21 (A) A     -0.0079
     3 (A) A   4 (A) B   10 (A) A    9 (A) B     -0.0079
     4 (A) A   8 (A) B   19 (A) A   10 (A) B      0.0075
     8 (A) A   8 (A) B    9 (A) A   23 (A) B     -0.0075
     8 (A) A   8 (A) B   10 (A) A   28 (A) B     -0.0073
     3 (A) A   8 (A) B   10 (A) A   10 (A) B      0.0072
     5 (A) A   8 (A) B   10 (A) A   11 (A) B      0.0071
     3 (A) A   8 (A) A   10 (A) A   24 (A) A     -0.0071
     7 (A) A   8 (A) B   16 (A) A   12 (A) B     -0.0070
     3 (A) A   8 (A) B   10 (A) A   18 (A) B     -0.0069
     8 (A) A   8 (A) B    9 (A) A   19 (A) B      0.0068
     6 (A) A   8 (A) B   18 (A) A   10 (A) B     -0.0067
     7 (A) A              9 (A) A                 0.0064
     3 (A) A   6 (A) B   10 (A) A   28 (A) B      0.0062
     7 (A) A   8 (A) B   12 (A) A   11 (A) B      0.0057
     6 (A) A             28 (A) A                -0.0057
     3 (A) A   5 (A) B   10 (A) A   25 (A) B     -0.0056
     5 (A) A   8 (A) A   10 (A) A   16 (A) A      0.0056
     3 (A) A   8 (A) A   10 (A) A   18 (A) A     -0.0055
    -----------------------------------------------------

  Density matrix analysis:
  ------------------------
  NOs
    Occupation of frontier NOs:
       0.9815   0.9849
    Number of electrons: 16.000000
    Number of unpaired electrons: n_u =  2.28567, n_u,nl =  2.02449
    NO participation ratio (PR_NO):  2.692987
  
  
  Mulliken Population Analysis
  Atom      Charge (e)              h+              e-           Del q
  --------------------------------------------------------------------
   1 H       -0.164642        0.053831       -0.270706       -0.216875
   2 C        0.325255        0.539922       -0.111561        0.428362
   3 H       -0.165537        0.053844       -0.270059       -0.216215
   4 C        0.325640        0.536373       -0.110074        0.426299
   5 H       -0.161702        0.053833       -0.265740       -0.211907
   6 H       -0.159014        0.054128       -0.263792       -0.209664
  --------------------------------------------------------------------
  Sum:        0.000000        1.291930       -1.291930       -0.000000
  
  Multipole moment analysis of the density matrix
    Molecular charge:                      0.000000
    Number of electrons:                   16.000000
      Center of electronic charge [Ang]: [ -1.559459,  -0.066023,   0.002008]
    Total nuclear charge:                  16.000000
      Center of nuclear charge [Ang]:    [ -1.560264,  -0.065602,   0.001978]
    Dipole moment [D]:                     0.069797
      Cartesian components [D]:          [ -0.061832,   0.032297,  -0.002319]
    RMS size of the density [Ang]:         1.276873
      Cartesian components [Ang]:        [  0.855079,   0.840363,   0.439356]
  
  Exciton analysis of the difference density matrix
    <r_h> [Ang]:                  [ -1.559030,  -0.066945,   0.001838]
    <r_e> [Ang]:                  [ -1.549661,  -0.071957,   0.002352]
    |<r_e - r_h>| [Ang]:            0.010638
    Hole size [Ang]:                1.410411
      Cartesian components [Ang]: [  0.834479,   0.819675,   0.788059]
    Electron size [Ang]:            2.075983
      Cartesian components [Ang]: [  1.374425,   1.375989,   0.726165]

  Transition density matrix analysis:
  -----------------------------------
  
  CT numbers (Mulliken)
    omega =     0.9258
    <Phe> =    -0.0109
  
  Exciton analysis of the transition density matrix
    Trans. dipole moment [D]:             0.424078
      Cartesian components [D]:         [  0.019193,   0.025891,  -0.422852]
    <r_h> [Ang]:                        [ -1.560206,  -0.066381,   0.001711]
    <r_e> [Ang]:                        [ -1.546125,  -0.074180,   0.002485]
    |<r_e - r_h>| [Ang]:                  0.016116
    Hole size [Ang]:                      1.212915
      Cartesian components [Ang]:       [  0.636424,   0.623566,   0.822978]
    Electron size [Ang]:                  2.296425
      Cartesian components [Ang]:       [  1.519325,   1.523384,   0.802820]
    RMS electron-hole separation [Ang]:   2.587192
      Cartesian components [Ang]:       [  1.639788,   1.639092,   1.148057]
    Covariance(r_h, r_e) [Ang^2]:         0.025712
    Correlation coefficient:              0.009231
    Center-of-mass size [Ang]:            1.303472
      Cartesian components [Ang]:       [  0.827354,   0.826514,   0.575671]

  Decomposition into state-averaged NTOs
    H- 0 -> L+ 1:  0.6795 ( 92.4%)
                   omega =  92.6%
  ----------------------------------------------------------------------------


  Excited state 4 (singlet, A)                                     [converged]
  ----------------------------------------------------------------------------
  Term symbol:  5 (1) A                                     R^2 =  3.05652e-14

  Total energy:                                            -77.9586431332 a.u.
  Excitation energy:                                               9.824922 eV

  Osc. strength:                                                      0.000004
  Trans. dip. moment [a.u.]:           [   0.001716,   -0.001334,   -0.003238]
  <i|r^2|0> [a.u.]:                    [   0.028276,    0.017110,   -0.035573]
  Two-photon absorption cross-section (SoS) [a.u.]:                 148.097516
  Two-photon absorption matrix (SoS) [a.u.]:
                                       |    0.294128    0.323292   -3.043416 |
                                       |    0.323292    0.350959   -2.971963 |
                                       |   -3.043416   -2.971963   -0.644803 |
  Two-photon absorption cross-section [a.u.]:                        90.812290
  Two-photon absorption matrix [a.u.]:
                                       |    0.233246    0.253394   -2.385294 |
                                       |    0.253394    0.271992   -2.325093 |
                                       |   -2.385294   -2.325093   -0.504875 |

  Dip. moment [a.u.]:                  [   0.004109,    0.021454,    0.000933]
  Total dipole [Debye]:                                               0.055572
  <r^2> [a.u.]:                        [ 181.528128,   40.318016,   10.767538]
  Total <r^2> [a.u.]:                                               232.613681

  V1^2 = 0.9635, V2^2 = 0.0365

  Important amplitudes:
      occ i     occ j     vir a      vir b          v   
    -----------------------------------------------------
     8 (A) A             11 (A) A                -0.6693
     7 (A) A              9 (A) A                -0.1507
     8 (A) A             21 (A) A                -0.0780
     8 (A) A             16 (A) A                 0.0648
     8 (A) A             12 (A) A                -0.0203
     8 (A) A   8 (A) B    9 (A) A   13 (A) B     -0.0167
     5 (A) A   8 (A) B   11 (A) A   11 (A) B     -0.0155
     8 (A) A   8 (A) B   11 (A) A   17 (A) B     -0.0140
     7 (A) A             20 (A) A                 0.0138
     7 (A) A   8 (A) B   13 (A) A   11 (A) B      0.0127
     5 (A) A   8 (A) A   11 (A) A   21 (A) A      0.0110
     4 (A) A   8 (A) B   12 (A) A   11 (A) B      0.0110
     6 (A) A              9 (A) A                -0.0108
     8 (A) A   8 (A) B    9 (A) A   22 (A) B     -0.0108
     7 (A) A   8 (A) A   11 (A) A   22 (A) A     -0.0096
     6 (A) A   8 (A) B   15 (A) A   11 (A) B      0.0090
     6 (A) A   8 (A) B   10 (A) A   11 (A) B     -0.0090
     7 (A) A   8 (A) B   22 (A) A   11 (A) B      0.0089
     3 (A) A   4 (A) B   11 (A) A    9 (A) B      0.0083
     3 (A) A   8 (A) B   11 (A) A   18 (A) B      0.0081
     6 (A) A   8 (A) A   11 (A) A   15 (A) A     -0.0080
     7 (A) A   8 (A) A   13 (A) A   16 (A) A      0.0078
     7 (A) A   8 (A) A   11 (A) A   13 (A) A     -0.0077
     5 (A) A   8 (A) B   21 (A) A   11 (A) B     -0.0071
     4 (A) A   8 (A) B   19 (A) A   11 (A) B     -0.0070
     5 (A) A   8 (A) B    9 (A) A    9 (A) B     -0.0068
     4 (A) A   8 (A) A   11 (A) A   12 (A) A     -0.0062
     6 (A) A   8 (A) A   11 (A) A   18 (A) A     -0.0062
     3 (A) A   6 (A) B   11 (A) A   28 (A) B     -0.0060
     6 (A) A   8 (A) B   18 (A) A   11 (A) B      0.0060
     7 (A) A   8 (A) B   16 (A) A   13 (A) B     -0.0057
     3 (A) A   8 (A) A   11 (A) A   18 (A) A      0.0056
     5 (A) A   8 (A) B   10 (A) A   10 (A) B     -0.0056
     3 (A) A   8 (A) B   11 (A) A   30 (A) B      0.0055
     3 (A) A   5 (A) B   11 (A) A   25 (A) B      0.0054
     6 (A) A   8 (A) B   11 (A) A   10 (A) B     -0.0054
     7 (A) A   8 (A) B   12 (A) A   10 (A) B     -0.0054
     8 (A) A   8 (A) B   20 (A) A   22 (A) B      0.0053
     3 (A) A   8 (A) A   11 (A) A   24 (A) A      0.0053
     5 (A) A   8 (A) A   11 (A) A   16 (A) A     -0.0049
    -----------------------------------------------------

  Density matrix analysis:
  ------------------------
  NOs
    Occupation of frontier NOs:
       0.9403   1.0282
    Number of electrons: 16.000000
    Number of unpaired electrons: n_u =  2.31944, n_u,nl =  2.04944
    NO participation ratio (PR_NO):  2.917422
  
  
  Mulliken Population Analysis
  Atom      Charge (e)              h+              e-           Del q
  --------------------------------------------------------------------
   1 H       -0.148425        0.045543       -0.246201       -0.200658
   2 C        0.271251        0.497355       -0.122998        0.374357
   3 H       -0.125046        0.047189       -0.222913       -0.175724
   4 C        0.272730        0.496144       -0.122755        0.373389
   5 H       -0.117604        0.047245       -0.215054       -0.167809
   6 H       -0.152905        0.045653       -0.249209       -0.203555
  --------------------------------------------------------------------
  Sum:        0.000000        1.179131       -1.179131       -0.000000
  
  Multipole moment analysis of the density matrix
    Molecular charge:                      0.000000
    Number of electrons:                   16.000000
      Center of electronic charge [Ang]: [ -1.560400,  -0.066312,   0.001947]
    Total nuclear charge:                  16.000000
      Center of nuclear charge [Ang]:    [ -1.560264,  -0.065602,   0.001978]
    Dipole moment [D]:                     0.055572
      Cartesian components [D]:          [  0.010443,   0.054530,   0.002372]
    RMS size of the density [Ang]:         1.277461
      Cartesian components [Ang]:        [  0.861521,   0.837401,   0.434105]
  
  Exciton analysis of the difference density matrix
    <r_h> [Ang]:                  [ -1.560152,  -0.066428,   0.001798]
    <r_e> [Ang]:                  [ -1.562648,  -0.075845,   0.001533]
    |<r_e - r_h>| [Ang]:            0.009746
    Hole size [Ang]:                1.394939
      Cartesian components [Ang]: [  0.818781,   0.806623,   0.790451]
    Electron size [Ang]:            2.123372
      Cartesian components [Ang]: [  1.458545,   1.386168,   0.678155]

  Transition density matrix analysis:
  -----------------------------------
  
  CT numbers (Mulliken)
    omega =     0.9297
    <Phe> =    -0.0136
  
  Exciton analysis of the transition density matrix
    Trans. dipole moment [D]:             0.004956
      Cartesian components [D]:         [  0.002181,  -0.001696,  -0.004115]
    <r_h> [Ang]:                        [ -1.560216,  -0.065718,   0.001766]
    <r_e> [Ang]:                        [ -1.563028,  -0.077798,   0.001455]
    |<r_e - r_h>| [Ang]:                  0.012407
    Hole size [Ang]:                      1.228071
      Cartesian components [Ang]:       [  0.657312,   0.651251,   0.807448]
    Electron size [Ang]:                  2.261021
      Cartesian components [Ang]:       [  1.554627,   1.475312,   0.720280]
    RMS electron-hole separation [Ang]:   2.562316
      Cartesian components [Ang]:       [  1.679194,   1.604999,   1.081550]
    Covariance(r_h, r_e) [Ang^2]:         0.027531
    Correlation coefficient:              0.009915
    Center-of-mass size [Ang]:            1.291843
      Cartesian components [Ang]:       [  0.848258,   0.810165,   0.541249]

  Decomposition into state-averaged NTOs
    H- 0 -> L+ 2:  0.6645 ( 88.3%)
    H- 1 -> L+ 0: -0.1487 (  4.4%)
                   omega =  93.0%
  ----------------------------------------------------------------------------


  Excited state 5 (singlet, A)                                     [converged]
  ----------------------------------------------------------------------------
  Term symbol:  6 (1) A                                     R^2 =  1.64878e-13

  Total energy:                                            -77.9445576852 a.u.
  Excitation energy:                                              10.208206 eV

  Osc. strength:                                                      0.000001
  Trans. dip. moment [a.u.]:           [  -0.000238,   -0.000367,    0.001507]
  <i|r^2|0> [a.u.]:                    [  -0.088051,    0.103752,   -0.017456]
  Two-photon absorption cross-section (SoS) [a.u.]:                 180.991085
  Two-photon absorption matrix (SoS) [a.u.]:
                                       |   -0.317040   -0.034189    3.313478 |
                                       |   -0.034189    0.399945   -3.392531 |
                                       |    3.313478   -3.392531   -0.090144 |
[...]
    16   -1.463024250563e-03
    17   -1.760104219846e-03
    18   -1.174079253357e-05
    19   -3.345165317854e-03
    20    1.101788276220e-02
    21    9.344699555929e-01
    22   -2.959287214241e-04
    23    1.397415071229e-02
    24    8.146578066330e-04
    25    6.988174695646e-02
    26   -5.179195663319e-02
    27   -1.394077718535e+00
    28    9.736223502671e-02
    29   -9.306951759632e-02
    30   -1.122874948160e-03
    31    3.822025357878e-01
    32   -3.629316275693e-01
    33   -4.277985444756e-03
    34    1.556194882803e-02
    35   -1.462135124479e-03
    36   -1.776309255578e-03
    37   -1.729609496684e-04
    38   -3.065759166943e-03
    39    1.021569336236e-02
    40    9.320160790791e-01
    41    2.510373352383e-04
    42   -1.390910640025e-02
    43   -8.299408168533e-04
    44    9.609390886587e-03
    45    9.319809019796e-01
    46    1.404946089193e-02
    47    3.085601103397e-04
    48    6.761605499378e-04
Sym=X
Ene= 0.232759
Spin=Alpha
Occup=0
     1    2.740631380427e-02
     2    1.254389417550e+00
     3   -1.449628979410e-02
     4   -4.021788744094e-03
     5   -9.147244278898e-04
     6    5.365498624510e-03
     7   -5.889022330473e-03
     8   -8.225058891366e-02
     9   -1.568257867575e-01
    10   -1.574042350822e-01
    11   -1.663928512947e-02
    12   -5.610526150492e-01
    13   -5.517077527828e-01
    14   -5.878220581250e-02
    15    9.108223114841e-04
    16   -1.029396658808e-04
    17   -1.095667322504e-04
    18   -1.559417717153e-04
    19   -5.674136009861e-04
    20   -2.430977125345e-02
    21   -1.130835048608e+00
    22   -2.314987160544e-03
    23   -1.316541867886e-02
    24   -8.868673787288e-04
    25   -5.626984940098e-03
    26    5.951753394792e-03
    27    9.173004834859e-02
    28   -1.554596833635e-01
    29   -1.566399098127e-01
    30   -1.678517097145e-02
    31   -5.548191770476e-01
    32   -5.449055346933e-01
    33   -5.913967606553e-02
    34   -1.211499837548e-03
    35    1.382941223832e-04
    36    1.286058118574e-04
    37    1.370421645134e-04
    38    7.326080517585e-04
    39    2.489159028484e-02
    40    1.119315026242e+00
    41   -2.217391196248e-03
    42   -1.299603154229e-02
    43   -8.876861078505e-04
    44   -2.711501914282e-02
    45   -1.254346412396e+00
    46   -1.468179717809e-02
    47   -4.039607106685e-03
    48   -9.375835857328e-04
Sym=X
Ene= 0.239215
Spin=Alpha
Occup=0
     1   -1.584154870236e-02
     2   -1.006997917341e+00
     3    1.582312535334e-02
     4    8.970238862022e-03
     5    1.285091019071e-03
     6   -8.620281022470e-02
     7    7.960569132004e-02
     8    1.580509874796e+00
     9    4.894817065819e-02
    10   -6.473014869376e-02
    11   -1.428019204015e-03
    12    1.942783264111e-01
    13   -2.509422186702e-01
    14   -5.224221784178e-03
    15   -2.228777781505e-02
    16    2.581274317664e-03
    17    2.932904040529e-03
    18   -6.012544571857e-04
    19    1.278754241603e-02
    20   -1.799191365020e-02
    21   -1.154400068349e+00
    22   -8.553515738501e-03
    23   -1.805998489588e-02
    24   -1.469472707791e-03
    25    8.660333870495e-02
    26   -7.957640775617e-02
    27   -1.597843662914e+00
    28    4.877002105386e-02
    29   -6.627384217346e-02
    30   -1.861210429692e-03
    31    1.953349889587e-01
    32   -2.603791393568e-01
    33   -7.137966295277e-03
    34    2.262418635917e-02
    35   -2.576094605981e-03
    36   -3.028307767230e-03
    37    9.024112877000e-04
    38   -1.279823304415e-02
    39    1.725152434685e-02
    40    1.169397095611e+00
    41   -8.677360104128e-03
    42   -1.837129107078e-02
    43   -1.521324906829e-03
    44    1.525198930902e-02
    45    1.013319219872e+00
    46    1.598014763491e-02
    47    9.167971620482e-03
    48    1.287282800183e-03
Sym=X
Ene= 0.303230
Spin=Alpha
Occup=0
     1   -2.017933065469e-02
     2    1.679074122122e+00
     3   -2.287194794330e-02
     4    2.961236940696e-04
     5   -1.068104165196e-03
     6   -3.490199089753e-04
     7    1.762125759313e-04
     8    1.384301517813e-02
     9   -1.341034991093e-01
    10   -1.395045455198e-01
    11   -1.455377245995e-02
    12   -1.142374879688e+00
    13   -1.190608572501e+00
    14   -1.245183428699e-01
    15   -3.862926656785e-04
    16   -1.605479269902e-03
    17    1.892618327599e-03
    18   -3.262372408950e-02
    19   -1.388126448385e-03
    20    2.017783570611e-02
    21   -1.688332062645e+00
    22    1.346123515646e-03
    23   -2.297457467755e-02
    24   -1.286139188455e-03
    25    1.391896310714e-04
    26    4.275637359406e-04
    27   -1.235165165002e-02
    28    1.350611691053e-01
    29    1.403961934729e-01
    30    1.481004265510e-02
    31    1.139489925954e+00
    32    1.198882764361e+00
    33    1.254048180553e-01
    34    9.155150719840e-05
    35   -1.622090131474e-03
    36    1.897472829982e-03
    37   -3.270894881001e-02
    38   -1.716596843707e-03
    39    1.994027532356e-02
    40   -1.691955339705e+00
    41   -1.641516180264e-03
    42    2.285349814027e-02
    43    1.292692916684e-03
    44   -2.043928439384e-02
    45    1.700864763176e+00
    46    2.314640094731e-02
    47   -3.480338814483e-04
    48    1.073317619248e-03
Sym=X
Ene= 0.462023
Spin=Alpha
Occup=0
     1   -1.159318611210e-01
     2   -7.058490732893e-01
     3   -1.561170763765e-02
     4   -1.040660287824e-02
     5   -1.346156335230e-03
     6    6.095480696186e-02
     7    1.734200743609e-02
     8   -3.598396001942e+00
     9    1.031704535049e-01
    10   -9.935107409647e-02
    11   -1.047014725874e-03
    12    2.421623751359e+00
    13   -2.305592242770e+00
    14   -2.147715119428e-02
    15    5.369915465290e-02
    16   -3.346579347229e-03
    17   -4.617370244708e-03
    18   -9.711532087250e-04
    19    1.823556505469e-02
    20   -1.209454645155e-01
    21   -7.050145811270e-01
    22    8.713424311180e-03
    23    1.629554627980e-02
    24    1.373088792878e-03
    25   -6.096329835273e-02
    26   -1.648824857316e-02
    27    3.592209981220e+00
    28    1.048062253809e-01
    29   -1.001463433044e-01
    30   -1.207548394737e-03
    31    2.424908199314e+00
    32   -2.297968440912e+00
    33   -2.173684479466e-02
    34   -5.273556642034e-02
    35    3.269582455877e-03
    36    4.537665058678e-03
    37    5.884094742672e-04
    38   -1.901917305792e-02
    39    1.153533065613e-01
    40    7.074352783781e-01
    41    8.613513422796e-03
    42    1.627765928020e-02
    43    1.377613757892e-03
    44    1.109986671019e-01
    45    7.188153405665e-01
    46   -1.542276079150e-02
    47   -9.973117622828e-03
    48   -1.336753177072e-03
Sym=X
Ene= 0.577594
Spin=Alpha
Occup=0
     1    2.436877625634e-01
     2    3.945853556721e-02
     3   -1.927219443186e-02
     4    2.631319582155e-02
     5    6.464787973327e-04
     6   -4.658430774644e-03
     7   -1.579990580759e-01
     8   -4.573269631331e-01
     9    2.983161491352e-01
    10   -2.885460931987e-01
    11   -2.981767563388e-03
    12   -7.180657296375e-01
    13    7.036485524359e-01
    14    7.882311695502e-03
    15   -5.818549442625e-03
    16    3.849987693628e-03
    17    3.748594550530e-03
    18   -4.749103788192e-03
    19    6.021378552089e-02
    20    2.572206378599e-01
    21    3.096908586236e-02
    22   -2.629666522237e-02
    23    1.638103570386e-02
    24   -2.731353451724e-04
    25   -5.565049524368e-03
    26   -1.582847400428e-01
    27   -4.145314156542e-01
    28   -2.978974556185e-01
    29    2.855506289954e-01
    30    2.794430700594e-03
    31    7.593338271441e-01
    32   -7.301527882980e-01
    33   -7.696866998313e-03
    34   -5.658696588579e-03
    35    3.908845632104e-03
    36    3.647197284641e-03
    37   -3.227290016107e-03
    38    6.020178825166e-02
    39    2.483072559770e-01
    40    5.054306063615e-02
    41    2.736320846270e-02
    42   -1.733946666706e-02
    43    2.516440104206e-04
    44    2.507241909268e-01
    45    5.392150907034e-02
    46    1.825466643154e-02
    47   -2.564386373394e-02
    48   -6.759338788241e-04
Sym=X
Ene= 0.614805
Spin=Alpha
Occup=0
     1   -5.284014681850e-01
     2    2.144514763319e-01
     3   -6.158915326067e-02
     4    3.733595092246e-02
     5   -7.191684008202e-04
     6   -7.776062222548e-04
     7    1.676319548667e-03
     8   -1.893698805644e-02
     9   -3.994628398277e-02
    10   -3.689028348392e-02
    11   -4.123158344327e-03
    12    2.996203571713e-01
    13    2.725402173493e-01
    14    3.003831103002e-02
    15    3.003642448277e-03
    16   -7.711103468981e-03
    17    8.141879706221e-03
    18   -1.484703461206e-01
    19   -6.983265836151e-03
    20    5.040463261484e-01
    21   -2.068415450781e-01
    22    4.206947004322e-02
    23   -5.827159224225e-02
    24   -1.466281305169e-03
    25    4.437355096045e-04
    26   -1.410069795720e-03
    27    2.714169013901e-02
    28   -3.963507899710e-02
    29   -4.101024413175e-02
    30   -4.274596584586e-03
    31    3.005064189439e-01
    32    2.952451656147e-01
    33    3.210059516375e-02
    34   -1.258588660034e-03
    35    7.384827926144e-03
    36   -8.568838451620e-03
    37    1.488829218479e-01
    38    5.770070155543e-03
    39   -5.161083454150e-01
    40    2.045845843064e-01
    41    4.062483300559e-02
    42   -5.841770780689e-02
    43   -1.573861928286e-03
    44    5.195234259486e-01
    45   -2.045188041163e-01
    46   -6.135315579260e-02
    47    3.774485817709e-02
    48   -6.169855578730e-04
Sym=X
Ene= 0.689100
Spin=Alpha
Occup=0
     1    3.659738149516e-04
     2    2.050163801109e-04
     3    1.002576114449e-03
     4    1.218854416280e-03
     5   -2.016843932857e-02
     6    2.676023826597e-05
     7    2.369119552366e-04
     8    6.549348561989e-05
     9    3.149090607394e-02
    10    3.977658782088e-02
    11   -6.705124904925e-01
    12   -2.926875478845e-02
    13   -3.582101840540e-02
    14    6.134220208312e-01
    15   -1.383771400867e-03
    16    8.255442317655e-02
    17   -7.834084374237e-02
    18   -8.615473329970e-03
    19   -1.096825325013e-03
    20    4.275182669386e-04
    21   -5.142686799552e-05
    22    9.279142936484e-04
    23    1.167161151337e-03
    24   -2.098327130316e-02
    25    7.502324619695e-06
    26    4.199619482011e-04
    27   -4.760392828376e-04
    28    3.189109809979e-02
    29    3.990945841787e-02
    30   -6.700340222486e-01
    31   -2.977156318602e-02
    32   -3.609684616434e-02
    33    6.132825741118e-01
    34    1.160178857351e-03
    35   -8.276310448258e-02
    36    7.852560041338e-02
    37    8.534197403725e-03
    38    1.179671665650e-03
    39    1.083752768407e-04
    40   -5.954807798797e-04
    41    1.018250741057e-03
    42    1.370358891110e-03
    43   -2.105993207852e-02
    44    5.476485203739e-05
    45   -3.326342536974e-04
    46    9.044324175803e-04
    47    1.270940923765e-03
    48   -2.103254417173e-02
Sym=X
Ene= 0.708430
Spin=Alpha
Occup=0
     1   -4.796545990277e-01
     2    1.740608215816e-01
     3   -8.119164068745e-02
     4   -4.441202226446e-02
     5   -6.496101493428e-03
     6   -4.817442860749e-02
     7   -3.162674213717e-01
     8    5.070434716263e-01
     9    2.049843631109e-01
    10   -1.896668047225e-01
    11   -1.961202741550e-03
    12   -1.087011251450e-01
    13    7.607972645660e-02
    14   -5.434720084083e-04
    15    1.949955576500e-01
    16   -2.050363804492e-02
    17   -2.400080140936e-02
    18    3.248971795572e-03
    19   -7.752560995177e-02
    20   -4.835824367799e-01
    21    1.492820468377e-01
    22    4.081683494334e-02
    23    8.212851780596e-02
    24    6.753723450520e-03
    25   -4.612555603649e-02
    26   -3.215462284393e-01
    27    4.587820485665e-01
    28   -2.045455908808e-01
    29    1.919425898924e-01
    30    1.321663724210e-03
    31    6.118567557032e-02
    32   -4.849548050139e-02
    33    8.644566593342e-04
    34    1.921373876656e-01
    35   -2.032582363751e-02
    36   -2.362783678756e-02
    37    1.614852969795e-03
    38   -7.550957849492e-02
    39   -4.661788015182e-01
    40    1.295426898418e-01
    41   -4.087430131094e-02
    42   -7.983250562684e-02
    43   -6.692676857924e-03
    44   -4.742579720470e-01
    45    1.443654469311e-01
    46    8.022579521602e-02
    47    4.354219704250e-02
    48    6.406660883548e-03
Sym=X
Ene= 0.783830
Spin=Alpha
Occup=0
     1    5.251014827101e-01
     2   -4.858531372130e-01
     3    1.102654383913e-01
     4    2.612478249830e-02
     5    6.754374274955e-03
     6    9.035173657921e-02
     7   -2.219687470608e-01
     8   -6.301798054462e-01
     9    1.059996174619e-01
    10   -1.113012784549e-01
    11   -8.794202080572e-04
    12    3.320133135530e-01
    13   -2.816450226817e-01
    14   -2.231951069314e-03
    15   -2.041916318624e-01
    16    1.731569832312e-02
    17    2.140082431087e-02
    18    5.389257241299e-05
    19    8.886771308941e-03
    20    5.331360696755e-01
    21   -4.588224973251e-01
    22   -1.976091615422e-02
    23   -1.104979192007e-01
    24   -7.449322918307e-03
    25   -9.163789645260e-02
    26    2.089459264590e-01
    27    6.616655712670e-01
    28    1.093102060676e-01
    29   -1.040412934251e-01
    30   -1.534334892819e-03
    31    3.120636155686e-01
    32   -2.884774105559e-01
    33   -1.099324284344e-03
    34    2.089981466307e-01
    35   -1.768053262189e-02
    36   -2.243412021720e-02
    37    1.905069091804e-03
    38   -9.592372284669e-03
    39   -5.471499664665e-01
    40    4.673498518810e-01
    41   -2.030508736318e-02
    42   -1.135148891743e-01
    43   -7.751921100180e-03
    44   -5.319078442324e-01
    45    4.662118197008e-01
    46    1.102339081728e-01
    47    2.759525501255e-02
    48    6.873911585580e-03
Sym=X
Ene= 0.807935
Spin=Alpha
Occup=0
     1    3.945152446570e-04
     2   -8.238523401088e-04
     3    1.695228831361e-03
     4    1.969731312315e-03
     5   -3.284169806841e-02
     6    8.078478068474e-05
     7   -3.161881418142e-04
     8   -2.543355340598e-05
     9    3.613088212569e-02
    10    4.481257329919e-02
    11   -7.631645482955e-01
    12   -5.284781165850e-02
    13   -6.651476424136e-02
    14    1.126701362414e+00
    15    7.858788079195e-04
    16   -6.525084608526e-02
    17    6.191059810448e-02
    18    6.868819068686e-03
    19    8.726854325727e-04
    20    3.865347953524e-04
    21   -4.496064114406e-05
    22    1.675396496904e-03
    23    1.988383470327e-03
    24   -3.457346698882e-02
    25   -6.755206938615e-05
    26   -1.495797191900e-06
    27    2.123423195512e-04
    28   -3.614201948846e-02
    29   -4.581133894543e-02
    30    7.632968874013e-01
    31    5.390348302220e-02
    32    6.721717330142e-02
    33   -1.126972418517e+00
    34    1.246488190685e-03
    35   -6.522393481160e-02
    36    6.190808052190e-02
    37    6.666212879545e-03
    38    9.580716873577e-04
    39   -3.903837347111e-04
    40    1.426595830960e-04
    41   -1.557291180358e-03
    42   -2.178083563973e-03
    43    3.426692826342e-02
    44   -3.920171808792e-04
    45    8.841574305109e-04
    46   -1.383356423751e-03
    47   -2.008279649702e-03
    48    3.376489861981e-02
Sym=X
Ene= 0.861920
Spin=Alpha
Occup=0
     1    1.255960072376e-02
     2   -1.096081590834e+00
     3    1.483144129511e-01
     4    5.648110521646e-02
     5    1.032925996829e-02
     6   -5.675868171243e-04
     7   -3.282243421078e-03
     8    2.963066202271e-03
     9   -4.126435234670e-01
    10   -4.301337941930e-01
    11   -4.466532916865e-02
    12    9.547760381076e-01
    13    1.000315717635e+00
    14    1.036824689058e-01
    15    1.754720399717e-03
    16    1.150923444815e-02
    17   -1.373937927088e-02
    18    2.351285837838e-01
    19    9.552206777784e-03
    20   -1.810669851095e-02
    21    1.106808507962e+00
    22    5.029817262220e-02
    23    1.527498231688e-01
    24    1.143753932825e-02
    25    3.793953625107e-04
    26   -1.635695275115e-03
    27    2.134909649428e-03
    28   -4.055173734129e-01
    29   -4.255393501485e-01
    30   -4.488264342234e-02
    31    9.414842677290e-01
    32    9.961302911379e-01
    33    1.046489459577e-01
    34   -7.209631102806e-04
    35   -1.165837095768e-02
    36    1.361471156523e-02
    37   -2.353530460740e-01
    38   -1.086546983768e-02
    39    1.215623556814e-02
    40   -1.098902337671e+00
    41    4.901329219852e-02
    42    1.511311838977e-01
    43    1.139342973961e-02
    44   -7.700757986862e-03
    45    1.086428277774e+00
    46    1.469747577438e-01
    47    5.586727841748e-02
    48    1.023713249533e-02
Sym=X
Ene= 0.935293
Spin=Alpha
Occup=0
     1    1.134168300477e-01
     2   -1.275835283336e+00
     3    1.807750243029e-01
     4   -4.659605630734e-03
     5    8.304303394780e-03
     6   -9.036715829434e-04
     7   -7.180014913572e-03
     8    7.234022058759e-03
     9   -4.771869068925e-01
    10   -4.916419442805e-01
    11   -5.165250523306e-02
    12    1.469139561794e+00
    13    1.512696666132e+00
    14    1.590034981510e-01
    15    3.994151139970e-03
    16    5.588054968745e-03
    17   -7.058781638417e-03
    18    1.183590915668e-01
    19    4.650968301815e-03
    20   -1.207470162624e-01
    21    1.265305846450e+00
    22   -1.262037987225e-02
    23    1.812693802883e-01
    24    1.006226907779e-02
    25    4.410988685047e-04
    26   -6.108373968662e-03
    27    1.822696822770e-02
    28    4.724971910423e-01
    29    5.032720287023e-01
    30    5.238907793828e-02
    31   -1.460297334260e+00
    32   -1.540381892522e+00
    33   -1.609884639831e-01
    34   -4.093441311637e-04
    35    6.010156656524e-03
    36   -7.283374345742e-03
    37    1.231543224349e-01
    38    2.737198669347e-03
    39   -1.180563881940e-01
    40    1.286005483714e+00
    41    1.278899785936e-02
    42   -1.825741380242e-01
    43   -1.030387382879e-02
    44    1.186047506903e-01
    45   -1.289338668745e+00
    46   -1.835224857910e-01
    47    5.782138231671e-03
    48   -8.360362686882e-03
Sym=X
Ene= 0.972268
Spin=Alpha
Occup=0
     1   -6.404682982277e-02
     2    9.117530975279e-01
     3   -8.935330743132e-02
     4   -9.832155389102e-02
     5   -1.005758460765e-02
     6    2.565511287926e-02
     7    2.622182265246e-01
     8    5.028820825859e-01
     9    4.781366483445e-01
    10   -4.611386395651e-01
    11   -4.566917610357e-03
    12   -1.478887458880e+00
    13    1.427439163868e+00
    14    1.418513342437e-02
    15   -5.484662718223e-02
    16   -1.269148277933e-02
    17   -9.720538469024e-03
    18    1.569921529167e-02
    19   -3.020342968927e-01
    20   -6.277506050277e-02
    21    9.300648924727e-01
    22    9.563206106653e-02
    23    9.579165581156e-02
    24    1.020430217850e-02
    25   -2.524418788805e-02
    26   -2.292533463959e-01
    27   -5.574875800945e-01
    28    4.801731322924e-01
    29   -4.506212145852e-01
    30   -4.319937804626e-03
    31   -1.491111166983e+00
    32    1.398758383915e+00
    33    1.321026183496e-02
    34    5.301000126488e-02
    35    1.266180122437e-02
    36    9.632003238223e-03
    37   -1.383104621476e-02
    38    2.981043923267e-01
    39    6.089441078950e-02
    40   -8.928209351831e-01
    41    9.388083050327e-02
    42    9.049622869817e-02
    43    9.921459626086e-03
    44    6.519391394373e-02
    45   -9.129265838670e-01
    46   -8.892012492747e-02
    47   -9.727114863814e-02
    48   -9.902563686709e-03
[5D]

======= END OF MOLDEN-FORMATTED INPUT FILE =======


        *************************************************************
        *                                                           *
        *  Thank you very much for using Q-Chem.  Have a nice day.  *
        *                                                           *
        *************************************************************


