                  Welcome to Q-Chem
     A Quantum Leap Into The Future Of Chemistry


 Q-Chem 5.4 (devel), Q-Chem, Inc., Pleasanton, CA (2021)

 E. Epifanovsky,  A. T. B. Gilbert,  Xintian Feng,  Joonho Lee,  Yuezhi Mao,  
 N. Mardirossian,  P. Pokhilko,  A. White,  M. Wormit,  M. P. Coons,  
 A. L. Dempwolff,  Zhengting Gan,  D. Hait,  P. R. Horn,  L. D. Jacobson,  
 I. Kaliman,  J. Kussmann,  A. W. Lange,  Ka Un Lao,  D. S. Levine,  Jie Liu,  
 S. C. McKenzie,  A. F. Morrison,  K. Nanda,  F. Plasser,  D. R. Rehn,  
 M. L. Vidal,  Zhi-Qiang You,  Ying Zhu,  B. Alam,  B. Albrecht,  
 A. Aldossary,  E. Alguire,  J. H. Andersen,  D. Barton,  K. Begam,  A. Behn,  
 Y. A. Bernard,  E. J. Berquist,  H. Burton,  A. Carreras,  K. Carter-Fenk,  
 R. Chakraborty,  A. D. Chien,  K. D. Closser,  V. Cofer-Shabica,  
 S. Dasgupta,  Jia Deng,  M. de Wergifosse,  M. Diedenhofen,  Hainam Do,  
 S. Ehlert,  Po-Tung Fang,  S. Fatehi,  Qingguo Feng,  T. Friedhoff,  
 J. Gayvert,  Qinghui Ge,  G. Gidofalvi,  M. Goldey,  J. Gomes,  
 C. Gonzalez-Espinoza,  S. Gulania,  A. Gunina,  M. W. D. Hanson-Heine,  
 P. H. P. Harbach,  A. W. Hauser,  M. F. Herbst,  M. Hernandez Vera,  
 M. Hodecker,  Z. C. Holden,  S. Houck,  Xunkun Huang,  Kerwin Hui,  
 B. C. Huynh,  M. Ivanov,  Hyunjun Ji,  Hanjie Jiang,  B. Kaduk,  S. Kaehler,  
 K. Khistyaev,  Jaehoon Kim,  P. Klunzinger,  Z. Koczor-Benda,  
 Joong Hoon Koh,  D. Kosenkov,  L. Koulias,  T. Kowalczyk,  C. M. Krauter,  
 K. Kue,  A. Kunitsa,  T. Kus,  A. Landau,  K. V. Lawler,  D. Lefrancois,  
 S. Lehtola,  Rain Li,  Yi-Pei Li,  Jiashu Liang,  M. Liebenthal,  
 Hung-Hsuan Lin,  You-Sheng Lin,  Fenglai Liu,  Kuan-Yu Liu,  
 M. Loipersberger,  A. Luenser,  A. Manjanath,  P. Manohar,  E. Mansoor,  
 S. F. Manzer,  Shan-Ping Mao,  A. V. Marenich,  T. Markovich,  S. Mason,  
 S. A. Maurer,  P. F. McLaughlin,  M. F. S. J. Menger,  J.-M. Mewes,  
 S. A. Mewes,  P. Morgante,  J. W. Mullinax,  K. J. Oosterbaan,  G. Paran,  
 Alexander C. Paul,  Suranjan K. Paul,  F. Pavosevic,  Zheng Pei,  S. Prager,  
 E. I. Proynov,  E. Ramos,  B. Rana,  A. E. Rask,  A. Rettig,  R. M. Richard,  
 F. Rob,  E. Rossomme,  T. Scheele,  M. Scheurer,  M. Schneider,  
 N. Sergueev,  S. M. Sharada,  W. Skomorowski,  D. W. Small,  C. J. Stein,  
 Yu-Chuan Su,  E. J. Sundstrom,  Zhen Tao,  J. Thirman,  T. Tsuchimochi,  
 N. M. Tubman,  S. P. Veccham,  O. Vydrov,  J. Wenzel,  J. Witte,  A. Yamada,  
 Kun Yao,  S. Yeganeh,  S. R. Yost,  A. Zech,  Igor Ying Zhang,  Xing Zhang,  
 Yu Zhang,  D. Zuev,  A. Aspuru-Guzik,  A. T. Bell,  N. A. Besley,  
 K. B. Bravaya,  B. R. Brooks,  D. Casanova,  Jeng-Da Chai,  S. Coriani,  
 C. J. Cramer,  A. E. DePrince, III,  R. A. DiStasio Jr.,  A. Dreuw,  
 B. D. Dunietz,  T. R. Furlani,  W. A. Goddard III,  S. Grimme,  
 S. Hammes-Schiffer,  T. Head-Gordon,  W. J. Hehre,  Chao-Ping Hsu,  
 T.-C. Jagau,  Yousung Jung,  A. Klamt,  Jing Kong,  D. S. Lambrecht,  
 WanZhen Liang,  N. J. Mayhall,  C. W. McCurdy,  J. B. Neaton,  
 C. Ochsenfeld,  J. A. Parkhill,  R. Peverati,  V. A. Rassolov,  Yihan Shao,  
 L. V. Slipchenko,  T. Stauch,  R. P. Steele,  J. E. Subotnik,  
 A. J. W. Thom,  A. Tkatchenko,  D. G. Truhlar,  T. Van Voorhis,  
 T. A. Wesolowski,  K. B. Whaley,  H. L. Woodcock III,  P. M. Zimmerman,  
 S. Faraji,  P. M. W. Gill,  M. Head-Gordon,  J. M. Herbert,  A. I. Krylov

 Additional authors for Version 5.4.1: 
 S. Kotaru,  Shaozhi Li,  Xiangyuan Li,  F. Matz,  A. Molle,  Haisheng Ren,  
 Yingli Su,  Hung-Yi Tsai,  C. Utku,  Fang Wang

 Contributors to earlier versions of Q-Chem not listed above: 
 R. D. Adamson,  B. Austin,  R. Baer,  J. Baker,  G. J. O. Beran,  
 K. Brandhorst,  S. T. Brown,  E. F. C. Byrd,  A. K. Chakraborty,  
 G. K. L. Chan,  Chun-Min Chang,  Yunqing Chen,  C.-L. Cheng,  
 Siu Hung Chien,  D. M. Chipman,  D. L. Crittenden,  H. Dachsel,  
 R. J. Doerksen,  A. D. Dutoi,  R. G. Edgar,  J. Fosso-Tande,  
 L. Fusti-Molnar,  D. Ghosh,  A. Ghysels,  A. Golubeva-Zadorozhnaya,  
 J. Gonthier,  M. S. Gordon,  S. R. Gwaltney,  G. Hawkins,  J. E. Herr,  
 A. Heyden,  S. Hirata,  E. G. Hohenstein,  G. Kedziora,  F. J. Keil,  
 C. Kelley,  Jihan Kim,  R. A. King,  R. Z. Khaliullin,  P. P. Korambath,  
 W. Kurlancheek,  A. Laurent,  A. M. Lee,  M. S. Lee,  S. V. Levchenko,  
 Ching Yeh Lin,  D. Liotard,  E. Livshits,  R. C. Lochan,  I. Lotan,  
 L. A. Martinez-Martinez,  P. E. Maslen,  N. Nair,  D. P. O'Neill,  
 D. Neuhauser,  E. Neuscamman,  C. M. Oana,  R. Olivares-Amaya,  R. Olson,  
 T. M. Perrine,  B. Peters,  P. A. Pieniazek,  A. Prociuk,  Y. M. Rhee,  
 J. Ritchie,  M. A. Rohrdanz,  E. Rosta,  N. J. Russ,  H. F. Schaefer III,  
 M. W. Schmidt,  N. E. Schultz,  S. Sharma,  N. Shenvi,  C. D. Sherrill,  
 A. C. Simmonett,  A. Sodt,  T. Stein,  D. Stuck,  K. S. Thanthiriwatte,  
 V. Vanovschi,  L. Vogt,  Tao Wang,  A. Warshel,  M. A. Watson,  
 C. F. Williams,  Q. Wu,  X. Xu,  Jun Yang,  W. Zhang,  Yan Zhao

 Please cite Q-Chem as follows:
 Y. Shao et al., Mol. Phys. 113, 184-215 (2015)
 DOI: 10.1080/00268976.2014.952696

 Q-Chem 5.4.1 for Intel X86 EM64T Linux

 Parts of Q-Chem use Armadillo 9.800.1 (Horizon Scraper).
 http://arma.sourceforge.net/

 Q-Chem begins on Wed Mar 15 17:51:17 2023  

 Host: cpu121.yggdrasil
0

     Scratch files written to /srv/beegfs/scratch/users/f/fum/qchem92144//
 Processing $rem in /home/share/wesolowski/qc5.aug2021.FDE/config/preferences:
 Processing $rem in /home/fum/.qchemrc:

 Checking the input file for inconsistencies... 	...done.

--------------------------------------------------------------
User input:
--------------------------------------------------------------
$comment
generated from CCJob.Templates
$end

$rem
sym_ignore = true
method = adc(2)
ee_states = 10
basis = cc-pVDZ
mem_static = 1024
mem_total = 40000
adc_davidson_maxiter = 900
adc_davidson_conv = 6
adc_print = 3
adc_prop_es = true
adc_prop_es2es = true
adc_prop_tpa = true
molden_format = True
state_analysis = true
print_orbitals = 15
gen_scfman = false
fde_export_density = true
fde_details = 3
$end

$molecule
0 1
H -0.0348278765 -0.2442097827 0.1036489606
C -1.0765972949 -0.5242748755 -0.0023551776
H -1.313264467 -1.5767591607 -0.0757276926
C -2.043634118 0.3926884087 0.0061254933
H -1.8137616575 1.4459188338 0.0804456828
H -3.085977293 0.114931858 -0.0593381042                     
$end
--------------------------------------------------------------
 ----------------------------------------------------------------
             Standard Nuclear Orientation (Angstroms)
    I     Atom           X                Y                Z
 ----------------------------------------------------------------
    1      H      -0.0348278765    -0.2442097827     0.1036489606
    2      C      -1.0765972949    -0.5242748755    -0.0023551776
    3      H      -1.3132644670    -1.5767591607    -0.0757276926
    4      C      -2.0436341180     0.3926884087     0.0061254933
    5      H      -1.8137616575     1.4459188338     0.0804456828
    6      H      -3.0859772930     0.1149318580    -0.0593381042
 ----------------------------------------------------------------
 Nuclear Repulsion Energy =          33.41334890 hartrees
 There are        8 alpha and        8 beta electrons
 Requested basis set is cc-pVDZ
 There are 24 shells and 48 basis functions
 Total memory of 40000 MB is distributed as follows: 
   MEM_STATIC is set to 1024 MB
   QALLOC/CCMAN JOB total memory use is  38976 MB
 Warning: actual memory use might exceed 40000 MB

 Total QAlloc Memory Limit  40000 MB
 Mega-Array Size      1001 MB
 MEM_STATIC part      1024 MB

                       Distance Matrix (Angstroms)
             H (  1)   C (  2)   H (  3)   C (  4)   H (  5)
   C (  2)  1.083954
   H (  3)  1.855334  1.081258
   C (  4)  2.109610  1.332687  2.102109
   H (  5)  2.453911  2.105215  3.067812  1.080583
   H (  6)  3.076534  2.109370  2.450428  1.080700  1.846510

 A cutoff of  1.0D-11 yielded    300 shell pairs
 There are      1220 function pairs (      1329 Cartesian)
 Smallest overlap matrix eigenvalue = 4.80E-03

 Scale SEOQF with 1.000000e-01/1.000000e-01/1.000000e+00

 Standard Electronic Orientation quadrupole field applied
 Nucleus-field energy     =     0.0000000021 hartrees
 Guess from superposition of atomic densities
 Warning:  Energy on first SCF cycle will be non-variational
 SAD guess density has 16.000000 electrons
 A restricted Hartree-Fock SCF calculation will be
 performed using Pulay DIIS extrapolation
 SCF converges when DIIS error is below 1.0E-08
 using 10 threads for integral computing
 -------------------------------------------------------
 OpenMP Integral computing Module                
 Release: version 1.0, May 2013, Q-Chem Inc. Pittsburgh 
 -------------------------------------------------------
 ---------------------------------------
  Cycle       Energy         DIIS Error
 ---------------------------------------
    1     -78.4366612446      1.01E-01
    2     -78.0176191275      7.21E-03
    3     -78.0382415581      1.84E-03
    4     -78.0397243020      5.73E-04
    5     -78.0398459424      5.81E-05
    6     -78.0398478230      9.83E-06
    7     -78.0398478858      3.14E-06
    8     -78.0398478899      1.12E-06
    9     -78.0398478905      1.09E-07
   10     -78.0398478905      2.63E-08
   11     -78.0398478905      7.01E-09 Convergence criterion met
 ---------------------------------------
 SCF time:  CPU 2.06 s  wall 3.26 s
 SCF   energy in the final basis set = -78.03984789
 Total energy in the final basis set = -78.03984789
Exporting Density Matrix to file 'Densmat_SCF.txt'.
Export successful
================================================================================
|                                                                              |
|                                 A D C  M A N                                 |
|                                                                              |
 ------------------------------------------------------------------------------ 
|                                                                              |
| Components:                                                                  |
|                                                                              |
| - libvmm - 1.3-trunk                                                         |
|   Authors:                                                                   |
|   Evgeny Epifanovsky, Ilya Kaliman                                           |
|                                                                              |
| - libtensor - 2.5-trunk                                                      |
|   Authors:                                                                   |
|   Evgeny Epifanovsky, Michael Wormit, Dmitry Zuev, Sam Manzer,               |
|   Ilya Kaliman                                                               |
|                                                                              |
| - libwfa - 1.1-trunk                                                         |
|   Authors:                                                                   |
|   Felix Plasser, Stefanie Mewes (Baeppler), Benjamin Thomitzni,              |
|   Michael Wormit, Feng Chen, Anna I. Krylov, Pavel Pokhilko                  |
|                                                                              |
| - libadc - 1.1-trunk                                                         |
|   Authors:                                                                   |
|   Michael Wormit, Adrian L. Dempwolff, Philipp H. P. Harbach,                |
|   Caroline Krauter, Dirk Rehn, Matthias Schneider, Jan Wenzel                |
|                                                                              |
| - adcman - 2.6-trunk                                                         |
|   Authors:                                                                   |
|   Michael Wormit, Adrian L. Dempwolff, Philipp H. P. Harbach,                |
|   Caroline Krauter, Daniel Lefrancois, Jan-Michael Mewes, Dirk Rehn,         |
|   Matthias Schneider, Jan Wenzel, Andreas Dreuw                              |
|                                                                              |
| Authors of earlier versions of ADCMAN:                                       |
| Andreas Dreuw, Jan Hendrik Starcke, Dirk Rehn, Michael Wormit                |
|                                                                              |
================================================================================

 Created directory /srv/beegfs/scratch/users/f/fum/qchem92144/plots
  Import QC data ...  CPU 0.00 s  wall 0.00 s

 Alpha MOs, Restricted
 -- Occupied --                  
-11.235 -11.234  -1.032  -0.789  -0.641  -0.582  -0.504  -0.374
  1 A     2 A     3 A     4 A     5 A     6 A     7 A     8 A                  
 -- Virtual --                   
  0.168   0.204   0.233   0.239   0.303   0.462   0.577   0.615
  9 A    10 A    11 A    12 A    13 A    14 A    15 A    16 A                  
  0.689   0.709   0.784   0.808   0.862   0.935   0.972   1.009
 17 A    18 A    19 A    20 A    21 A    22 A    23 A    24 A                  
  1.129   1.235   1.250   1.269   1.295   1.601   1.725   1.750
 25 A    26 A    27 A    28 A    29 A    30 A    31 A    32 A                  
  1.819   1.860   1.866   1.921   1.977   1.978   2.220   2.258
 33 A    34 A    35 A    36 A    37 A    38 A    39 A    40 A                  
  2.375   2.453   2.504   2.632   2.719   2.820   3.138   3.396
 41 A    42 A    43 A    44 A    45 A    46 A    47 A    48 A                  

 Beta MOs, Restricted
 -- Occupied --                  
-11.235 -11.234  -1.032  -0.789  -0.641  -0.582  -0.504  -0.374
  1 A     2 A     3 A     4 A     5 A     6 A     7 A     8 A                  
 -- Virtual --                   
  0.168   0.204   0.233   0.239   0.303   0.462   0.577   0.615
  9 A    10 A    11 A    12 A    13 A    14 A    15 A    16 A                  
  0.689   0.709   0.784   0.808   0.862   0.935   0.972   1.009
 17 A    18 A    19 A    20 A    21 A    22 A    23 A    24 A                  
  1.129   1.235   1.250   1.269   1.295   1.601   1.725   1.750
 25 A    26 A    27 A    28 A    29 A    30 A    31 A    32 A                  
  1.819   1.860   1.866   1.921   1.977   1.978   2.220   2.258
 33 A    34 A    35 A    36 A    37 A    38 A    39 A    40 A                  
  2.375   2.453   2.504   2.632   2.719   2.820   3.138   3.396
 41 A    42 A    43 A    44 A    45 A    46 A    47 A    48 A                  
  Import AO data ...  CPU 0.00 s  wall 0.05 s
  Using point group: C1
  Irreducible representations in point group: A
  Molecular orbitals: 
  Occupied MOs:
  Block   0:   1 (  A) A   2 (  A) A   3 (  A) A   4 (  A) A   5 (  A) A
                  -11.24      -11.23      -1.032     -0.7894      -0.641
               6 (  A) A   7 (  A) A   8 (  A) A
                 -0.5817     -0.5044      -0.374
  Block   1:   1 (  A) B   2 (  A) B   3 (  A) B   4 (  A) B   5 (  A) B
                  -11.24      -11.23      -1.032     -0.7894      -0.641
               6 (  A) B   7 (  A) B   8 (  A) B
                 -0.5817     -0.5044      -0.374
  Virtual MOs:
  Block   0:   9 (  A) A  10 (  A) A  11 (  A) A  12 (  A) A  13 (  A) A
                  0.1683      0.2036      0.2328      0.2393      0.3032
              14 (  A) A  15 (  A) A  16 (  A) A  17 (  A) A  18 (  A) A
                  0.4619      0.5774      0.6153      0.6891      0.7086
              19 (  A) A  20 (  A) A  21 (  A) A  22 (  A) A
                  0.7842      0.8079      0.8621      0.9355
  Block   1:  23 (  A) A  24 (  A) A  25 (  A) A  26 (  A) A  27 (  A) A
                  0.9722       1.009       1.129       1.235        1.25
              28 (  A) A  29 (  A) A  30 (  A) A  31 (  A) A  32 (  A) A
                   1.269       1.295       1.601       1.725        1.75
              33 (  A) A  34 (  A) A  35 (  A) A  36 (  A) A
                   1.819        1.86       1.866       1.921
  Block   2:  37 (  A) A  38 (  A) A  39 (  A) A  40 (  A) A  41 (  A) A
                   1.977       1.978        2.22       2.258       2.375
              42 (  A) A  43 (  A) A  44 (  A) A  45 (  A) A  46 (  A) A
                   2.453       2.504       2.632       2.719        2.82
              47 (  A) A  48 (  A) A
                   3.138       3.396
  Block   3:   9 (  A) B  10 (  A) B  11 (  A) B  12 (  A) B  13 (  A) B
                  0.1683      0.2036      0.2328      0.2393      0.3032
              14 (  A) B  15 (  A) B  16 (  A) B  17 (  A) B  18 (  A) B
                  0.4619      0.5774      0.6153      0.6891      0.7086
              19 (  A) B  20 (  A) B  21 (  A) B  22 (  A) B
                  0.7842      0.8079      0.8621      0.9355
  Block   4:  23 (  A) B  24 (  A) B  25 (  A) B  26 (  A) B  27 (  A) B
                  0.9722       1.009       1.129       1.235        1.25
              28 (  A) B  29 (  A) B  30 (  A) B  31 (  A) B  32 (  A) B
                   1.269       1.295       1.601       1.725        1.75
              33 (  A) B  34 (  A) B  35 (  A) B  36 (  A) B
                   1.819        1.86       1.866       1.921
  Block   5:  37 (  A) B  38 (  A) B  39 (  A) B  40 (  A) B  41 (  A) B
                   1.977       1.978        2.22       2.258       2.375
              42 (  A) B  43 (  A) B  44 (  A) B  45 (  A) B  46 (  A) B
                   2.453       2.504       2.632       2.719        2.82
              47 (  A) B  48 (  A) B
                   3.138       3.396
  Import MO data ...  CPU 0.00 s  wall 0.00 s
  Import HF data ...  CPU 0.29 s  wall 0.08 s
  Import 2e integrals ...  CPU 0.93 s  wall 0.16 s

--------------------------------------------------------------------------------
                                   HF Summary                                   
--------------------------------------------------------------------------------
  Energy:                                                  -78.0398478905 a.u.
  Dip. moment [a.u.]:                  [  -0.002335,    0.000267,    0.011382]
  Total dipole [Debye]:                                               0.029541
  <r^2> [a.u.]:                        [ 175.318812,   34.918751,   11.647731]
  Total <r^2> [a.u.]:                                               221.885294
--------------------------------------------------------------------------------
  HF properties ...  CPU 0.01 s  wall 0.01 s
  MP(1) calculation ...  CPU 0.01 s  wall 0.00 s
  N^6 prerequesite intermediates ...  CPU 0.44 s  wall 0.08 s
  Difference density matrix of state mp2_gs printed to ASCII file 'State_mp2_gs_Difference.txt'
Exporting MP density matrix to file 'Densmat_MP.txt'.
Export successful
  Total density matrix of state mp2_gs printed to ASCII file 'State_mp2_gs_Total.txt'
Exporting MP density matrix to file 'Densmat_MP.txt'.
Export successful

--------------------------------------------------------------------------------
                                 MP(2) Summary                                  
--------------------------------------------------------------------------------
  MP energy contribution:                                   -0.2797603870 a.u.
  Total energy:                                            -78.3196082775 a.u.
  Dip. moment [a.u.]:                  [  -0.002181,    0.000180,    0.011235]
  Total dipole [Debye]:                                               0.029094
  <r^2> [a.u.]:                        [ 175.365602,   34.959240,   11.479674]
  Total <r^2> [a.u.]:                                               221.804517

  Density matrix analysis:
  ------------------------
  NOs
    Occupation of frontier NOs:
       0.0453   1.9382
    Number of electrons: 16.000000
    Number of unpaired electrons: n_u =  0.40367, n_u,nl =  0.04513
    NO participation ratio (PR_NO): 13.858953
  
  
  Mulliken Population Analysis
  Atom      Charge (e)              h+              e-           Del q
  --------------------------------------------------------------------
   1 H        0.051819        0.013980       -0.011221        0.002759
   2 C       -0.102212        0.093491       -0.098932       -0.005441
   3 H        0.050708        0.014058       -0.011205        0.002854
   4 C       -0.101053        0.092912       -0.098920       -0.006008
   5 H        0.050164        0.014126       -0.011186        0.002940
   6 H        0.050574        0.014089       -0.011193        0.002896
  --------------------------------------------------------------------
  Sum:       -0.000000        0.242656       -0.242656       -0.000000
  
  Multipole moment analysis of the density matrix
    Molecular charge:                      0.000000
    Number of electrons:                   16.000000
      Center of electronic charge [Ang]: [ -1.560504,  -0.065608,   0.004107]
    Total nuclear charge:                  16.000000
      Center of nuclear charge [Ang]:    [ -1.560576,  -0.065602,   0.004478]
    Dipole moment [D]:                     0.029094
      Cartesian components [D]:          [ -0.005543,   0.000456,   0.028557]
    RMS size of the density [Ang]:         1.201033
      Cartesian components [Ang]:        [  0.796265,   0.779451,   0.448216]
  
  Exciton analysis of the difference density matrix
    <r_h> [Ang]:                  [ -1.559647,  -0.065971,   0.002287]
    <r_e> [Ang]:                  [ -1.559982,  -0.065780,   0.002607]
    |<r_e - r_h>| [Ang]:            0.000502
    Hole size [Ang]:                1.394036
      Cartesian components [Ang]: [  0.847242,   0.834106,   0.727864]
    Electron size [Ang]:            1.359815
      Cartesian components [Ang]: [  0.877935,   0.861675,   0.579520]
--------------------------------------------------------------------------------
  MP(2) calculation ...  CPU 0.27 s  wall 0.64 s
  Start ADC(2)-s ...  CPU 0.01 s  wall 0.01 s
  ADC(2) intermediates ...  CPU 0.02 s  wall 0.01 s
  Starting Davidson for singlet states of irrep A ... 
--------------------------------------------------------------------------------
   It NVec Conv  Avg. Norm  Max. Norm  Conv. states           Remark
--------------------------------------------------------------------------------
        10    0  1.330e-01  4.686e-01  0.4118 n n n n n n n n Guess.
    1   20    0  2.324e-02  1.108e-01  0.3258 n n n n n n n n 
    2   30    0  6.116e-03  2.462e-02  0.3211 n n n n n n n n 
    3   40    0  2.082e-03  1.018e-02  0.3207 n n n n n n n n 
    4   50    0  5.366e-04  3.350e-03  0.3207 n n n n n n n n 
    5   20    0  3.071e-04  1.565e-03  0.3207 n n n n n n n n Subspace collapsed.
    6   30    0  2.468e-04  1.461e-03  0.3207 n n n n n n n n 
    7   40    0  1.703e-04  9.501e-04  0.3207 n n n n n n n n 
    8   50    0  1.052e-04  6.456e-04  0.3207 n n n n n n n n 
    9   20    0  5.687e-05  3.688e-04  0.3207 n n n n n n n n Subspace collapsed.
   10   30    2  4.120e-05  2.285e-04  0.3207 n y y n n n n n 
   11   40    3  1.614e-05  9.468e-05  0.3207 n y y y n n n n 
   12   50    5  9.021e-06  5.791e-05  0.3207 y y y y y n n n 
   13   20    6  7.621e-06  5.089e-05  0.3207 y y y y y y n n Subspace collapsed.
   14   30    6  9.903e-06  7.093e-05  0.3207 y y y y y y n n 
   15   40    6  1.037e-05  8.644e-05  0.3207 y y y y y y n n 
   16   50    6  6.047e-06  5.373e-05  0.3207 y y y y y y n n 
   17   20    7  3.106e-06  2.763e-05  0.3207 y y y y y y y n Subspace collapsed.
   18   30    7  2.663e-06  2.368e-05  0.3207 y y y y y y y n 
   19   40    7  1.145e-06  1.023e-05  0.3207 y y y y y y y n 
   20   50    7  8.361e-07  7.605e-06  0.3207 y y y y y y y n 
   21   20    8  5.783e-07  5.375e-06  0.3207 y y y y y y y y Subspace collapsed.
   22   30    8  8.337e-07  7.930e-06  0.3207 y y y y y y y y 
   23   40    8  9.776e-07  9.547e-06  0.3207 y y y y y y y y 
   24   49    8  7.517e-07  7.404e-06  0.3207 y y y y y y y y 
   25   50    8  7.518e-07  7.405e-06  0.3207 y y y y y y y y 
   26   17    9  3.552e-07  3.504e-06  0.3207 y y y y y y y y Subspace collapsed.
   27   24    9  2.490e-07  2.460e-06  0.3207 y y y y y y y y 
   28   30    9  1.421e-07  1.404e-06  0.3207 y y y y y y y y 
   29   36    9  1.054e-07  1.044e-06  0.3207 y y y y y y y y 
   30   36    9  1.054e-07  1.044e-06  0.3207 y y y y y y y y 
   31   46    9  1.281e-07  1.273e-06  0.3207 y y y y y y y y 
   32   46    9  1.281e-07  1.273e-06  0.3207 y y y y y y y y 
   33   48    9  1.279e-07  1.271e-06  0.3207 y y y y y y y y 
   34   50    9  1.344e-07  1.336e-06  0.3207 y y y y y y y y 
   35   14   10  7.209e-08  7.171e-07  0.3207 y y y y y y y y Converged.
--------------------------------------------------------------------------------
  Davidson Summary: 
 ------------------------------------------------------------
  State  0: excitation energy =   0.3207 a.u.   (converged)
  State  1: excitation energy =   0.3328 a.u.   (converged)
  State  2: excitation energy =   0.3368 a.u.   (converged)
  State  3: excitation energy =   0.3612 a.u.   (converged)
  State  4: excitation energy =   0.3751 a.u.   (converged)
  State  5: excitation energy =   0.3870 a.u.   (converged)
  State  6: excitation energy =   0.4245 a.u.   (converged)
  State  7: excitation energy =   0.4469 a.u.   (converged)
  State  8: excitation energy =   0.4562 a.u.   (converged)
  State  9: excitation energy =   0.4645 a.u.   (converged)
 ------------------------------------------------------------

  Singlet states of irrep A ...  CPU 133.12 s  wall 35.20 s
  TDMs ...  CPU 0.96 s  wall 0.35 s
  SDMs ...  CPU 2.66 s  wall 0.72 s
  Starting TPA DIIS iterations ... 
------------------------------------ 
   It     Res. Norm  Remark
------------------------------------
                       Guess.
    1     4.402e+00  
    2     5.834e+00  
    3     1.077e+00  
    4     2.574e-01  
    5     6.567e-02  
    6     2.698e-02  
    7     8.232e-03  
    8     1.548e-03  
    9     5.559e-04  
   10     1.330e-04  
   11     4.485e-05  
   12     1.760e-05  
   13     5.717e-06  
   14     3.110e-06  
   15     5.441e-07  Converged.
   ... Converged in 15 steps (norm: 5.4406e-07)
------------------------------------
  Starting TPA DIIS iterations ... 
------------------------------------ 
   It     Res. Norm  Remark
------------------------------------
                       Guess.
    1     4.176e+00  
    2     5.527e+00  
    3     1.027e+00  
    4     2.552e-01  
    5     6.530e-02  
    6     2.668e-02  
    7     8.089e-03  
    8     1.438e-03  
    9     5.158e-04  
   10     1.124e-04  
   11     3.402e-05  
   12     1.282e-05  
   13     3.965e-06  
   14     1.970e-06  
   15     4.052e-07  Converged.
   ... Converged in 15 steps (norm: 4.05226e-07)
------------------------------------
  Starting TPA DIIS iterations ... 
------------------------------------ 
   It     Res. Norm  Remark
------------------------------------
                       Guess.
    1     6.920e-01  
    2     4.934e-01  
    3     1.745e-01  
    4     1.034e-01  
    5     1.744e-02  
    6     6.213e-03  
    7     1.060e-03  
    8     4.523e-04  
    9     1.266e-04  
   10     2.777e-05  
   11     6.039e-06  
   12     1.985e-06  
   13     1.494e-06  
   14     4.690e-07  Converged.
   ... Converged in 14 steps (norm: 4.69022e-07)
------------------------------------
  Starting TPA DIIS iterations ... 
------------------------------------ 
   It     Res. Norm  Remark
------------------------------------
                       Guess.
    1     4.699e+00  
    2     6.368e+00  
    3     1.161e+00  
    4     2.871e-01  
    5     7.429e-02  
    6     3.080e-02  
    7     9.378e-03  
    8     1.773e-03  
    9     6.422e-04  
   10     1.580e-04  
   11     5.548e-05  
   12     2.209e-05  
   13     7.299e-06  
   14     3.888e-06  
   15     6.979e-07  Converged.
   ... Converged in 15 steps (norm: 6.97934e-07)
------------------------------------
  Starting TPA DIIS iterations ... 
------------------------------------ 
   It     Res. Norm  Remark
------------------------------------
                       Guess.
    1     4.457e+00  
    2     6.033e+00  
    3     1.107e+00  
    4     2.844e-01  
    5     7.389e-02  
    6     3.047e-02  
    7     9.216e-03  
    8     1.635e-03  
    9     5.893e-04  
   10     1.322e-04  
   11     4.030e-05  
   12     1.594e-05  
   13     4.818e-06  
   14     2.531e-06  
   15     5.073e-07  Converged.
   ... Converged in 15 steps (norm: 5.07319e-07)
------------------------------------
  Starting TPA DIIS iterations ... 
------------------------------------ 
   It     Res. Norm  Remark
------------------------------------
                       Guess.
    1     7.051e-01  
    2     5.129e-01  
    3     1.853e-01  
    4     1.165e-01  
    5     1.888e-02  
    6     6.874e-03  
    7     1.203e-03  
    8     5.355e-04  
    9     1.530e-04  
   10     3.147e-05  
   11     6.950e-06  
   12     2.332e-06  
   13     1.823e-06  
   14     5.896e-07  Converged.
   ... Converged in 14 steps (norm: 5.8961e-07)
------------------------------------
  Starting TPA DIIS iterations ... 
------------------------------------ 
   It     Res. Norm  Remark
------------------------------------
                       Guess.
    1     4.806e+00  
    2     6.563e+00  
    3     1.191e+00  
    4     2.981e-01  
    5     7.749e-02  
    6     3.223e-02  
    7     9.804e-03  
    8     1.857e-03  
    9     6.747e-04  
   10     1.675e-04  
   11     5.970e-05  
   12     2.387e-05  
   13     7.934e-06  
   14     4.191e-06  
   15     7.591e-07  Converged.
   ... Converged in 15 steps (norm: 7.59069e-07)
------------------------------------
  Starting TPA DIIS iterations ... 
------------------------------------ 
   It     Res. Norm  Remark
------------------------------------
                       Guess.
    1     4.558e+00  
    2     6.218e+00  
    3     1.136e+00  
    4     2.953e-01  
    5     7.708e-02  
    6     3.188e-02  
    7     9.634e-03  
    8     1.708e-03  
    9     6.165e-04  
   10     1.398e-04  
   11     4.272e-05  
   12     1.717e-05  
   13     5.150e-06  
   14     2.759e-06  
   15     5.476e-07  Converged.
   ... Converged in 15 steps (norm: 5.47563e-07)
------------------------------------
  Starting TPA DIIS iterations ... 
------------------------------------ 
   It     Res. Norm  Remark
------------------------------------
                       Guess.
    1     7.096e-01  
    2     5.197e-01  
    3     1.892e-01  
    4     1.213e-01  
    5     1.941e-02  
    6     7.119e-03  
    7     1.258e-03  
    8     5.672e-04  
    9     1.631e-04  
   10     3.262e-05  
   11     7.292e-06  
   12     2.463e-06  
   13     1.950e-06  
   14     6.374e-07  Converged.
   ... Converged in 14 steps (norm: 6.37438e-07)
------------------------------------
  Starting TPA DIIS iterations ... 
------------------------------------ 
   It     Res. Norm  Remark
------------------------------------
                       Guess.
    1     5.547e+00  
    2     7.943e+00  
    3     1.398e+00  
    4     3.787e-01  
    5     1.009e-01  
    6     4.276e-02  
    7     1.292e-02  
    8     2.484e-03  
    9     9.203e-04  
   10     2.424e-04  
   11     9.497e-05  
   12     3.855e-05  
   13     1.335e-05  
   14     6.644e-06  
   15     1.267e-06  
   16     6.036e-07  Converged.
   ... Converged in 16 steps (norm: 6.03576e-07)
------------------------------------
  Starting TPA DIIS iterations ... 
------------------------------------ 
   It     Res. Norm  Remark
------------------------------------
                       Guess.
    1     5.258e+00  
    2     7.524e+00  
    3     1.333e+00  
    4     3.743e-01  
    5     1.004e-01  
    6     4.233e-02  
    7     1.269e-02  
    8     2.239e-03  
    9     8.162e-04  
   10     1.984e-04  
   11     6.166e-05  
   12     2.732e-05  
   13     7.814e-06  
   14     4.760e-06  
   15     8.778e-07  Converged.
   ... Converged in 15 steps (norm: 8.77801e-07)
------------------------------------
  Starting TPA DIIS iterations ... 
------------------------------------ 
   It     Res. Norm  Remark
------------------------------------
                       Guess.
    1     7.380e-01  
    2     5.653e-01  
    3     2.153e-01  
    4     1.549e-01  
    5     2.315e-02  
    6     8.908e-03  
    7     1.670e-03  
    8     8.046e-04  
    9     2.372e-04  
   10     3.794e-05  
   11     9.879e-06  
   12     3.453e-06  
   13     2.950e-06  
   14     1.034e-06  
   15     3.633e-07  Converged.
   ... Converged in 15 steps (norm: 3.63343e-07)
------------------------------------
  Starting TPA DIIS iterations ... 
------------------------------------ 
   It     Res. Norm  Remark
------------------------------------
                       Guess.
    1     6.057e+00  
    2     8.928e+00  
    3     1.541e+00  
    4     4.384e-01  
    5     1.182e-01  
    6     5.067e-02  
    7     1.523e-02  
    8     2.960e-03  
    9     1.111e-03  
   10     3.029e-04  
   11     1.258e-04  
   12     5.122e-05  
   13     1.821e-05  
   14     8.694e-06  
   15     1.706e-06  
   16     8.032e-07  Converged.
   ... Converged in 16 steps (norm: 8.03193e-07)
------------------------------------
  Starting TPA DIIS iterations ... 
------------------------------------ 
   It     Res. Norm  Remark
------------------------------------
                       Guess.
    1     5.741e+00  
    2     8.456e+00  
    3     1.468e+00  
    4     4.327e-01  
    5     1.176e-01  
    6     5.017e-02  
    7     1.496e-02  
    8     2.631e-03  
    9     9.643e-04  
   10     2.452e-04  
   11     7.714e-05  
   12     3.613e-05  
   13     1.006e-05  
   14     6.618e-06  
   15     1.160e-06  
   16     9.131e-07  Converged.
   ... Converged in 16 steps (norm: 9.13053e-07)
------------------------------------
  Starting TPA DIIS iterations ... 
------------------------------------ 
   It     Res. Norm  Remark
------------------------------------
                       Guess.
    1     7.555e-01  
    2     5.952e-01  
    3     2.329e-01  
    4     1.780e-01  
    5     2.581e-02  
    6     1.023e-02  
    7     1.992e-03  
    8     9.753e-04  
    9     2.899e-04  
   10     3.994e-05  
   11     1.192e-05  
   12     4.205e-06  
   13     3.743e-06  
   14     1.377e-06  
   15     5.103e-07  Converged.
   ... Converged in 15 steps (norm: 5.10282e-07)
------------------------------------
  Starting TPA DIIS iterations ... 
------------------------------------ 
   It     Res. Norm  Remark
------------------------------------
                       Guess.
    1     6.557e+00  
    2     9.919e+00  
    3     1.679e+00  
    4     5.001e-01  
    5     1.360e-01  
    6     5.891e-02  
    7     1.762e-02  
    8     3.461e-03  
    9     1.315e-03  
   10     3.696e-04  
   11     1.616e-04  
   12     6.573e-05  
   13     2.394e-05  
   14     1.099e-05  
   15     2.210e-06  
   16     1.027e-06  
   17     1.675e-07  Converged.
   ... Converged in 17 steps (norm: 1.67494e-07)
------------------------------------
  Starting TPA DIIS iterations ... 
------------------------------------ 
   It     Res. Norm  Remark
------------------------------------
                       Guess.
    1     6.214e+00  
    2     9.395e+00  
    3     1.600e+00  
    4     4.930e-01  
    5     1.355e-01  
    6     5.835e-02  
    7     1.729e-02  
    8     3.034e-03  
    9     1.117e-03  
   10     2.965e-04  
   11     9.438e-05  
   12     4.634e-05  
   13     1.261e-05  
   14     8.858e-06  
   15     1.481e-06  
   16     1.227e-06  
   17     2.118e-07  Converged.
   ... Converged in 17 steps (norm: 2.11815e-07)
------------------------------------
  Starting TPA DIIS iterations ... 
------------------------------------ 
   It     Res. Norm  Remark
------------------------------------
                       Guess.
    1     7.712e-01  
    2     6.234e-01  
    3     2.498e-01  
    4     2.001e-01  
    5     2.850e-02  
    6     1.160e-02  
    7     2.338e-03  
    8     1.138e-03  
    9     3.410e-04  
   10     4.171e-05  
   11     1.413e-05  
   12     4.991e-06  
   13     4.586e-06  
   14     1.770e-06  
   15     6.994e-07  Converged.
   ... Converged in 15 steps (norm: 6.99399e-07)
------------------------------------
  Starting TPA DIIS iterations ... 
------------------------------------ 
   It     Res. Norm  Remark
------------------------------------
                       Guess.
    1     8.659e+00  
    2     1.432e+01  
    3     2.251e+00  
    4     7.864e-01  
    5     2.191e-01  
    6     9.808e-02  
    7     2.873e-02  
    8     5.919e-03  
    9     2.356e-03  
   10     7.270e-04  
   11     3.725e-04  
   12     1.495e-04  
   13     5.867e-05  
   14     2.371e-05  
   15     5.130e-06  
   16     2.260e-06  
   17     4.260e-07  Converged.
   ... Converged in 17 steps (norm: 4.26011e-07)
------------------------------------
  Starting TPA DIIS iterations ... 
------------------------------------ 
   It     Res. Norm  Remark
------------------------------------
                       Guess.
    1     8.202e+00  
    2     1.356e+01  
    3     2.143e+00  
    4     7.718e-01  
    5     2.183e-01  
    6     9.716e-02  
    7     2.815e-02  
    8     4.891e-03  
    9     1.831e-03  
   10     5.694e-04  
   11     1.919e-04  
   12     1.079e-04  
   13     2.739e-05  
   14     2.305e-05  
   15     3.327e-06  
   16     2.861e-06  
   17     4.805e-07  Converged.
   ... Converged in 17 steps (norm: 4.80494e-07)
------------------------------------
  Starting TPA DIIS iterations ... 
------------------------------------ 
   It     Res. Norm  Remark
------------------------------------
                       Guess.
    1     8.269e-01  
    2     7.344e-01  
    3     3.177e-01  
    4     2.829e-01  
    5     4.039e-02  
    6     1.785e-02  
    7     4.056e-03  
    8     1.659e-03  
    9     5.402e-04  
   10     5.709e-05  
   11     2.576e-05  
   12     8.800e-06  
   13     8.546e-06  
   14     4.026e-06  
   15     2.081e-06  
   16     1.026e-06  
   17     5.056e-07  Converged.
   ... Converged in 17 steps (norm: 5.05629e-07)
------------------------------------
  Starting TPA DIIS iterations ... 
------------------------------------ 
   It     Res. Norm  Remark
------------------------------------
                       Guess.
    1     1.049e+01  
    2     1.843e+01  
    3     2.737e+00  
    4     1.064e+00  
    5     3.004e-01  
    6     1.374e-01  
    7     3.963e-02  
    8     8.504e-03  
    9     3.500e-03  
   10     1.139e-03  
   11     6.366e-04  
   12     2.523e-04  
   13     1.023e-04  
   14     3.875e-05  
   15     8.721e-06  
   16     3.738e-06  
   17     8.035e-07  Converged.
   ... Converged in 17 steps (norm: 8.03479e-07)
------------------------------------
  Starting TPA DIIS iterations ... 
------------------------------------ 
   It     Res. Norm  Remark
------------------------------------
                       Guess.
    1     9.934e+00  
    2     1.745e+01  
    3     2.604e+00  
    4     1.041e+00  
    5     2.995e-01  
    6     1.361e-01  
    7     3.876e-02  
    8     6.689e-03  
    9     2.534e-03  
   10     8.846e-04  
   11     3.165e-04  
   12     1.888e-04  
   13     4.560e-05  
   14     4.164e-05  
   15     5.672e-06  
   16     4.425e-06  
   17     1.030e-06  
   18     7.613e-07  Converged.
   ... Converged in 18 steps (norm: 7.6132e-07)
------------------------------------
  Starting TPA DIIS iterations ... 
------------------------------------ 
   It     Res. Norm  Remark
------------------------------------
                       Guess.
    1     8.663e-01  
    2     8.249e-01  
    3     3.730e-01  
    4     3.392e-01  
    5     5.135e-02  
    6     2.355e-02  
    7     5.800e-03  
    8     1.884e-03  
    9     6.969e-04  
   10     7.985e-05  
   11     3.872e-05  
   12     1.300e-05  
   13     1.249e-05  
   14     6.649e-06  
   15     4.098e-06  
   16     1.957e-06  
   17     1.047e-06  
   18     2.717e-07  Converged.
   ... Converged in 18 steps (norm: 2.71653e-07)
------------------------------------
  Starting TPA DIIS iterations ... 
------------------------------------ 
   It     Res. Norm  Remark
------------------------------------
                       Guess.
    1     1.143e+01  
    2     2.063e+01  
    3     2.981e+00  
    4     1.214e+00  
    5     3.448e-01  
    6     1.592e-01  
    7     4.560e-02  
    8     9.985e-03  
    9     4.171e-03  
   10     1.385e-03  
   11     8.003e-04  
   12     3.156e-04  
   13     1.289e-04  
   14     4.788e-05  
   15     1.091e-05  
   16     4.665e-06  
   17     1.067e-06  
   18     6.226e-07  Converged.
   ... Converged in 18 steps (norm: 6.22568e-07)
------------------------------------
  Starting TPA DIIS iterations ... 
------------------------------------ 
   It     Res. Norm  Remark
------------------------------------
                       Guess.
    1     1.082e+01  
    2     1.954e+01  
    3     2.836e+00  
    4     1.186e+00  
    5     3.438e-01  
    6     1.576e-01  
    7     4.455e-02  
    8     7.666e-03  
    9     2.922e-03  
   10     1.074e-03  
   11     3.975e-04  
   12     2.408e-04  
   13     5.702e-05  
   14     5.333e-05  
   15     7.212e-06  
   16     5.193e-06  
   17     1.461e-06  
   18     1.031e-06  
   19     2.779e-07  Converged.
   ... Converged in 19 steps (norm: 2.77879e-07)
------------------------------------
  Starting TPA DIIS iterations ... 
------------------------------------ 
   It     Res. Norm  Remark
------------------------------------
                       Guess.
    1     8.844e-01  
    2     8.701e-01  
    3     4.002e-01  
    4     3.633e-01  
    5     5.714e-02  
    6     2.642e-02  
    7     6.748e-03  
    8     1.947e-03  
    9     7.735e-04  
   10     9.293e-05  
   11     4.630e-05  
   12     1.560e-05  
   13     1.486e-05  
   14     8.153e-06  
   15     5.413e-06  
   16     2.559e-06  
   17     1.346e-06  
   18     3.408e-07  Converged.
   ... Converged in 18 steps (norm: 3.40752e-07)
------------------------------------
  Starting TPA DIIS iterations ... 
------------------------------------ 
   It     Res. Norm  Remark
------------------------------------
                       Guess.
    1     1.238e+01  
    2     2.293e+01  
    3     3.227e+00  
    4     1.371e+00  
    5     3.916e-01  
    6     1.825e-01  
    7     5.191e-02  
    8     1.159e-02  
    9     4.908e-03  
   10     1.659e-03  
   11     9.861e-04  
   12     3.871e-04  
   13     1.585e-04  
   14     5.814e-05  
   15     1.335e-05  
   16     5.743e-06  
   17     1.392e-06  
   18     8.341e-07  Converged.
   ... Converged in 18 steps (norm: 8.34141e-07)
------------------------------------
  Starting TPA DIIS iterations ... 
------------------------------------ 
   It     Res. Norm  Remark
------------------------------------
                       Guess.
    1     1.173e+01  
    2     2.172e+01  
    3     3.070e+00  
    4     1.338e+00  
    5     3.905e-01  
    6     1.806e-01  
    7     5.065e-02  
    8     8.695e-03  
    9     3.335e-03  
   10     1.287e-03  
   11     4.932e-04  
   12     3.013e-04  
   13     7.036e-05  
   14     6.667e-05  
   15     9.073e-06  
   16     5.934e-06  
   17     2.012e-06  
   18     1.342e-06  
   19     3.691e-07  Converged.
   ... Converged in 19 steps (norm: 3.69139e-07)
------------------------------------
  Starting TPA DIIS iterations ... 
------------------------------------ 
   It     Res. Norm  Remark
------------------------------------
                       Guess.
    1     9.017e-01  
    2     9.155e-01  
    3     4.269e-01  
    4     3.851e-01  
    5     6.313e-02  
    6     2.924e-02  
    7     7.735e-03  
    8     1.995e-03  
    9     8.496e-04  
   10     1.066e-04  
   11     5.461e-05  
   12     1.863e-05  
   13     1.761e-05  
   14     9.792e-06  
   15     6.891e-06  
   16     3.250e-06  
   17     1.652e-06  
   18     4.347e-07  Converged.
   ... Converged in 18 steps (norm: 4.34739e-07)
------------------------------------
  Two-photon absorbption ...  CPU 122.52 s  wall 25.50 s
  Transition density matrix of state singlet_A_1 printed to ASCII file 'State_singlet_A_1_Transition.txt'
  Transition density matrix of state singlet_A_2 printed to ASCII file 'State_singlet_A_2_Transition.txt'
  Transition density matrix of state singlet_A_3 printed to ASCII file 'State_singlet_A_3_Transition.txt'
  Transition density matrix of state singlet_A_4 printed to ASCII file 'State_singlet_A_4_Transition.txt'
  Transition density matrix of state singlet_A_5 printed to ASCII file 'State_singlet_A_5_Transition.txt'
  Transition density matrix of state singlet_A_6 printed to ASCII file 'State_singlet_A_6_Transition.txt'
  Transition density matrix of state singlet_A_7 printed to ASCII file 'State_singlet_A_7_Transition.txt'
  Transition density matrix of state singlet_A_8 printed to ASCII file 'State_singlet_A_8_Transition.txt'
  Transition density matrix of state singlet_A_9 printed to ASCII file 'State_singlet_A_9_Transition.txt'
  Transition density matrix of state singlet_A_10 printed to ASCII file 'State_singlet_A_10_Transition.txt'
  Transition properties ...  CPU 0.18 s  wall 1.06 s
  Difference density matrix of state singlet_A_1 printed to ASCII file 'State_singlet_A_1_Difference.txt'
  Total density matrix of state singlet_A_1 printed to ASCII file 'State_singlet_A_1_Total.txt'
  Difference density matrix of state singlet_A_2 printed to ASCII file 'State_singlet_A_2_Difference.txt'
  Total density matrix of state singlet_A_2 printed to ASCII file 'State_singlet_A_2_Total.txt'
  Difference density matrix of state singlet_A_3 printed to ASCII file 'State_singlet_A_3_Difference.txt'
  Total density matrix of state singlet_A_3 printed to ASCII file 'State_singlet_A_3_Total.txt'
  Difference density matrix of state singlet_A_4 printed to ASCII file 'State_singlet_A_4_Difference.txt'
  Total density matrix of state singlet_A_4 printed to ASCII file 'State_singlet_A_4_Total.txt'
  Difference density matrix of state singlet_A_5 printed to ASCII file 'State_singlet_A_5_Difference.txt'
  Total density matrix of state singlet_A_5 printed to ASCII file 'State_singlet_A_5_Total.txt'
  Difference density matrix of state singlet_A_6 printed to ASCII file 'State_singlet_A_6_Difference.txt'
  Total density matrix of state singlet_A_6 printed to ASCII file 'State_singlet_A_6_Total.txt'
  Difference density matrix of state singlet_A_7 printed to ASCII file 'State_singlet_A_7_Difference.txt'
  Total density matrix of state singlet_A_7 printed to ASCII file 'State_singlet_A_7_Total.txt'
  Difference density matrix of state singlet_A_8 printed to ASCII file 'State_singlet_A_8_Difference.txt'
  Total density matrix of state singlet_A_8 printed to ASCII file 'State_singlet_A_8_Total.txt'
  Difference density matrix of state singlet_A_9 printed to ASCII file 'State_singlet_A_9_Difference.txt'
  Total density matrix of state singlet_A_9 printed to ASCII file 'State_singlet_A_9_Total.txt'
  Difference density matrix of state singlet_A_10 printed to ASCII file 'State_singlet_A_10_Difference.txt'
  Total density matrix of state singlet_A_10 printed to ASCII file 'State_singlet_A_10_Total.txt'
  Properties ...  CPU 0.36 s  wall 1.95 s
  ISR TDMS ...  CPU 15.95 s  wall 4.39 s
  ISR transition properties ...  CPU 0.23 s  wall 0.10 s
  Sum-over-states TPA ...  CPU 0.00 s  wall 0.00 s

--------------------------------------------------------------------------------
                   State-averaged natural transition orbitals
--------------------------------------------------------------------------------
--------------------------------------------------------------------------------
  SA-NTO decomposition ...  CPU 0.01 s  wall 0.07 s

--------------------------------------------------------------------------------
                             Excited State Summary
--------------------------------------------------------------------------------
--------------------------------------------------------------------------------

  Excited state 1 (singlet, A)                                     [converged]
  ----------------------------------------------------------------------------
  Term symbol:  2 (1) A                                     R^2 =  1.63790e-13

  Total energy:                                            -77.9988772984 a.u.
  Excitation energy:                                               8.727534 eV

  Osc. strength:                                                      0.434599
  Trans. dip. moment [a.u.]:           [  -1.032993,    0.982514,    0.011378]
  <i|r^2|0> [a.u.]:                    [  -6.078523,    0.258325,   -0.023897]
  Two-photon absorption cross-section (SoS) [a.u.]:                   0.001781
  Two-photon absorption matrix (SoS) [a.u.]:
                                       |   -0.010661    0.005554    0.008086 |
                                       |    0.005554    0.006447   -0.003632 |
                                       |    0.008086   -0.003632   -0.005186 |
  Two-photon absorption cross-section [a.u.]:                         0.096824
  Two-photon absorption matrix [a.u.]:
                                       |   -0.016216   -0.003785    0.090423 |
                                       |   -0.003785    0.010809    0.060282 |
                                       |    0.090423    0.060282    0.012373 |

  Dip. moment [a.u.]:                  [  -0.003470,   -0.000130,    0.013947]
  Total dipole [Debye]:                                               0.036532
  <r^2> [a.u.]:                        [ 176.065305,   35.614272,   11.919770]
  Total <r^2> [a.u.]:                                               223.599347

  V1^2 = 0.9711, V2^2 = 0.0289

  Important amplitudes:
      occ i     occ j     vir a      vir b          v   
    -----------------------------------------------------
     8 (A) A              9 (A) A                -0.6755
     7 (A) A              9 (A) A                -0.0876
     6 (A) A             14 (A) A                -0.0616
     4 (A) A             10 (A) A                 0.0600
     7 (A) A             16 (A) A                -0.0562
     5 (A) A             13 (A) A                 0.0507
     6 (A) A             23 (A) A                -0.0481
     8 (A) A             20 (A) A                -0.0347
     6 (A) A             19 (A) A                -0.0304
     3 (A) A             12 (A) A                -0.0278
     5 (A) A             22 (A) A                 0.0213
     7 (A) A             11 (A) A                -0.0212
     4 (A) A             24 (A) A                 0.0186
     3 (A) A             26 (A) A                -0.0183
     8 (A) A   8 (A) B   17 (A) A   20 (A) B      0.0182
     6 (A) A             26 (A) A                 0.0161
     8 (A) A   8 (A) B    9 (A) A   28 (A) B     -0.0153
     7 (A) A             21 (A) A                -0.0148
     3 (A) A             14 (A) A                 0.0138
     6 (A) A             12 (A) A                -0.0131
     3 (A) A   4 (A) B    9 (A) A    9 (A) B     -0.0128
     3 (A) A             19 (A) A                 0.0118
     8 (A) A   8 (A) B   18 (A) A   19 (A) B     -0.0112
     7 (A) A             20 (A) A                -0.0101
     7 (A) A             32 (A) A                -0.0094
     7 (A) A             36 (A) A                -0.0084
     3 (A) A             23 (A) A                 0.0080
     8 (A) A   8 (A) B   25 (A) A   29 (A) B      0.0073
     6 (A) A             35 (A) A                -0.0071
     6 (A) A             40 (A) A                -0.0067
     8 (A) A   8 (A) B    9 (A) A   27 (A) B     -0.0065
     3 (A) A   6 (A) B    9 (A) A   28 (A) B      0.0060
     5 (A) A   8 (A) B   11 (A) A   20 (A) B      0.0059
     7 (A) A   8 (A) B   13 (A) A   20 (A) B     -0.0059
     5 (A) A   8 (A) B   16 (A) A    9 (A) B      0.0058
     5 (A) A   7 (A) B    9 (A) A    9 (A) B      0.0058
     5 (A) A   8 (A) B   11 (A) A    9 (A) B     -0.0058
     5 (A) A             27 (A) A                -0.0057
     3 (A) A   5 (A) B    9 (A) A   25 (A) B      0.0057
     6 (A) A              9 (A) A                 0.0057
    -----------------------------------------------------

  Density matrix analysis:
  ------------------------
  NOs
    Occupation of frontier NOs:
       0.9507   1.0211
    Number of electrons: 16.000000
    Number of unpaired electrons: n_u =  2.31437, n_u,nl =  2.03275
    NO participation ratio (PR_NO):  2.861219
  
  
  Mulliken Population Analysis
  Atom      Charge (e)              h+              e-           Del q
  --------------------------------------------------------------------
   1 H        0.061470        0.022240       -0.012589        0.009651
   2 C       -0.121578        0.485665       -0.505032       -0.019366
   3 H        0.060374        0.022428       -0.012761        0.009666
   4 C       -0.120888        0.485427       -0.505261       -0.019834
   5 H        0.059701        0.021998       -0.012462        0.009537
   6 H        0.060920        0.022768       -0.012422        0.010346
  --------------------------------------------------------------------
  Sum:       -0.000000        1.060526       -1.060526        0.000000
  
  Multipole moment analysis of the density matrix
    Molecular charge:                      -0.000000
    Number of electrons:                   16.000000
      Center of electronic charge [Ang]: [ -1.560461,  -0.065598,   0.004017]
    Total nuclear charge:                  16.000000
      Center of nuclear charge [Ang]:    [ -1.560576,  -0.065602,   0.004478]
    Dipole moment [D]:                     0.036532
      Cartesian components [D]:          [ -0.008820,  -0.000331,   0.035450]
    RMS size of the density [Ang]:         1.214095
      Cartesian components [Ang]:        [  0.804000,   0.786772,   0.456729]
  
  Exciton analysis of the difference density matrix
    <r_h> [Ang]:                  [ -1.560311,  -0.065974,  -0.001510]
    <r_e> [Ang]:                  [ -1.559668,  -0.065819,  -0.002864]
    |<r_e - r_h>| [Ang]:            0.001506
    Hole size [Ang]:                1.290209
      Cartesian components [Ang]: [  0.736931,   0.718843,   0.777712]
    Electron size [Ang]:            1.463071
      Cartesian components [Ang]: [  0.854300,   0.830490,   0.849138]

  Transition density matrix analysis:
  -----------------------------------
  
  CT numbers (Mulliken)
    omega =     0.9528
    <Phe> =    -0.1580
  
  Exciton analysis of the transition density matrix
    Trans. dipole moment [D]:             1.811847
      Cartesian components [D]:         [ -1.312803,   1.248651,   0.014460]
    <r_h> [Ang]:                        [ -1.560208,  -0.065994,  -0.000517]
    <r_e> [Ang]:                        [ -1.559468,  -0.065609,  -0.003762]
    |<r_e - r_h>| [Ang]:                  0.003350
    Hole size [Ang]:                      1.221451
      Cartesian components [Ang]:       [  0.662120,   0.645819,   0.797782]
    Electron size [Ang]:                  1.485046
      Cartesian components [Ang]:       [  0.864454,   0.838849,   0.868569]
    RMS electron-hole separation [Ang]:   1.939874
      Cartesian components [Ang]:       [  1.113509,   1.079403,   1.165375]
    Covariance(r_h, r_e) [Ang^2]:        -0.032900
    Correlation coefficient:             -0.018137
    Center-of-mass size [Ang]:            0.952825
      Cartesian components [Ang]:       [  0.531852,   0.518746,   0.596583]

  Decomposition into state-averaged NTOs
    H- 0 -> L+ 0:  0.6647 ( 88.4%)
    H- 1 -> L+ 0: -0.0841 (  1.4%)
    H- 2 -> L+ 5:  0.0827 (  1.4%)
                   omega =  95.3%
  ----------------------------------------------------------------------------


  Excited state 2 (singlet, A)                                     [converged]
  ----------------------------------------------------------------------------
  Term symbol:  3 (1) A                                     R^2 =  5.61952e-14

  Total energy:                                            -77.9868115743 a.u.
  Excitation energy:                                               9.055859 eV

  Osc. strength:                                                      0.009535
  Trans. dip. moment [a.u.]:           [   0.155306,   -0.137272,    0.003703]
  <i|r^2|0> [a.u.]:                    [   0.973956,    0.077164,   -0.170037]
  Two-photon absorption cross-section (SoS) [a.u.]:                   5.087563
  Two-photon absorption matrix (SoS) [a.u.]:
                                       |    0.033138    0.066436   -0.557883 |
                                       |    0.066436    0.097824   -0.552739 |
                                       |   -0.557883   -0.552739   -0.137364 |
  Two-photon absorption cross-section [a.u.]:                         0.120899
  Two-photon absorption matrix [a.u.]:
                                       |   -0.099357   -0.011986    0.041505 |
                                       |   -0.011986    0.082185    0.069506 |
                                       |    0.041505    0.069506    0.014115 |

  Dip. moment [a.u.]:                  [  -0.014554,   -0.003711,    0.024438]
  Total dipole [Debye]:                                               0.072910
  <r^2> [a.u.]:                        [ 174.523483,   34.023290,   13.154058]
  Total <r^2> [a.u.]:                                               221.700830

  V1^2 = 0.9545, V2^2 = 0.0455

  Important amplitudes:
      occ i     occ j     vir a      vir b          v   
    -----------------------------------------------------
     7 (A) A              9 (A) A                -0.6630
     8 (A) A             11 (A) A                -0.1505
     8 (A) A              9 (A) A                 0.0854
     7 (A) A             20 (A) A                -0.0751
     5 (A) A   8 (A) B    9 (A) A    9 (A) B      0.0312
     8 (A) A             16 (A) A                 0.0278
     8 (A) A             21 (A) A                -0.0179
     5 (A) A             28 (A) A                -0.0140
     4 (A) A   7 (A) B    9 (A) A   19 (A) B      0.0134
     5 (A) A   7 (A) B    9 (A) A   16 (A) B     -0.0132
     7 (A) A   8 (A) B   20 (A) A   17 (A) B      0.0104
     5 (A) A   8 (A) B    9 (A) A   20 (A) B      0.0095
     8 (A) A             10 (A) A                -0.0092
     4 (A) A   6 (A) B    9 (A) A   16 (A) B      0.0090
     6 (A) A             14 (A) A                 0.0090
     5 (A) A   6 (A) A    9 (A) A   23 (A) A     -0.0090
     7 (A) A   8 (A) A    9 (A) A   28 (A) A      0.0088
     5 (A) A   6 (A) A    9 (A) A   14 (A) A     -0.0088
     4 (A) A             10 (A) A                -0.0086
     5 (A) A   6 (A) B    9 (A) A   19 (A) B     -0.0086
     4 (A) A   5 (A) A    9 (A) A   10 (A) A     -0.0084
     6 (A) A   7 (A) B    9 (A) A   18 (A) B     -0.0082
     5 (A) A   6 (A) B    9 (A) A   23 (A) B     -0.0079
     3 (A) A   7 (A) B    9 (A) A   18 (A) B     -0.0079
     7 (A) A             16 (A) A                 0.0079
     5 (A) A   7 (A) A    9 (A) A   16 (A) A     -0.0078
     8 (A) A   7 (A) B    9 (A) A   28 (A) B     -0.0077
     4 (A) A   8 (A) B    9 (A) A   25 (A) B     -0.0076
     5 (A) A             13 (A) A                -0.0075
     7 (A) A   8 (A) B   17 (A) A   20 (A) B      0.0074
     4 (A) A   7 (A) B   19 (A) A    9 (A) B      0.0073
     5 (A) A   5 (A) B    9 (A) A   13 (A) B      0.0071
     7 (A) A   8 (A) B   19 (A) A   18 (A) B     -0.0071
     5 (A) A   8 (A) A    9 (A) A   20 (A) A      0.0068
     6 (A) A             23 (A) A                 0.0068
     4 (A) A   5 (A) B    9 (A) A   18 (A) B      0.0067
     7 (A) A   7 (A) B   20 (A) A   22 (A) B     -0.0065
     7 (A) A   8 (A) B   17 (A) A    9 (A) B      0.0064
     5 (A) A   6 (A) B    9 (A) A   14 (A) B     -0.0062
     4 (A) A   7 (A) A    9 (A) A   19 (A) A      0.0061
    -----------------------------------------------------

  Density matrix analysis:
  ------------------------
  NOs
    Occupation of frontier NOs:
       0.9558   1.0546
    Number of electrons: 16.000000
    Number of unpaired electrons: n_u =  2.35464, n_u,nl =  2.06309
    NO participation ratio (PR_NO):  3.034950
  
  
  Mulliken Population Analysis
  Atom      Charge (e)              h+              e-           Del q
  --------------------------------------------------------------------
   1 H        0.145618        0.120818       -0.027019        0.093799
   2 C       -0.297566        0.274418       -0.469772       -0.195354
   3 H        0.151351        0.123424       -0.022782        0.100643
   4 C       -0.296830        0.275874       -0.471651       -0.195777
   5 H        0.149481        0.125486       -0.026169        0.099317
   6 H        0.147947        0.120490       -0.023118        0.097372
  --------------------------------------------------------------------
  Sum:       -0.000000        1.040511       -1.040511       -0.000000
  
  Multipole moment analysis of the density matrix
    Molecular charge:                      -0.000000
    Number of electrons:                   16.000000
      Center of electronic charge [Ang]: [ -1.560095,  -0.065480,   0.003670]
    Total nuclear charge:                  16.000000
      Center of nuclear charge [Ang]:    [ -1.560576,  -0.065602,   0.004478]
    Dipole moment [D]:                     0.072910
      Cartesian components [D]:          [ -0.036992,  -0.009431,   0.062116]
    RMS size of the density [Ang]:         1.200817
      Cartesian components [Ang]:        [  0.787766,   0.768883,   0.479798]
  
  Exciton analysis of the difference density matrix
    <r_h> [Ang]:                  [ -1.561682,  -0.061834,   0.005769]
    <r_e> [Ang]:                  [ -1.555389,  -0.059856,  -0.000946]
    |<r_e - r_h>| [Ang]:            0.009413
    Hole size [Ang]:                1.482941
      Cartesian components [Ang]: [  0.995429,   0.995318,   0.466449]
    Electron size [Ang]:            1.480235
      Cartesian components [Ang]: [  0.885357,   0.859657,   0.817452]

  Transition density matrix analysis:
  -----------------------------------
  
  CT numbers (Mulliken)
    omega =     0.9223
    <Phe> =    -0.0147
  
  Exciton analysis of the transition density matrix
    Trans. dipole moment [D]:             0.263464
      Cartesian components [D]:         [  0.197374,  -0.174455,   0.004707]
    <r_h> [Ang]:                        [ -1.562477,  -0.061704,   0.007467]
    <r_e> [Ang]:                        [ -1.554559,  -0.059747,  -0.002566]
    |<r_e - r_h>| [Ang]:                  0.012931
    Hole size [Ang]:                      1.508962
      Cartesian components [Ang]:       [  1.015975,   1.017598,   0.457444]
    Electron size [Ang]:                  1.477763
      Cartesian components [Ang]:       [  0.876975,   0.849746,   0.832244]
    RMS electron-hole separation [Ang]:   2.092908
      Cartesian components [Ang]:       [  1.326831,   1.311476,   0.948584]
    Covariance(r_h, r_e) [Ang^2]:         0.040327
    Correlation coefficient:              0.018085
    Center-of-mass size [Ang]:            1.065528
      Cartesian components [Ang]:       [  0.678631,   0.669922,   0.475410]

  Decomposition into state-averaged NTOs
    H- 1 -> L+ 0: -0.6558 ( 86.0%)
    H- 0 -> L+ 2: -0.1510 (  4.6%)
    H- 0 -> L+ 0: -0.0804 (  1.3%)
                   omega =  92.2%
  ----------------------------------------------------------------------------


  Excited state 3 (singlet, A)                                     [converged]
  ----------------------------------------------------------------------------
  Term symbol:  4 (1) A                                     R^2 =  1.13697e-13

  Total energy:                                            -77.9827711247 a.u.
  Excitation energy:                                               9.165805 eV

  Osc. strength:                                                      0.025178
  Trans. dip. moment [a.u.]:           [   0.037971,    0.003888,   -0.332665]
  <i|r^2|0> [a.u.]:                    [   0.135509,    0.074549,    0.007842]
  Two-photon absorption cross-section (SoS) [a.u.]:                   2.395834
  Two-photon absorption matrix (SoS) [a.u.]:
                                       |   -0.518764   -0.024336   -0.048515 |
                                       |   -0.024336    0.550971    0.019911 |
                                       |   -0.048515    0.019911    0.102528 |
  Two-photon absorption cross-section [a.u.]:                         1.313136
  Two-photon absorption matrix [a.u.]:
                                       |   -0.334718   -0.033011   -0.033583 |
                                       |   -0.033011    0.438361    0.025963 |
                                       |   -0.033583    0.025963    0.064527 |

  Dip. moment [a.u.]:                  [  -0.011261,    0.015704,   -0.015038]
  Total dipole [Debye]:                                               0.062237
  <r^2> [a.u.]:                        [ 180.792589,   40.592282,   11.064375]
  Total <r^2> [a.u.]:                                               232.449245

  V1^2 = 0.9587, V2^2 = 0.0413

  Important amplitudes:
      occ i     occ j     vir a      vir b          v   
    -----------------------------------------------------
     8 (A) A             10 (A) A                 0.6890
     8 (A) A             24 (A) A                 0.0507
     8 (A) A             18 (A) A                -0.0314
     4 (A) A              9 (A) A                -0.0238
     8 (A) A   8 (A) B    9 (A) A   12 (A) B      0.0219
     8 (A) A   8 (A) B   10 (A) A   17 (A) B      0.0173
     8 (A) A             15 (A) A                 0.0169
     5 (A) A   8 (A) B   11 (A) A   10 (A) B      0.0165
     7 (A) A   8 (A) B   13 (A) A   10 (A) B     -0.0141
     4 (A) A   8 (A) B   12 (A) A   10 (A) B     -0.0111
     6 (A) A   8 (A) A   10 (A) A   15 (A) A      0.0110
     7 (A) A   8 (A) B   22 (A) A   10 (A) B     -0.0108
     6 (A) A   8 (A) B   15 (A) A   10 (A) B     -0.0107
     4 (A) A   8 (A) A   10 (A) A   12 (A) A      0.0106
     7 (A) A   8 (A) A   10 (A) A   22 (A) A      0.0099
     7 (A) A   8 (A) A   10 (A) A   13 (A) A      0.0097
     5 (A) A   8 (A) B   21 (A) A   10 (A) B      0.0094
     5 (A) A   8 (A) A   10 (A) A   11 (A) A     -0.0094
     6 (A) A   8 (A) A   10 (A) A   18 (A) A      0.0088
     6 (A) A   8 (A) B   10 (A) A   10 (A) B      0.0087
     7 (A) A              9 (A) A                -0.0085
     7 (A) A   8 (A) A   12 (A) A   16 (A) A      0.0082
     5 (A) A   8 (A) A   10 (A) A   21 (A) A     -0.0079
     3 (A) A   4 (A) B   10 (A) A    9 (A) B      0.0079
     4 (A) A   8 (A) B   19 (A) A   10 (A) B      0.0075
     8 (A) A   8 (A) B    9 (A) A   23 (A) B      0.0075
     3 (A) A   8 (A) B   10 (A) A   10 (A) B      0.0072
     5 (A) A   8 (A) B   10 (A) A   11 (A) B      0.0071
     3 (A) A   8 (A) A   10 (A) A   24 (A) A     -0.0071
     7 (A) A   8 (A) B   16 (A) A   12 (A) B     -0.0070
     3 (A) A   8 (A) B   10 (A) A   18 (A) B     -0.0069
     8 (A) A   8 (A) B    9 (A) A   19 (A) B     -0.0068
     8 (A) A   8 (A) B   10 (A) A   28 (A) B      0.0067
     6 (A) A   8 (A) B   18 (A) A   10 (A) B     -0.0067
     7 (A) A   8 (A) B   12 (A) A   11 (A) B      0.0058
     3 (A) A   6 (A) B   10 (A) A   28 (A) B     -0.0058
     8 (A) A              9 (A) A                 0.0057
     5 (A) A   8 (A) A   10 (A) A   16 (A) A      0.0056
     3 (A) A   5 (A) B   10 (A) A   25 (A) B     -0.0056
     3 (A) A   8 (A) A   10 (A) A   18 (A) A     -0.0055
    -----------------------------------------------------

  Density matrix analysis:
  ------------------------
  NOs
    Occupation of frontier NOs:
       0.9815   0.9849
    Number of electrons: 16.000000
    Number of unpaired electrons: n_u =  2.28578, n_u,nl =  2.02451
    NO participation ratio (PR_NO):  2.693176
  
  
  Mulliken Population Analysis
  Atom      Charge (e)              h+              e-           Del q
  --------------------------------------------------------------------
   1 H       -0.163107        0.053803       -0.268729       -0.214926
   2 C        0.325643        0.539318       -0.111463        0.427855
   3 H       -0.165861        0.053916       -0.270486       -0.216569
   4 C        0.325479        0.536525       -0.109992        0.426532
   5 H       -0.161166        0.053831       -0.265160       -0.211330
   6 H       -0.160988        0.054140       -0.265702       -0.211562
  --------------------------------------------------------------------
  Sum:       -0.000000        1.291533       -1.291533       -0.000000
  
  Multipole moment analysis of the density matrix
    Molecular charge:                      -0.000000
    Number of electrons:                   16.000000
      Center of electronic charge [Ang]: [ -1.560204,  -0.066122,   0.004976]
    Total nuclear charge:                  16.000000
      Center of nuclear charge [Ang]:    [ -1.560576,  -0.065602,   0.004478]
    Dipole moment [D]:                     0.062237
      Cartesian components [D]:          [ -0.028622,   0.039915,  -0.038224]
    RMS size of the density [Ang]:         1.276575
      Cartesian components [Ang]:        [  0.854375,   0.840277,   0.440024]
  
  Exciton analysis of the difference density matrix
    <r_h> [Ang]:                  [ -1.559452,  -0.066650,   0.000954]
    <r_e> [Ang]:                  [ -1.555732,  -0.073011,   0.011719]
    |<r_e - r_h>| [Ang]:            0.013046
    Hole size [Ang]:                1.410399
      Cartesian components [Ang]: [  0.834614,   0.819772,   0.787795]
    Electron size [Ang]:            2.075516
      Cartesian components [Ang]: [  1.372895,   1.375677,   0.728313]

  Transition density matrix analysis:
  -----------------------------------
  
  CT numbers (Mulliken)
    omega =     0.9259
    <Phe> =    -0.0109
  
  Exciton analysis of the transition density matrix
    Trans. dipole moment [D]:             0.425548
      Cartesian components [D]:         [  0.048256,   0.004941,  -0.422775]
    <r_h> [Ang]:                        [ -1.559866,  -0.066226,  -0.002160]
    <r_e> [Ang]:                        [ -1.554220,  -0.075742,   0.014536]
    |<r_e - r_h>| [Ang]:                  0.020030
    Hole size [Ang]:                      1.213201
      Cartesian components [Ang]:       [  0.637722,   0.623705,   0.822289]
    Electron size [Ang]:                  2.295581
      Cartesian components [Ang]:       [  1.517379,   1.522800,   0.805192]
    RMS electron-hole separation [Ang]:   2.586575
      Cartesian components [Ang]:       [  1.638398,   1.638606,   1.149344]
    Covariance(r_h, r_e) [Ang^2]:         0.025791
    Correlation coefficient:              0.009261
    Center-of-mass size [Ang]:            1.303182
      Cartesian components [Ang]:       [  0.826732,   0.826275,   0.576254]

  Decomposition into state-averaged NTOs
    H- 0 -> L+ 1: -0.6796 ( 92.4%)
                   omega =  92.6%
  ----------------------------------------------------------------------------


  Excited state 4 (singlet, A)                                     [converged]
  ----------------------------------------------------------------------------
  Term symbol:  5 (1) A                                     R^2 =  1.17632e-13

  Total energy:                                            -77.9584132830 a.u.
  Excitation energy:                                               9.828616 eV

  Osc. strength:                                                      0.001665
  Trans. dip. moment [a.u.]:           [   0.061170,   -0.056306,    0.001384]
  <i|r^2|0> [a.u.]:                    [   0.342358,   -0.036741,    0.041142]
  Two-photon absorption cross-section (SoS) [a.u.]:                 148.352602
  Two-photon absorption matrix (SoS) [a.u.]:
                                       |   -0.226059   -0.367590    3.010453 |
                                       |   -0.367590   -0.506116    2.986593 |
                                       |    3.010453    2.986593    0.738582 |
  Two-photon absorption cross-section [a.u.]:                        91.307039
  Two-photon absorption matrix [a.u.]:
                                       |   -0.104905   -0.283156    2.363711 |
                                       |   -0.283156   -0.466687    2.337548 |
                                       |    2.363711    2.337548    0.578834 |

  Dip. moment [a.u.]:                  [   0.002458,    0.016576,   -0.016018]
  Total dipole [Debye]:                                               0.058922
  <r^2> [a.u.]:                        [ 181.393090,   40.421456,   10.804842]
  Total <r^2> [a.u.]:                                               232.619387

  V1^2 = 0.9635, V2^2 = 0.0365

  Important amplitudes:
      occ i     occ j     vir a      vir b          v   
    -----------------------------------------------------
     8 (A) A             11 (A) A                 0.6691
     7 (A) A              9 (A) A                -0.1519
     8 (A) A             21 (A) A                 0.0780
     8 (A) A             16 (A) A                -0.0644
     8 (A) A   8 (A) B    9 (A) A   13 (A) B     -0.0166
     5 (A) A   8 (A) B   11 (A) A   11 (A) B      0.0155
     8 (A) A             12 (A) A                 0.0147
     8 (A) A              9 (A) A                 0.0144
     8 (A) A   8 (A) B   11 (A) A   17 (A) B      0.0140
     7 (A) A             20 (A) A                -0.0139
     7 (A) A   8 (A) B   13 (A) A   11 (A) B     -0.0127
     5 (A) A   8 (A) A   11 (A) A   21 (A) A     -0.0110
     4 (A) A   8 (A) B   12 (A) A   11 (A) B     -0.0110
     8 (A) A   8 (A) B    9 (A) A   22 (A) B     -0.0107
     7 (A) A   8 (A) A   11 (A) A   22 (A) A      0.0096
     6 (A) A              9 (A) A                -0.0093
     6 (A) A   8 (A) B   15 (A) A   11 (A) B     -0.0090
     6 (A) A   8 (A) B   10 (A) A   11 (A) B      0.0090
     7 (A) A   8 (A) B   22 (A) A   11 (A) B     -0.0089
     3 (A) A   4 (A) B   11 (A) A    9 (A) B      0.0083
     3 (A) A   8 (A) B   11 (A) A   18 (A) B     -0.0081
     6 (A) A   8 (A) A   11 (A) A   15 (A) A      0.0080
     7 (A) A   8 (A) A   13 (A) A   16 (A) A     -0.0078
     7 (A) A   8 (A) A   11 (A) A   13 (A) A      0.0077
     5 (A) A   8 (A) B   21 (A) A   11 (A) B      0.0071
     4 (A) A   8 (A) B   19 (A) A   11 (A) B      0.0070
     5 (A) A   8 (A) B    9 (A) A    9 (A) B      0.0068
     4 (A) A   8 (A) A   11 (A) A   12 (A) A      0.0062
     6 (A) A   8 (A) A   11 (A) A   18 (A) A      0.0062
     6 (A) A   8 (A) B   18 (A) A   11 (A) B     -0.0060
     7 (A) A   8 (A) B   16 (A) A   13 (A) B      0.0057
     3 (A) A   8 (A) A   11 (A) A   18 (A) A     -0.0056
     5 (A) A   8 (A) B   10 (A) A   10 (A) B      0.0056
     3 (A) A   6 (A) B   11 (A) A   28 (A) B     -0.0056
     3 (A) A   8 (A) B   11 (A) A   30 (A) B     -0.0055
     3 (A) A   5 (A) B   11 (A) A   25 (A) B     -0.0054
     6 (A) A   8 (A) B   11 (A) A   10 (A) B      0.0054
     7 (A) A   8 (A) B   12 (A) A   10 (A) B      0.0054
     8 (A) A   8 (A) B   20 (A) A   22 (A) B     -0.0053
     3 (A) A   8 (A) A   11 (A) A   24 (A) A     -0.0053
    -----------------------------------------------------

  Density matrix analysis:
  ------------------------
  NOs
    Occupation of frontier NOs:
       0.9396   1.0289
    Number of electrons: 16.000000
    Number of unpaired electrons: n_u =  2.31943, n_u,nl =  2.04989
    NO participation ratio (PR_NO):  2.921540
  
  
  Mulliken Population Analysis
  Atom      Charge (e)              h+              e-           Del q
  --------------------------------------------------------------------
   1 H       -0.145580        0.045783       -0.243182       -0.197399
   2 C        0.272013        0.496770       -0.122545        0.374225
   3 H       -0.127971        0.047139       -0.225817       -0.178679
   4 C        0.272004        0.495850       -0.122793        0.373057
   5 H       -0.122670        0.047232       -0.220066       -0.172834
   6 H       -0.147796        0.045903       -0.244273       -0.198371
  --------------------------------------------------------------------
  Sum:        0.000000        1.178676       -1.178676        0.000000
  
  Multipole moment analysis of the density matrix
    Molecular charge:                      0.000000
    Number of electrons:                   16.000000
      Center of electronic charge [Ang]: [ -1.560658,  -0.066151,   0.005008]
    Total nuclear charge:                  16.000000
      Center of nuclear charge [Ang]:    [ -1.560576,  -0.065602,   0.004478]
    Dipole moment [D]:                     0.058922
      Cartesian components [D]:          [  0.006249,   0.042132,  -0.040714]
    RMS size of the density [Ang]:         1.277185
      Cartesian components [Ang]:        [  0.859680,   0.838494,   0.434832]
  
  Exciton analysis of the difference density matrix
    <r_h> [Ang]:                  [ -1.560132,  -0.065993,   0.000427]
    <r_e> [Ang]:                  [ -1.562215,  -0.073354,   0.012662]
    |<r_e - r_h>| [Ang]:            0.014430
    Hole size [Ang]:                1.395251
      Cartesian components [Ang]: [  0.819226,   0.807040,   0.790113]
    Electron size [Ang]:            2.123304
      Cartesian components [Ang]: [  1.447975,   1.395706,   0.681023]

  Transition density matrix analysis:
  -----------------------------------
  
  CT numbers (Mulliken)
    omega =     0.9298
    <Phe> =    -0.0138
  
  Exciton analysis of the transition density matrix
    Trans. dipole moment [D]:             0.105674
      Cartesian components [D]:         [  0.077739,  -0.071558,   0.001759]
    <r_h> [Ang]:                        [ -1.559992,  -0.065390,  -0.001709]
    <r_e> [Ang]:                        [ -1.562582,  -0.074771,   0.014409]
    |<r_e - r_h>| [Ang]:                  0.018829
    Hole size [Ang]:                      1.228456
      Cartesian components [Ang]:       [  0.658975,   0.651228,   0.806695]
    Electron size [Ang]:                  2.260494
      Cartesian components [Ang]:       [  1.542530,   1.485686,   0.723306]
    RMS electron-hole separation [Ang]:   2.561985
      Cartesian components [Ang]:       [  1.668649,   1.614378,   1.083126]
    Covariance(r_h, r_e) [Ang^2]:         0.027763
    Correlation coefficient:              0.009998
    Center-of-mass size [Ang]:            1.291749
      Cartesian components [Ang]:       [  0.843047,   0.814953,   0.541977]

  Decomposition into state-averaged NTOs
    H- 0 -> L+ 2:  0.6642 ( 88.2%)
    H- 1 -> L+ 0: -0.1499 (  4.5%)
                   omega =  93.0%
  ----------------------------------------------------------------------------


  Excited state 5 (singlet, A)                                     [converged]
  ----------------------------------------------------------------------------
  Term symbol:  6 (1) A                                     R^2 =  3.24228e-13

  Total energy:                                            -77.9445082528 a.u.
  Excitation energy:                                              10.206991 eV

  Osc. strength:                                                      0.000032
  Trans. dip. moment [a.u.]:           [  -0.005847,   -0.009654,   -0.001465]
  <i|r^2|0> [a.u.]:                    [   0.069878,   -0.115822,    0.001993]
  Two-photon absorption cross-section (SoS) [a.u.]:                 176.071344
  Two-photon absorption matrix (SoS) [a.u.]:
[...]
    16   -2.716076835535e-03
    17   -1.726041520568e-03
    18    8.146248324683e-05
    19   -3.283643831676e-03
    20    1.098450867849e-02
    21    9.333147906818e-01
    22   -3.344367287410e-04
    23    1.398497144861e-02
    24    7.148536254379e-04
    25    7.005006513219e-02
    26   -5.207518330717e-02
    27   -1.395100794358e+00
    28    9.728107574303e-02
    29   -9.321702868318e-02
    30    1.947107197020e-03
    31    3.823578572851e-01
    32   -3.647154554120e-01
    33    7.981194751481e-03
    34    1.561923622435e-02
    35   -1.594046469009e-03
    36   -1.391538447641e-03
    37   -6.267415593606e-05
    38   -3.092619578683e-03
    39    1.013139621691e-02
    40    9.333394091384e-01
    41    2.317406455688e-04
    42   -1.394623543586e-02
    43   -6.382741657102e-04
    44    9.728361616448e-03
    45    9.340739855518e-01
    46    1.404710812747e-02
    47    3.326878256502e-04
    48    7.514319080854e-04
Sym=X
Ene= 0.232821
Spin=Alpha
Occup=0
     1    2.667972719741e-02
     2    1.240553797269e+00
     3   -1.432174115361e-02
     4   -3.852732680299e-03
     5   -1.515675106458e-03
     6    3.906891845887e-03
     7   -4.312126317391e-03
     8   -5.973549009646e-02
     9   -1.550651922243e-01
    10   -1.578546403619e-01
    11   -2.475524488404e-02
    12   -5.552611204300e-01
    13   -5.558139067890e-01
    14   -9.088961988486e-02
    15    5.552637622634e-04
    16   -8.680361391643e-04
    17   -3.382793436282e-04
    18   -1.485940409431e-04
    19   -3.530220579058e-04
    20   -2.466300903508e-02
    21   -1.150145589705e+00
    22   -2.432054356511e-03
    23   -1.340349138317e-02
    24   -1.200103940365e-03
    25   -4.084993316734e-03
    26    4.355578063986e-03
    27    6.615822083758e-02
    28   -1.549320368144e-01
    29   -1.578781188591e-01
    30   -1.368881490843e-02
    31   -5.516762684068e-01
    32   -5.511082782411e-01
    33   -4.493524393615e-02
    34   -7.879391945112e-04
    35    3.890746509268e-05
    36    5.499324566834e-04
    37    3.432765409400e-04
    38    5.004942872327e-04
    39    2.493731957536e-02
    40    1.139114453489e+00
    41   -2.369516895073e-03
    42   -1.333904365691e-02
    43   -6.239469551858e-04
    44   -2.660572272168e-02
    45   -1.236997492785e+00
    46   -1.447081596410e-02
    47   -3.879411084006e-03
    48   -8.470321659041e-04
Sym=X
Ene= 0.239345
Spin=Alpha
Occup=0
     1   -1.596228000994e-02
     2   -1.029603009016e+00
     3    1.609549915437e-02
     4    8.971607618517e-03
     5    2.052757566627e-03
     6   -8.637493218237e-02
     7    7.969096880048e-02
     8    1.586822083806e+00
     9    5.096125056228e-02
    10   -6.272576847427e-02
    11    5.232418005858e-03
    12    2.005450069060e-01
    13   -2.434568007750e-01
    14    2.056110515924e-02
    15   -2.226443558633e-02
    16    3.693214107715e-03
    17    3.031282392102e-03
    18   -7.050952038879e-04
    19    1.278035187299e-02
    20   -1.754975521377e-02
    21   -1.138266373653e+00
    22   -8.499069020814e-03
    23   -1.793036796560e-02
    24   -1.287215322375e-03
    25    8.654422634553e-02
    26   -7.936871198385e-02
    27   -1.598825134733e+00
    28    5.165943705528e-02
    29   -6.328268033736e-02
    30   -3.783032324884e-03
    31    2.055495081514e-01
    32   -2.475970649073e-01
    33   -1.693623313788e-02
    34    2.258722757309e-02
    35   -2.453685889054e-03
    36   -3.478338320421e-03
    37    7.313754072373e-04
    38   -1.280290627371e-02
    39    1.697818758107e-02
    40    1.147097257645e+00
    41   -8.637919869034e-03
    42   -1.807996952515e-02
    43   -1.717156733477e-03
    44    1.551371382164e-02
    45    1.034966516477e+00
    46    1.627396205192e-02
    47    9.224333983195e-03
    48    1.272051694008e-03
Sym=X
Ene= 0.303235
Spin=Alpha
Occup=0
     1   -2.033076995280e-02
     2    1.683510632722e+00
     3   -2.283915634695e-02
     4    2.733679648948e-04
     5   -1.736603931326e-03
     6   -2.089675003290e-04
     7    1.878943527505e-04
     8    6.823521933679e-03
     9   -1.335625717964e-01
    10   -1.391851188878e-01
    11   -1.969903125336e-02
    12   -1.139768587255e+00
    13   -1.191830388448e+00
    14   -1.527530592128e-01
    15   -4.966392824110e-04
    16   -3.162101311671e-03
    17    1.069338422845e-03
    18   -3.251160247315e-02
    19   -1.347053465327e-03
    20    2.021770239718e-02
    21   -1.687901906470e+00
    22    1.349270073582e-03
    23   -2.289029454313e-02
    24   -1.399795954179e-03
    25    4.936157080073e-05
    26    2.722842909328e-04
    27   -7.093223255051e-03
    28    1.348977860989e-01
    29    1.406015031459e-01
    30    1.384608567857e-02
    31    1.139832425746e+00
    32    1.197221863491e+00
    33    1.329184096754e-01
    34    1.244348219426e-04
    35   -1.353437067409e-03
    36    2.367765085807e-03
    37   -3.251230064660e-02
    38   -1.716632829934e-03
    39    1.974195390371e-02
    40   -1.693570154518e+00
    41   -1.620526368124e-03
    42    2.284338852299e-02
    43    1.411901774126e-03
    44   -2.028424320702e-02
    45    1.699304916950e+00
    46    2.306425454013e-02
    47   -3.464333026888e-04
    48    8.416440931398e-04
Sym=X
Ene= 0.461871
Spin=Alpha
Occup=0
     1   -1.173729617441e-01
     2   -7.055819290897e-01
     3   -1.564807484544e-02
     4   -1.027794411610e-02
     5   -1.734731018459e-03
     6    6.081418238707e-02
     7    1.762959430294e-02
     8   -3.593728313079e+00
     9    1.025320312443e-01
    10   -9.930885605414e-02
    11    5.761263049549e-03
    12    2.421137869184e+00
    13   -2.303878380765e+00
    14   -5.805383158936e-03
    15    5.350686939985e-02
    16   -5.100557603253e-03
    17   -5.955125652658e-03
    18   -8.736506107495e-04
    19    1.816973377798e-02
    20   -1.213533319607e-01
    21   -7.037056542549e-01
    22    8.761003983565e-03
    23    1.632381603618e-02
    24    2.062085966610e-03
    25   -6.089981054867e-02
    26   -1.629982078171e-02
    27    3.589166234460e+00
    28    1.051265944429e-01
    29   -1.005746414817e-01
    30    1.798353548826e-04
    31    2.421943037900e+00
    32   -2.295188074369e+00
    33   -3.068632969042e-02
    34   -5.274873318948e-02
    35    3.652134103900e-03
    36    3.394262537863e-03
    37    5.938870855061e-04
    38   -1.907469268606e-02
    39    1.147426201650e-01
    40    7.078998805839e-01
    41    8.580559921317e-03
    42    1.624963614603e-02
    43    1.156698321296e-03
    44    1.106521407351e-01
    45    7.181063113047e-01
    46   -1.546257530606e-02
    47   -9.906422867508e-03
    48   -1.263266639062e-03
Sym=X
Ene= 0.577433
Spin=Alpha
Occup=0
     1    2.473731646907e-01
     2    3.490994078328e-02
     3   -1.859040424262e-02
     4    2.591248056567e-02
     5    1.916282514391e-04
     6   -4.379156898992e-03
     7   -1.571093257317e-01
     8   -4.680858480715e-01
     9    2.990020359870e-01
    10   -2.877952080005e-01
    11   -2.779186509754e-03
    12   -7.133370133731e-01
    13    6.941759827287e-01
    14   -4.396879221736e-03
    15   -5.947879299947e-03
    16    4.275663109546e-03
    17    4.550359258130e-03
    18   -4.193097990695e-03
    19    6.024396164110e-02
    20    2.556708731260e-01
    21    2.863231367743e-02
    22   -2.631748186492e-02
    23    1.641775916708e-02
    24   -9.489291000431e-04
    25   -5.701846543455e-03
    26   -1.577809596810e-01
    27   -4.045950986728e-01
    28   -2.971683410089e-01
    29    2.848975674598e-01
    30    2.052912105846e-03
    31    7.654942315582e-01
    32   -7.365202088946e-01
    33   -1.373508336266e-03
    34   -5.865313943140e-03
    35    4.112782785078e-03
    36    4.400629975862e-03
    37   -3.482408996592e-03
    38    6.019131836746e-02
    39    2.505803545700e-01
    40    5.177654939158e-02
    41    2.722936915222e-02
    42   -1.702523786799e-02
    43    3.260757663488e-04
    44    2.497349398094e-01
    45    5.661075643519e-02
    46    1.831937183745e-02
    47   -2.591080548044e-02
    48   -6.388507243476e-04
Sym=X
Ene= 0.615257
Spin=Alpha
Occup=0
     1   -5.234199662045e-01
     2    2.086820421414e-01
     3   -6.140991512733e-02
     4    3.782450390050e-02
     5   -1.802146885389e-03
     6   -5.393079460426e-04
     7    1.341172383540e-03
     8   -1.786932097392e-02
     9   -3.948588032179e-02
    10   -3.800728603749e-02
    11   -3.016201279412e-03
    12    2.954380769038e-01
    13    2.783492954590e-01
    14    4.782453742841e-02
    15    1.286490596063e-03
    16   -1.254976320977e-02
    17    5.997796446463e-03
    18   -1.481122210291e-01
    19   -6.388062682766e-03
    20    5.077055226664e-01
    21   -2.048418941406e-01
    22    4.177254581585e-02
    23   -5.860949575343e-02
    24    5.888848939046e-05
    25    4.162304263921e-04
    26   -7.773990040579e-04
    27    2.020145006917e-02
    28   -3.966217470514e-02
    29   -4.036675416106e-02
    30   -6.354965602084e-03
    31    3.019959391751e-01
    32    2.948774984467e-01
    33    2.334098176898e-02
    34   -1.457727592692e-03
    35    7.775004765038e-03
    36   -1.004278794428e-02
    37    1.491238643487e-01
    38    6.376005104422e-03
    39   -5.154051173191e-01
    40    2.055021975049e-01
    41    4.091133994676e-02
    42   -5.860846032207e-02
    43   -2.146452347838e-03
    44    5.214293163095e-01
    45   -2.046172894041e-01
    46   -6.142497807953e-02
    47    3.761471008367e-02
    48   -1.103649403645e-03
Sym=X
Ene= 0.689142
Spin=Alpha
Occup=0
     1    2.838516950003e-03
     2   -1.789260928641e-02
     3    4.516921655707e-03
     4    2.244953493150e-03
     5   -2.009548837610e-02
     6    1.394417125996e-04
     7    1.122477100673e-02
     8   -1.293911982212e-02
     9    4.349911637939e-02
    10    4.909325101610e-02
    11   -6.689822443705e-01
    12   -2.748598832670e-02
    13   -6.122235870086e-02
    14    6.118869028197e-01
    15   -3.963310454263e-03
    16    8.293804613222e-02
    17   -7.806329746731e-02
    18   -7.933168533579e-03
    19   -1.055050272762e-03
    20    5.940840547226e-04
    21   -7.587709718694e-03
    22    2.207524867504e-03
    23   -9.177883189020e-04
    24   -2.101078923334e-02
    25    6.307061125430e-04
    26    6.407580437044e-03
    27    2.725970871491e-03
    28    3.597495889602e-02
    29    3.515265395391e-02
    30   -6.701094095411e-01
    31   -1.609915042620e-02
    32   -4.349909931358e-02
    33    6.135069391408e-01
    34   -1.586908954749e-03
    35   -8.224247867737e-02
    36    7.866954678945e-02
    37    1.164418814174e-02
    38    3.319441799697e-03
    39    8.802862923804e-03
    40    7.552928682077e-03
    41    1.416972219199e-03
    42    2.467052260985e-03
    43   -2.098148530751e-02
    44    1.127104561011e-02
    45   -2.830233219227e-03
    46   -9.939586887923e-04
    47   -7.097043342390e-04
    48   -2.124295157159e-02
Sym=X
Ene= 0.708575
Spin=Alpha
Occup=0
     1   -4.787766394860e-01
     2    1.694892785033e-01
     3   -8.092019951113e-02
     4   -4.428277310687e-02
     5   -8.203263228156e-03
     6   -4.808304814430e-02
     7   -3.174474305736e-01
     8    5.111721965177e-01
     9    2.059226905464e-01
    10   -1.905627573736e-01
    11   -1.039063643495e-02
    12   -1.101876150984e-01
    13    8.249064563271e-02
    14    2.153812279099e-02
    15    1.932997469866e-01
    16   -2.664296626631e-02
    17   -2.833615832500e-02
    18    3.160575633719e-03
    19   -7.717115922728e-02
    20   -4.800310427420e-01
    21    1.512771161799e-01
    22    4.076168068719e-02
    23    8.177191233715e-02
    24    8.481202227536e-03
    25   -4.632131350427e-02
    26   -3.212632626207e-01
    27    4.535252698152e-01
    28   -2.039942886950e-01
    29    1.930214954688e-01
    30   -9.169075481185e-03
    31    6.043943640050e-02
    32   -4.793183397111e-02
    33    1.954035177391e-03
    34    1.926469641526e-01
    35   -2.174814025225e-02
    36   -2.441314870666e-02
    37    2.447334921321e-03
    38   -7.510456172866e-02
    39   -4.691263891070e-01
    40    1.321838237941e-01
    41   -4.059312952293e-02
    42   -8.051153702963e-02
    43   -7.706990738827e-03
    44   -4.729620986863e-01
    45    1.433977139636e-01
    46    8.020792309418e-02
    47    4.373099518727e-02
    48    5.712046315313e-03
Sym=X
Ene= 0.784201
Spin=Alpha
Occup=0
     1    5.261585576446e-01
     2   -4.809525462665e-01
     3    1.100911990457e-01
     4    2.609214864049e-02
     5    9.715372324851e-03
     6    9.058550426015e-02
     7   -2.197835205440e-01
     8   -6.377137407839e-01
     9    1.064981822663e-01
    10   -1.095167535810e-01
    11    1.485128628806e-02
    12    3.317760855612e-01
    13   -2.895676298801e-01
    14   -3.562546130366e-02
    15   -2.034974988416e-01
    16    2.869742230914e-02
    17    2.355276217928e-02
    18   -9.291563689341e-04
    19    8.717323456046e-03
    20    5.331938360580e-01
    21   -4.647784227943e-01
    22   -1.983910220370e-02
    23   -1.111834024094e-01
    24   -8.949676102956e-03
    25   -9.153116496682e-02
    26    2.103631076891e-01
    27    6.656370075793e-01
    28    1.107026779640e-01
    29   -1.039141522072e-01
    30   -2.120833917574e-02
    31    3.128327988213e-01
    32   -2.924093534669e-01
    33    3.482926069243e-02
    34    2.084786236321e-01
    35   -1.644525952133e-02
    36   -2.152806158307e-02
    37    1.356112094499e-03
    38   -9.714420786609e-03
    39   -5.442176737663e-01
    40    4.667089203574e-01
    41   -2.052337111564e-02
    42   -1.129061255381e-01
    43   -7.797925751530e-03
    44   -5.325887813910e-01
    45    4.677306795352e-01
    46    1.103876947947e-01
    47    2.729407091053e-02
    48    6.470828181875e-03
Sym=X
Ene= 0.807935
Spin=Alpha
Occup=0
     1    1.115096878294e-02
     2   -1.370019314295e-03
     3    5.777565217927e-03
     4    2.889783940706e-04
     5   -3.321858726688e-02
     6    2.009185721140e-03
     7   -5.304179890226e-04
     8   -5.866040020358e-03
     9    6.017415168509e-02
    10    5.209856974588e-02
    11   -7.609028908131e-01
    12   -7.568351082269e-02
    13   -9.294372819938e-02
    14    1.123025817295e+00
    15   -6.000945778182e-03
    16   -6.463971493336e-02
    17    6.277260305176e-02
    18    4.060689311242e-03
    19   -3.306204807925e-04
    20    1.188018927785e-02
    21   -2.942735110319e-02
    22    2.180178708304e-03
    23   -4.383791227591e-03
    24   -3.490277842901e-02
    25   -2.394023771292e-03
    26    8.673403936600e-03
    27    1.959344078551e-03
    28   -2.732274969620e-02
    29   -4.663748129807e-02
    30    7.632791996200e-01
    31    5.185333031044e-02
    32    5.478512634435e-02
    33   -1.127003698995e+00
    34    7.341567941182e-03
    35   -6.535624254048e-02
    36    6.106206038733e-02
    37    1.144153520590e-02
    38    2.939698044862e-03
    39   -1.213995568646e-02
    40    2.699496851478e-02
    41   -2.465261712593e-03
    42   -6.773554532978e-03
    43    3.395425016924e-02
    44   -1.118587361198e-02
    45   -1.131421063038e-03
    46   -1.931348768149e-04
    47   -3.414940214044e-03
    48    3.372861332898e-02
Sym=X
Ene= 0.862051
Spin=Alpha
Occup=0
     1    1.280551609501e-02
     2   -1.097168591193e+00
     3    1.480597242475e-01
     4    5.657450198024e-02
     5    1.527298665679e-02
     6   -3.406004452398e-04
     7   -2.351801314214e-03
     8    2.519033215052e-03
     9   -4.091915486644e-01
    10   -4.284878907512e-01
    11   -6.694309524747e-02
    12    9.495815824481e-01
    13    9.982021343147e-01
    14    1.541711832449e-01
    15    1.509708130602e-03
    16    1.573556203803e-02
    17   -1.304404272117e-02
    18    2.345648834514e-01
    19    9.785325902459e-03
    20   -1.638266434697e-02
    21    1.105507214565e+00
    22    5.036788397354e-02
    23    1.521076346398e-01
    24    1.195070499223e-02
    25    1.851672202638e-04
    26   -5.824416559861e-04
    27    2.545440209881e-04
    28   -4.065771203504e-01
    29   -4.272050216415e-01
    30   -3.540384995726e-02
    31    9.451191407406e-01
    32    9.983830927199e-01
    33    8.407610063930e-02
    34   -5.085059658899e-04
    35   -1.502781976139e-02
    36    1.368651049227e-02
    37   -2.355891381291e-01
    38   -1.061292770182e-02
    39    1.156001375581e-02
    40   -1.098615613219e+00
    41    4.899180969424e-02
    42    1.512196210200e-01
    43    1.109367167305e-02
    44   -9.065177029978e-03
    45    1.089592632263e+00
    46    1.476209295099e-01
    47    5.576990462798e-02
    48    1.132996420996e-02
Sym=X
Ene= 0.935489
Spin=Alpha
Occup=0
     1    1.132811183399e-01
     2   -1.280102794714e+00
     3    1.810343392293e-01
     4   -4.452567840614e-03
     5    1.243811755135e-02
     6   -5.780755005638e-04
     7   -4.742618870911e-03
     8    4.695355524065e-03
     9   -4.756343651086e-01
    10   -4.928086873571e-01
    11   -6.446403247892e-02
    12    1.469841412744e+00
    13    1.520834823630e+00
    14    1.976825901380e-01
    15    3.105578868416e-03
    16    1.114315654653e-02
    17   -7.785620027485e-03
    18    1.180964809706e-01
    19    4.808153789684e-03
    20   -1.179212551478e-01
    21    1.270758192939e+00
    22   -1.265442015956e-02
    23    1.811735071446e-01
    24    1.181190198438e-02
    25    2.567015377094e-04
    26   -2.924684756009e-03
    27    1.129423304806e-02
    28    4.724279944513e-01
    29    5.020782823203e-01
    30    5.451690214090e-02
    31   -1.462267545579e+00
    32   -1.542400297028e+00
    33   -1.694501842626e-01
    34   -4.727629026008e-04
    35    1.925060252190e-03
    36   -8.637126872163e-03
    37    1.220172279972e-01
    38    3.209213267588e-03
    39   -1.174008052172e-01
    40    1.288238144440e+00
    41    1.284243924974e-02
    42   -1.825108786507e-01
    43   -1.129905149520e-02
    44    1.162240356793e-01
    45   -1.286984443684e+00
    46   -1.826290069577e-01
    47    5.700992564457e-03
    48   -6.831488681882e-03
Sym=X
Ene= 0.972231
Spin=Alpha
Occup=0
     1   -6.361071962486e-02
     2    9.130529530111e-01
     3   -8.891417421653e-02
     4   -9.833094988090e-02
     5   -1.467456322215e-02
     6    2.560063612674e-02
     7    2.603978983343e-01
     8    5.063956745534e-01
     9    4.776809165983e-01
    10   -4.607288217005e-01
    11    6.459949297529e-03
    12   -1.478426154852e+00
    13    1.425912934605e+00
    14   -1.524582728100e-02
    15   -5.527120909696e-02
    16   -1.558236093115e-02
    17   -9.892559923276e-03
    18    1.583571324114e-02
    19   -3.021613187275e-01
    20   -6.261968920863e-02
    21    9.271805464886e-01
    22    9.552350360045e-02
    23    9.540743506630e-02
    24    9.359253939165e-03
    25   -2.521203437697e-02
    26   -2.295532959387e-01
    27   -5.572706777417e-01
    28    4.802633416924e-01
    29   -4.510127744086e-01
    30   -6.875661696836e-03
    31   -1.491854267322e+00
    32    1.400252383146e+00
    33    2.118404203720e-02
    34    5.332879471799e-02
    35    1.491122835065e-02
    36    1.081654954851e-02
    37   -1.392148197008e-02
    38    2.981322306735e-01
    39    6.149661868511e-02
    40   -8.947889541934e-01
    41    9.387724961229e-02
    42    9.065742904046e-02
    43    1.096018195054e-02
    44    6.525615865810e-02
    45   -9.128498164421e-01
    46   -8.885213709791e-02
    47   -9.729687174992e-02
    48   -1.088068608363e-02
[5D]

======= END OF MOLDEN-FORMATTED INPUT FILE =======


        *************************************************************
        *                                                           *
        *  Thank you very much for using Q-Chem.  Have a nice day.  *
        *                                                           *
        *************************************************************


