                  Welcome to Q-Chem
     A Quantum Leap Into The Future Of Chemistry


 Q-Chem 5.4 (devel), Q-Chem, Inc., Pleasanton, CA (2021)

 E. Epifanovsky,  A. T. B. Gilbert,  Xintian Feng,  Joonho Lee,  Yuezhi Mao,  
 N. Mardirossian,  P. Pokhilko,  A. White,  M. Wormit,  M. P. Coons,  
 A. L. Dempwolff,  Zhengting Gan,  D. Hait,  P. R. Horn,  L. D. Jacobson,  
 I. Kaliman,  J. Kussmann,  A. W. Lange,  Ka Un Lao,  D. S. Levine,  Jie Liu,  
 S. C. McKenzie,  A. F. Morrison,  K. Nanda,  F. Plasser,  D. R. Rehn,  
 M. L. Vidal,  Zhi-Qiang You,  Ying Zhu,  B. Alam,  B. Albrecht,  
 A. Aldossary,  E. Alguire,  J. H. Andersen,  D. Barton,  K. Begam,  A. Behn,  
 Y. A. Bernard,  E. J. Berquist,  H. Burton,  A. Carreras,  K. Carter-Fenk,  
 R. Chakraborty,  A. D. Chien,  K. D. Closser,  V. Cofer-Shabica,  
 S. Dasgupta,  Jia Deng,  M. de Wergifosse,  M. Diedenhofen,  Hainam Do,  
 S. Ehlert,  Po-Tung Fang,  S. Fatehi,  Qingguo Feng,  T. Friedhoff,  
 J. Gayvert,  Qinghui Ge,  G. Gidofalvi,  M. Goldey,  J. Gomes,  
 C. Gonzalez-Espinoza,  S. Gulania,  A. Gunina,  M. W. D. Hanson-Heine,  
 P. H. P. Harbach,  A. W. Hauser,  M. F. Herbst,  M. Hernandez Vera,  
 M. Hodecker,  Z. C. Holden,  S. Houck,  Xunkun Huang,  Kerwin Hui,  
 B. C. Huynh,  M. Ivanov,  Hyunjun Ji,  Hanjie Jiang,  B. Kaduk,  S. Kaehler,  
 K. Khistyaev,  Jaehoon Kim,  P. Klunzinger,  Z. Koczor-Benda,  
 Joong Hoon Koh,  D. Kosenkov,  L. Koulias,  T. Kowalczyk,  C. M. Krauter,  
 K. Kue,  A. Kunitsa,  T. Kus,  A. Landau,  K. V. Lawler,  D. Lefrancois,  
 S. Lehtola,  Rain Li,  Yi-Pei Li,  Jiashu Liang,  M. Liebenthal,  
 Hung-Hsuan Lin,  You-Sheng Lin,  Fenglai Liu,  Kuan-Yu Liu,  
 M. Loipersberger,  A. Luenser,  A. Manjanath,  P. Manohar,  E. Mansoor,  
 S. F. Manzer,  Shan-Ping Mao,  A. V. Marenich,  T. Markovich,  S. Mason,  
 S. A. Maurer,  P. F. McLaughlin,  M. F. S. J. Menger,  J.-M. Mewes,  
 S. A. Mewes,  P. Morgante,  J. W. Mullinax,  K. J. Oosterbaan,  G. Paran,  
 Alexander C. Paul,  Suranjan K. Paul,  F. Pavosevic,  Zheng Pei,  S. Prager,  
 E. I. Proynov,  E. Ramos,  B. Rana,  A. E. Rask,  A. Rettig,  R. M. Richard,  
 F. Rob,  E. Rossomme,  T. Scheele,  M. Scheurer,  M. Schneider,  
 N. Sergueev,  S. M. Sharada,  W. Skomorowski,  D. W. Small,  C. J. Stein,  
 Yu-Chuan Su,  E. J. Sundstrom,  Zhen Tao,  J. Thirman,  T. Tsuchimochi,  
 N. M. Tubman,  S. P. Veccham,  O. Vydrov,  J. Wenzel,  J. Witte,  A. Yamada,  
 Kun Yao,  S. Yeganeh,  S. R. Yost,  A. Zech,  Igor Ying Zhang,  Xing Zhang,  
 Yu Zhang,  D. Zuev,  A. Aspuru-Guzik,  A. T. Bell,  N. A. Besley,  
 K. B. Bravaya,  B. R. Brooks,  D. Casanova,  Jeng-Da Chai,  S. Coriani,  
 C. J. Cramer,  A. E. DePrince, III,  R. A. DiStasio Jr.,  A. Dreuw,  
 B. D. Dunietz,  T. R. Furlani,  W. A. Goddard III,  S. Grimme,  
 S. Hammes-Schiffer,  T. Head-Gordon,  W. J. Hehre,  Chao-Ping Hsu,  
 T.-C. Jagau,  Yousung Jung,  A. Klamt,  Jing Kong,  D. S. Lambrecht,  
 WanZhen Liang,  N. J. Mayhall,  C. W. McCurdy,  J. B. Neaton,  
 C. Ochsenfeld,  J. A. Parkhill,  R. Peverati,  V. A. Rassolov,  Yihan Shao,  
 L. V. Slipchenko,  T. Stauch,  R. P. Steele,  J. E. Subotnik,  
 A. J. W. Thom,  A. Tkatchenko,  D. G. Truhlar,  T. Van Voorhis,  
 T. A. Wesolowski,  K. B. Whaley,  H. L. Woodcock III,  P. M. Zimmerman,  
 S. Faraji,  P. M. W. Gill,  M. Head-Gordon,  J. M. Herbert,  A. I. Krylov

 Additional authors for Version 5.4.1: 
 S. Kotaru,  Shaozhi Li,  Xiangyuan Li,  F. Matz,  A. Molle,  Haisheng Ren,  
 Yingli Su,  Hung-Yi Tsai,  C. Utku,  Fang Wang

 Contributors to earlier versions of Q-Chem not listed above: 
 R. D. Adamson,  B. Austin,  R. Baer,  J. Baker,  G. J. O. Beran,  
 K. Brandhorst,  S. T. Brown,  E. F. C. Byrd,  A. K. Chakraborty,  
 G. K. L. Chan,  Chun-Min Chang,  Yunqing Chen,  C.-L. Cheng,  
 Siu Hung Chien,  D. M. Chipman,  D. L. Crittenden,  H. Dachsel,  
 R. J. Doerksen,  A. D. Dutoi,  R. G. Edgar,  J. Fosso-Tande,  
 L. Fusti-Molnar,  D. Ghosh,  A. Ghysels,  A. Golubeva-Zadorozhnaya,  
 J. Gonthier,  M. S. Gordon,  S. R. Gwaltney,  G. Hawkins,  J. E. Herr,  
 A. Heyden,  S. Hirata,  E. G. Hohenstein,  G. Kedziora,  F. J. Keil,  
 C. Kelley,  Jihan Kim,  R. A. King,  R. Z. Khaliullin,  P. P. Korambath,  
 W. Kurlancheek,  A. Laurent,  A. M. Lee,  M. S. Lee,  S. V. Levchenko,  
 Ching Yeh Lin,  D. Liotard,  E. Livshits,  R. C. Lochan,  I. Lotan,  
 L. A. Martinez-Martinez,  P. E. Maslen,  N. Nair,  D. P. O'Neill,  
 D. Neuhauser,  E. Neuscamman,  C. M. Oana,  R. Olivares-Amaya,  R. Olson,  
 T. M. Perrine,  B. Peters,  P. A. Pieniazek,  A. Prociuk,  Y. M. Rhee,  
 J. Ritchie,  M. A. Rohrdanz,  E. Rosta,  N. J. Russ,  H. F. Schaefer III,  
 M. W. Schmidt,  N. E. Schultz,  S. Sharma,  N. Shenvi,  C. D. Sherrill,  
 A. C. Simmonett,  A. Sodt,  T. Stein,  D. Stuck,  K. S. Thanthiriwatte,  
 V. Vanovschi,  L. Vogt,  Tao Wang,  A. Warshel,  M. A. Watson,  
 C. F. Williams,  Q. Wu,  X. Xu,  Jun Yang,  W. Zhang,  Yan Zhao

 Please cite Q-Chem as follows:
 Y. Shao et al., Mol. Phys. 113, 184-215 (2015)
 DOI: 10.1080/00268976.2014.952696

 Q-Chem 5.4.1 for Intel X86 EM64T Linux

 Parts of Q-Chem use Armadillo 9.800.1 (Horizon Scraper).
 http://arma.sourceforge.net/

 Q-Chem begins on Thu Nov 17 00:22:07 2022  

 Host: cpu317.baobab
0

     Scratch files written to /scratch/fum/qchem53737//
 Processing $rem in /home/share/wesolowski/qc5.aug2021.FDE/config/preferences:
 Processing $rem in /home/fum/.qchemrc:

 Checking the input file for inconsistencies... 	...done.

--------------------------------------------------------------
User input:
--------------------------------------------------------------
$comment
generated from CCJob.Templates
$end

$rem
sym_ignore = true
method = adc(2)
ee_states = 10
basis = cc-pVDZ
mem_static = 1024
mem_total = 30000
adc_davidson_maxiter = 900
adc_davidson_conv = 6
adc_print = 3
adc_prop_es = true
adc_prop_es2es = true
adc_prop_tpa = true
molden_format = True
state_analysis = true
print_orbitals = 15
gen_scfman = false
fde_export_density = true
fde_details = 3
$end

$molecule
0 1
H -0.0348278765 -0.2442097827 0.0636489606
C -1.0765972949 -0.5242748755 -0.0023551776
H -1.313264467 -1.5767591607 -0.0757276926
C -2.043634118 0.3926884087 0.0061254933
H -1.8087616575 1.4459188338 0.0804456828
H -3.085977293 0.114931858 -0.0593381042                     
$end
--------------------------------------------------------------
 ----------------------------------------------------------------
             Standard Nuclear Orientation (Angstroms)
    I     Atom           X                Y                Z
 ----------------------------------------------------------------
    1      H      -0.0348278765    -0.2442097827     0.0636489606
    2      C      -1.0765972949    -0.5242748755    -0.0023551776
    3      H      -1.3132644670    -1.5767591607    -0.0757276926
    4      C      -2.0436341180     0.3926884087     0.0061254933
    5      H      -1.8087616575     1.4459188338     0.0804456828
    6      H      -3.0859772930     0.1149318580    -0.0593381042
 ----------------------------------------------------------------
 Nuclear Repulsion Energy =          33.42181362 hartrees
 There are        8 alpha and        8 beta electrons
 Requested basis set is cc-pVDZ
 There are 24 shells and 48 basis functions
 Total memory of 30000 MB is distributed as follows: 
   MEM_STATIC is set to 1024 MB
   QALLOC/CCMAN JOB total memory use is  28976 MB
 Warning: actual memory use might exceed 30000 MB

 Total QAlloc Memory Limit  30000 MB
 Mega-Array Size      1001 MB
 MEM_STATIC part      1024 MB

                       Distance Matrix (Angstroms)
             H (  1)   C (  2)   H (  3)   C (  4)   H (  5)
   C (  2)  1.080776
   H (  3)  1.851895  1.081258
   C (  4)  2.108139  1.332687  2.102109
   H (  5)  2.450236  2.103469  3.067000  1.081657
   H (  6)  3.074674  2.109370  2.450428  1.080700  1.849958

 A cutoff of  1.0D-11 yielded    300 shell pairs
 There are      1220 function pairs (      1329 Cartesian)
 Smallest overlap matrix eigenvalue = 4.80E-03

 Scale SEOQF with 1.000000e-01/1.000000e-01/1.000000e+00

 Standard Electronic Orientation quadrupole field applied
 Nucleus-field energy     =     0.0000000022 hartrees
 Guess from superposition of atomic densities
 Warning:  Energy on first SCF cycle will be non-variational
 SAD guess density has 16.000000 electrons
 A restricted Hartree-Fock SCF calculation will be
 performed using Pulay DIIS extrapolation
 SCF converges when DIIS error is below 1.0E-08
 using 8 threads for integral computing
 -------------------------------------------------------
 OpenMP Integral computing Module                
 Release: version 1.0, May 2013, Q-Chem Inc. Pittsburgh 
 -------------------------------------------------------
 ---------------------------------------
  Cycle       Energy         DIIS Error
 ---------------------------------------
    1     -78.4382347707      1.01E-01
    2     -78.0176813723      7.21E-03
    3     -78.0383125885      1.84E-03
    4     -78.0397955948      5.73E-04
    5     -78.0399173088      5.79E-05
    6     -78.0399191825      9.20E-06
    7     -78.0399192427      1.96E-06
    8     -78.0399192454      2.86E-07
    9     -78.0399192455      1.13E-07
   10     -78.0399192455      9.51E-09 Convergence criterion met
 ---------------------------------------
 SCF time:  CPU 3.12 s  wall 2.16 s
 SCF   energy in the final basis set = -78.03991925
 Total energy in the final basis set = -78.03991925
Exporting Density Matrix to file 'Densmat_SCF.txt'.
Export successful
================================================================================
|                                                                              |
|                                 A D C  M A N                                 |
|                                                                              |
 ------------------------------------------------------------------------------ 
|                                                                              |
| Components:                                                                  |
|                                                                              |
| - libvmm - 1.3-trunk                                                         |
|   Authors:                                                                   |
|   Evgeny Epifanovsky, Ilya Kaliman                                           |
|                                                                              |
| - libtensor - 2.5-trunk                                                      |
|   Authors:                                                                   |
|   Evgeny Epifanovsky, Michael Wormit, Dmitry Zuev, Sam Manzer,               |
|   Ilya Kaliman                                                               |
|                                                                              |
| - libwfa - 1.1-trunk                                                         |
|   Authors:                                                                   |
|   Felix Plasser, Stefanie Mewes (Baeppler), Benjamin Thomitzni,              |
|   Michael Wormit, Feng Chen, Anna I. Krylov, Pavel Pokhilko                  |
|                                                                              |
| - libadc - 1.1-trunk                                                         |
|   Authors:                                                                   |
|   Michael Wormit, Adrian L. Dempwolff, Philipp H. P. Harbach,                |
|   Caroline Krauter, Dirk Rehn, Matthias Schneider, Jan Wenzel                |
|                                                                              |
| - adcman - 2.6-trunk                                                         |
|   Authors:                                                                   |
|   Michael Wormit, Adrian L. Dempwolff, Philipp H. P. Harbach,                |
|   Caroline Krauter, Daniel Lefrancois, Jan-Michael Mewes, Dirk Rehn,         |
|   Matthias Schneider, Jan Wenzel, Andreas Dreuw                              |
|                                                                              |
| Authors of earlier versions of ADCMAN:                                       |
| Andreas Dreuw, Jan Hendrik Starcke, Dirk Rehn, Michael Wormit                |
|                                                                              |
================================================================================

 Created directory /scratch/fum/qchem53737/plots
  Import QC data ...  CPU 0.00 s  wall 0.00 s

 Alpha MOs, Restricted
 -- Occupied --                  
-11.235 -11.233  -1.032  -0.789  -0.641  -0.582  -0.505  -0.374
  1 A     2 A     3 A     4 A     5 A     6 A     7 A     8 A                  
 -- Virtual --                   
  0.168   0.204   0.233   0.239   0.303   0.462   0.577   0.616
  9 A    10 A    11 A    12 A    13 A    14 A    15 A    16 A                  
  0.689   0.709   0.784   0.808   0.862   0.936   0.972   1.009
 17 A    18 A    19 A    20 A    21 A    22 A    23 A    24 A                  
  1.130   1.235   1.256   1.266   1.293   1.601   1.725   1.749
 25 A    26 A    27 A    28 A    29 A    30 A    31 A    32 A                  
  1.819   1.860   1.867   1.922   1.977   1.977   2.220   2.258
 33 A    34 A    35 A    36 A    37 A    38 A    39 A    40 A                  
  2.376   2.454   2.504   2.631   2.721   2.821   3.141   3.397
 41 A    42 A    43 A    44 A    45 A    46 A    47 A    48 A                  

 Beta MOs, Restricted
 -- Occupied --                  
-11.235 -11.233  -1.032  -0.789  -0.641  -0.582  -0.505  -0.374
  1 A     2 A     3 A     4 A     5 A     6 A     7 A     8 A                  
 -- Virtual --                   
  0.168   0.204   0.233   0.239   0.303   0.462   0.577   0.616
  9 A    10 A    11 A    12 A    13 A    14 A    15 A    16 A                  
  0.689   0.709   0.784   0.808   0.862   0.936   0.972   1.009
 17 A    18 A    19 A    20 A    21 A    22 A    23 A    24 A                  
  1.130   1.235   1.256   1.266   1.293   1.601   1.725   1.749
 25 A    26 A    27 A    28 A    29 A    30 A    31 A    32 A                  
  1.819   1.860   1.867   1.922   1.977   1.977   2.220   2.258
 33 A    34 A    35 A    36 A    37 A    38 A    39 A    40 A                  
  2.376   2.454   2.504   2.631   2.721   2.821   3.141   3.397
 41 A    42 A    43 A    44 A    45 A    46 A    47 A    48 A                  
  Import AO data ...  CPU 0.00 s  wall 0.00 s
  Using point group: C1
  Irreducible representations in point group: A
  Molecular orbitals: 
  Occupied MOs:
  Block   0:   1 (  A) A   2 (  A) A   3 (  A) A   4 (  A) A   5 (  A) A
                  -11.24      -11.23      -1.032     -0.7895     -0.6413
               6 (  A) A   7 (  A) A   8 (  A) A
                 -0.5816     -0.5047      -0.374
  Block   1:   1 (  A) B   2 (  A) B   3 (  A) B   4 (  A) B   5 (  A) B
                  -11.24      -11.23      -1.032     -0.7895     -0.6413
               6 (  A) B   7 (  A) B   8 (  A) B
                 -0.5816     -0.5047      -0.374
  Virtual MOs:
  Block   0:   9 (  A) A  10 (  A) A  11 (  A) A  12 (  A) A  13 (  A) A
                  0.1684      0.2036      0.2329      0.2395      0.3032
              14 (  A) A  15 (  A) A  16 (  A) A  17 (  A) A  18 (  A) A
                  0.4618      0.5773      0.6157      0.6892      0.7086
              19 (  A) A  20 (  A) A  21 (  A) A  22 (  A) A
                  0.7845       0.808      0.8622      0.9359
  Block   1:  23 (  A) A  24 (  A) A  25 (  A) A  26 (  A) A  27 (  A) A
                  0.9723       1.009        1.13       1.235       1.256
              28 (  A) A  29 (  A) A  30 (  A) A  31 (  A) A  32 (  A) A
                   1.266       1.293       1.601       1.725       1.749
              33 (  A) A  34 (  A) A  35 (  A) A  36 (  A) A
                   1.819        1.86       1.867       1.922
  Block   2:  37 (  A) A  38 (  A) A  39 (  A) A  40 (  A) A  41 (  A) A
                   1.977       1.977        2.22       2.258       2.376
              42 (  A) A  43 (  A) A  44 (  A) A  45 (  A) A  46 (  A) A
                   2.454       2.504       2.631       2.721       2.821
              47 (  A) A  48 (  A) A
                   3.141       3.397
  Block   3:   9 (  A) B  10 (  A) B  11 (  A) B  12 (  A) B  13 (  A) B
                  0.1684      0.2036      0.2329      0.2395      0.3032
              14 (  A) B  15 (  A) B  16 (  A) B  17 (  A) B  18 (  A) B
                  0.4618      0.5773      0.6157      0.6892      0.7086
              19 (  A) B  20 (  A) B  21 (  A) B  22 (  A) B
                  0.7845       0.808      0.8622      0.9359
  Block   4:  23 (  A) B  24 (  A) B  25 (  A) B  26 (  A) B  27 (  A) B
                  0.9723       1.009        1.13       1.235       1.256
              28 (  A) B  29 (  A) B  30 (  A) B  31 (  A) B  32 (  A) B
                   1.266       1.293       1.601       1.725       1.749
              33 (  A) B  34 (  A) B  35 (  A) B  36 (  A) B
                   1.819        1.86       1.867       1.922
  Block   5:  37 (  A) B  38 (  A) B  39 (  A) B  40 (  A) B  41 (  A) B
                   1.977       1.977        2.22       2.258       2.376
              42 (  A) B  43 (  A) B  44 (  A) B  45 (  A) B  46 (  A) B
                   2.454       2.504       2.631       2.721       2.821
              47 (  A) B  48 (  A) B
                   3.141       3.397
  Import MO data ...  CPU 0.21 s  wall 0.08 s
  Import HF data ...  CPU 2.21 s  wall 0.80 s
  Import 2e integrals ...  CPU 1.69 s  wall 0.28 s

--------------------------------------------------------------------------------
                                   HF Summary                                   
--------------------------------------------------------------------------------
  Energy:                                                  -78.0399192455 a.u.
  Dip. moment [a.u.]:                  [  -0.000331,    0.000190,    0.000386]
  Total dipole [Debye]:                                               0.001380
  <r^2> [a.u.]:                        [ 175.255668,   34.923485,   11.627155]
  Total <r^2> [a.u.]:                                               221.806308
--------------------------------------------------------------------------------
  HF properties ...  CPU 0.01 s  wall 0.01 s
  MP(1) calculation ...  CPU 0.01 s  wall 0.01 s
  N^6 prerequesite intermediates ...  CPU 0.51 s  wall 0.12 s
  Difference density matrix of state mp2_gs printed to ASCII file 'State_mp2_gs_Difference.txt'
Exporting MP density matrix to file 'Densmat_MP.txt'.
Export successful
  Total density matrix of state mp2_gs printed to ASCII file 'State_mp2_gs_Total.txt'
Exporting MP density matrix to file 'Densmat_MP.txt'.
Export successful

--------------------------------------------------------------------------------
                                 MP(2) Summary                                  
--------------------------------------------------------------------------------
  MP energy contribution:                                   -0.2797233622 a.u.
  Total energy:                                            -78.3196426077 a.u.
  Dip. moment [a.u.]:                  [  -0.000293,    0.000180,    0.000382]
  Total dipole [Debye]:                                               0.001306
  <r^2> [a.u.]:                        [ 175.302733,   34.963813,   11.458909]
  Total <r^2> [a.u.]:                                               221.725456

  Density matrix analysis:
  ------------------------
  NOs
    Occupation of frontier NOs:
       0.0453   1.9383
    Number of electrons: 16.000000
    Number of unpaired electrons: n_u =  0.40349, n_u,nl =  0.04509
    NO participation ratio (PR_NO): 13.858546
  
  
  Mulliken Population Analysis
  Atom      Charge (e)              h+              e-           Del q
  --------------------------------------------------------------------
   1 H        0.050897        0.014034       -0.011202        0.002833
   2 C       -0.100880        0.093172       -0.098861       -0.005689
   3 H        0.050443        0.014081       -0.011191        0.002891
   4 C       -0.101609        0.093112       -0.098907       -0.005794
   5 H        0.050392        0.014096       -0.011189        0.002907
   6 H        0.050758        0.014053       -0.011200        0.002853
  --------------------------------------------------------------------
  Sum:       -0.000000        0.242549       -0.242549        0.000000
  
  Multipole moment analysis of the density matrix
    Molecular charge:                      -0.000000
    Number of electrons:                   16.000000
      Center of electronic charge [Ang]: [ -1.560254,  -0.065608,   0.001966]
    Total nuclear charge:                  16.000000
      Center of nuclear charge [Ang]:    [ -1.560264,  -0.065602,   0.001978]
    Dipole moment [D]:                     0.001306
      Cartesian components [D]:          [ -0.000745,   0.000456,   0.000972]
    RMS size of the density [Ang]:         1.200787
      Cartesian components [Ang]:        [  0.796064,   0.779503,   0.447825]
  
  Exciton analysis of the difference density matrix
    <r_h> [Ang]:                  [ -1.560197,  -0.065599,   0.001906]
    <r_e> [Ang]:                  [ -1.560279,  -0.065575,   0.001915]
    |<r_e - r_h>| [Ang]:            0.000086
    Hole size [Ang]:                1.393710
      Cartesian components [Ang]: [  0.846464,   0.834336,   0.727880]
    Electron size [Ang]:            1.359716
      Cartesian components [Ang]: [  0.877828,   0.861789,   0.579281]
--------------------------------------------------------------------------------
  MP(2) calculation ...  CPU 0.30 s  wall 0.15 s
  Start ADC(2)-s ...  CPU 0.02 s  wall 0.01 s
  ADC(2) intermediates ...  CPU 0.02 s  wall 0.01 s
  Starting Davidson for singlet states of irrep A ... 
--------------------------------------------------------------------------------
   It NVec Conv  Avg. Norm  Max. Norm  Conv. states           Remark
--------------------------------------------------------------------------------
        10    0  1.330e-01  4.685e-01  0.4118 n n n n n n n n Guess.
    1   20    0  2.306e-02  1.108e-01  0.3263 n n n n n n n n 
    2   30    0  5.883e-03  2.634e-02  0.3215 n n n n n n n n 
    3   40    0  2.079e-03  1.482e-02  0.3211 n n n n n n n n 
    4   50    0  6.348e-04  4.835e-03  0.3211 n n n n n n n n 
    5   20    0  2.746e-04  2.037e-03  0.3211 n n n n n n n n Subspace collapsed.
    6   30    0  1.916e-04  1.744e-03  0.3211 n n n n n n n n 
    7   40    0  1.085e-04  8.796e-04  0.3211 n n n n n n n n 
    8   50    0  1.421e-04  1.386e-03  0.3211 n n n n n n n n 
    9   20    2  7.247e-05  6.977e-04  0.3211 n y n y n n n n Subspace collapsed.
   10   30    4  9.780e-05  9.627e-04  0.3211 n y y y y n n n 
   11   40    5  9.933e-05  9.906e-04  0.3211 n y y y y y n n 
   12   50    6  1.025e-04  1.025e-03  0.3211 y y y y y y n n 
   13   20    6  5.387e-05  5.384e-04  0.3211 y y y y y y n n Subspace collapsed.
   14   30    6  4.528e-05  4.526e-04  0.3211 y y y y y y n n 
   15   40    6  2.362e-05  2.360e-04  0.3211 y y y y y y n n 
   16   50    6  4.316e-05  4.316e-04  0.3211 y y y y y y n n 
   17   20    7  1.734e-05  1.734e-04  0.3211 y y y y y y n y Subspace collapsed.
   18   30    7  2.533e-05  2.533e-04  0.3211 y y y y y y n y 
   19   40    8  2.214e-05  2.214e-04  0.3211 y y y y y y y y 
   20   50    8  2.911e-05  2.911e-04  0.3211 y y y y y y y y 
   21   20    9  1.204e-05  1.204e-04  0.3211 y y y y y y y y Subspace collapsed.
   22   30    9  1.165e-05  1.165e-04  0.3211 y y y y y y y y 
   23   31    9  1.158e-05  1.158e-04  0.3211 y y y y y y y y 
   24   40    9  6.497e-06  6.497e-05  0.3211 y y y y y y y y 
   25   48    9  1.183e-05  1.183e-04  0.3211 y y y y y y y y 
   26   50    9  1.168e-05  1.168e-04  0.3211 y y y y y y y y 
   27   15    9  4.530e-06  4.530e-05  0.3211 y y y y y y y y Subspace collapsed.
   28   20    9  7.310e-06  7.310e-05  0.3211 y y y y y y y y 
   29   25    9  5.643e-06  5.643e-05  0.3211 y y y y y y y y 
   30   25    9  5.643e-06  5.643e-05  0.3211 y y y y y y y y 
   31   35    9  7.851e-06  7.851e-05  0.3211 y y y y y y y y 
   32   39    9  6.023e-06  6.023e-05  0.3211 y y y y y y y y 
   33   43    9  3.679e-06  3.679e-05  0.3211 y y y y y y y y 
   34   47    9  1.549e-06  1.549e-05  0.3211 y y y y y y y y 
   35   50    9  8.844e-07  8.844e-06  0.3211 y y y y y y y y 
   36   14    9  5.185e-07  5.185e-06  0.3211 y y y y y y y y Subspace collapsed.
   37   18    9  4.204e-07  4.204e-06  0.3211 y y y y y y y y 
   38   22    9  2.360e-07  2.360e-06  0.3211 y y y y y y y y 
   39   26    9  1.321e-07  1.321e-06  0.3211 y y y y y y y y 
   40   30   10  6.444e-08  6.444e-07  0.3211 y y y y y y y y Converged.
--------------------------------------------------------------------------------
  Davidson Summary: 
 ------------------------------------------------------------
  State  0: excitation energy =   0.3211 a.u.   (converged)
  State  1: excitation energy =   0.3328 a.u.   (converged)
  State  2: excitation energy =   0.3369 a.u.   (converged)
  State  3: excitation energy =   0.3613 a.u.   (converged)
  State  4: excitation energy =   0.3752 a.u.   (converged)
  State  5: excitation energy =   0.3871 a.u.   (converged)
  State  6: excitation energy =   0.4246 a.u.   (converged)
  State  7: excitation energy =   0.4472 a.u.   (converged)
  State  8: excitation energy =   0.4564 a.u.   (converged)
  State  9: excitation energy =   0.4647 a.u.   (converged)
 ------------------------------------------------------------

  Singlet states of irrep A ...  CPU 169.51 s  wall 55.89 s
  TDMs ...  CPU 3.23 s  wall 0.93 s
  SDMs ...  CPU 5.46 s  wall 1.45 s
  Starting TPA DIIS iterations ... 
------------------------------------ 
   It     Res. Norm  Remark
------------------------------------
                       Guess.
    1     4.406e+00  
    2     5.840e+00  
    3     1.076e+00  
    4     2.565e-01  
    5     6.577e-02  
    6     2.672e-02  
    7     8.230e-03  
    8     1.438e-03  
    9     5.339e-04  
   10     8.983e-05  
   11     2.815e-05  
   12     4.361e-06  
   13     1.405e-06  
   14     4.276e-07  Converged.
   ... Converged in 14 steps (norm: 4.27557e-07)
------------------------------------
  Starting TPA DIIS iterations ... 
------------------------------------ 
   It     Res. Norm  Remark
------------------------------------
                       Guess.
    1     4.183e+00  
    2     5.538e+00  
    3     1.030e+00  
    4     2.558e-01  
    5     6.537e-02  
    6     2.674e-02  
    7     8.117e-03  
    8     1.456e-03  
    9     5.375e-04  
   10     8.995e-05  
   11     2.841e-05  
   12     4.331e-06  
   13     1.422e-06  
   14     4.219e-07  Converged.
   ... Converged in 14 steps (norm: 4.21874e-07)
------------------------------------
  Starting TPA DIIS iterations ... 
------------------------------------ 
   It     Res. Norm  Remark
------------------------------------
                       Guess.
    1     6.886e-01  
    2     4.833e-01  
    3     1.704e-01  
    4     6.019e-02  
    5     1.837e-02  
    6     6.643e-03  
    7     1.039e-03  
    8     4.492e-04  
    9     1.236e-04  
   10     3.050e-05  
   11     4.890e-06  
   12     1.524e-06  
   13     7.575e-07  Converged.
   ... Converged in 13 steps (norm: 7.5752e-07)
------------------------------------
  Starting TPA DIIS iterations ... 
------------------------------------ 
   It     Res. Norm  Remark
------------------------------------
                       Guess.
    1     4.695e+00  
    2     6.360e+00  
    3     1.158e+00  
    4     2.853e-01  
    5     7.416e-02  
    6     3.038e-02  
    7     9.342e-03  
    8     1.630e-03  
    9     6.097e-04  
   10     1.031e-04  
   11     3.265e-05  
   12     5.101e-06  
   13     1.655e-06  
   14     5.035e-07  Converged.
   ... Converged in 14 steps (norm: 5.03533e-07)
------------------------------------
  Starting TPA DIIS iterations ... 
------------------------------------ 
   It     Res. Norm  Remark
------------------------------------
                       Guess.
    1     4.456e+00  
    2     6.031e+00  
    3     1.108e+00  
    4     2.843e-01  
    5     7.373e-02  
    6     3.043e-02  
    7     9.216e-03  
    8     1.652e-03  
    9     6.139e-04  
   10     1.033e-04  
   11     3.293e-05  
   12     5.062e-06  
   13     1.674e-06  
   14     4.968e-07  Converged.
   ... Converged in 14 steps (norm: 4.96789e-07)
------------------------------------
  Starting TPA DIIS iterations ... 
------------------------------------ 
   It     Res. Norm  Remark
------------------------------------
                       Guess.
    1     7.007e-01  
    2     5.008e-01  
    3     1.803e-01  
    4     6.816e-02  
    5     1.979e-02  
    6     7.266e-03  
    7     1.174e-03  
    8     5.303e-04  
    9     1.498e-04  
   10     3.515e-05  
   11     5.533e-06  
   12     1.795e-06  
   13     9.512e-07  Converged.
   ... Converged in 13 steps (norm: 9.51221e-07)
------------------------------------
  Starting TPA DIIS iterations ... 
------------------------------------ 
   It     Res. Norm  Remark
------------------------------------
                       Guess.
    1     4.802e+00  
    2     6.553e+00  
    3     1.188e+00  
    4     2.961e-01  
    5     7.734e-02  
    6     3.178e-02  
    7     9.764e-03  
    8     1.702e-03  
    9     6.386e-04  
   10     1.082e-04  
   11     3.438e-05  
   12     5.386e-06  
   13     1.753e-06  
   14     5.329e-07  Converged.
   ... Converged in 14 steps (norm: 5.32927e-07)
------------------------------------
  Starting TPA DIIS iterations ... 
------------------------------------ 
   It     Res. Norm  Remark
------------------------------------
                       Guess.
    1     4.557e+00  
    2     6.214e+00  
    3     1.136e+00  
    4     2.951e-01  
    5     7.689e-02  
    6     3.184e-02  
    7     9.633e-03  
    8     1.726e-03  
    9     6.429e-04  
   10     1.084e-04  
   11     3.467e-05  
   12     5.344e-06  
   13     1.772e-06  
   14     5.258e-07  Converged.
   ... Converged in 14 steps (norm: 5.25818e-07)
------------------------------------
  Starting TPA DIIS iterations ... 
------------------------------------ 
   It     Res. Norm  Remark
------------------------------------
                       Guess.
    1     7.050e-01  
    2     5.071e-01  
    3     1.840e-01  
    4     7.123e-02  
    5     2.031e-02  
    6     7.502e-03  
    7     1.226e-03  
    8     5.621e-04  
    9     1.600e-04  
   10     3.660e-05  
   11     5.770e-06  
   12     1.901e-06  
   13     1.031e-06  
   14     3.482e-07  Converged.
   ... Converged in 14 steps (norm: 3.48156e-07)
------------------------------------
  Starting TPA DIIS iterations ... 
------------------------------------ 
   It     Res. Norm  Remark
------------------------------------
                       Guess.
    1     5.544e+00  
    2     7.937e+00  
    3     1.396e+00  
    4     3.764e-01  
    5     1.008e-01  
    6     4.216e-02  
    7     1.287e-02  
    8     2.235e-03  
    9     8.531e-04  
   10     1.460e-04  
   11     4.754e-05  
   12     7.555e-06  
   13     2.509e-06  
   14     7.595e-07  Converged.
   ... Converged in 14 steps (norm: 7.59506e-07)
------------------------------------
  Starting TPA DIIS iterations ... 
------------------------------------ 
   It     Res. Norm  Remark
------------------------------------
                       Guess.
    1     5.259e+00  
    2     7.526e+00  
    3     1.334e+00  
    4     3.743e-01  
    5     1.002e-01  
    6     4.232e-02  
    7     1.271e-02  
    8     2.269e-03  
    9     8.587e-04  
   10     1.463e-04  
   11     4.784e-05  
   12     7.483e-06  
   13     2.531e-06  
   14     7.506e-07  Converged.
   ... Converged in 14 steps (norm: 7.506e-07)
------------------------------------
  Starting TPA DIIS iterations ... 
------------------------------------ 
   It     Res. Norm  Remark
------------------------------------
                       Guess.
    1     7.320e-01  
    2     5.486e-01  
    3     2.085e-01  
    4     9.456e-02  
    5     2.387e-02  
    6     9.247e-03  
    7     1.626e-03  
    8     8.027e-04  
    9     2.364e-04  
   10     4.266e-05  
   11     7.446e-06  
   12     2.736e-06  
   13     1.704e-06  
   14     5.074e-07  Converged.
   ... Converged in 14 steps (norm: 5.07426e-07)
------------------------------------
  Starting TPA DIIS iterations ... 
------------------------------------ 
   It     Res. Norm  Remark
------------------------------------
                       Guess.
    1     6.052e+00  
    2     8.917e+00  
    3     1.537e+00  
    4     4.354e-01  
    5     1.180e-01  
    6     4.989e-02  
    7     1.516e-02  
    8     2.626e-03  
    9     1.013e-03  
   10     1.742e-04  
   11     5.754e-05  
   12     9.204e-06  
   13     3.100e-06  
   14     9.371e-07  Converged.
   ... Converged in 14 steps (norm: 9.3714e-07)
------------------------------------
  Starting TPA DIIS iterations ... 
------------------------------------ 
   It     Res. Norm  Remark
------------------------------------
                       Guess.
    1     5.740e+00  
    2     8.454e+00  
    3     1.469e+00  
    4     4.326e-01  
    5     1.174e-01  
    6     5.013e-02  
    7     1.498e-02  
    8     2.668e-03  
    9     1.019e-03  
   10     1.745e-04  
   11     5.783e-05  
   12     9.109e-06  
   13     3.121e-06  
   14     9.282e-07  Converged.
   ... Converged in 14 steps (norm: 9.2824e-07)
------------------------------------
  Starting TPA DIIS iterations ... 
------------------------------------ 
   It     Res. Norm  Remark
------------------------------------
                       Guess.
    1     7.483e-01  
    2     5.751e-01  
    3     2.247e-01  
    4     1.123e-01  
    5     2.634e-02  
    6     1.054e-02  
    7     1.937e-03  
    8     9.758e-04  
    9     2.902e-04  
   10     4.388e-05  
   11     8.653e-06  
   12     3.391e-06  
   13     2.282e-06  
   14     6.279e-07  Converged.
   ... Converged in 14 steps (norm: 6.27913e-07)
------------------------------------
  Starting TPA DIIS iterations ... 
------------------------------------ 
   It     Res. Norm  Remark
------------------------------------
                       Guess.
    1     6.551e+00  
    2     9.905e+00  
    3     1.675e+00  
    4     4.964e-01  
    5     1.357e-01  
    6     5.794e-02  
    7     1.753e-02  
    8     3.029e-03  
    9     1.179e-03  
   10     2.035e-04  
   11     6.807e-05  
   12     1.094e-05  
   13     3.733e-06  
   14     1.131e-06  
   15     3.978e-07  Converged.
   ... Converged in 15 steps (norm: 3.97756e-07)
------------------------------------
  Starting TPA DIIS iterations ... 
------------------------------------ 
   It     Res. Norm  Remark
------------------------------------
                       Guess.
    1     6.213e+00  
    2     9.390e+00  
    3     1.600e+00  
    4     4.927e-01  
    5     1.351e-01  
    6     5.828e-02  
    7     1.732e-02  
    8     3.079e-03  
    9     1.186e-03  
   10     2.039e-04  
   11     6.831e-05  
   12     1.082e-05  
   13     3.749e-06  
   14     1.123e-06  
   15     3.576e-07  Converged.
   ... Converged in 15 steps (norm: 3.57593e-07)
------------------------------------
  Starting TPA DIIS iterations ... 
------------------------------------ 
   It     Res. Norm  Remark
------------------------------------
                       Guess.
    1     7.628e-01  
    2     5.999e-01  
    3     2.402e-01  
    4     1.311e-01  
    5     2.884e-02  
    6     1.189e-02  
    7     2.271e-03  
    8     1.141e-03  
    9     3.421e-04  
   10     4.422e-05  
   11     9.912e-06  
   12     4.094e-06  
   13     2.935e-06  
   14     7.537e-07  Converged.
   ... Converged in 14 steps (norm: 7.53748e-07)
------------------------------------
  Starting TPA DIIS iterations ... 
------------------------------------ 
   It     Res. Norm  Remark
------------------------------------
                       Guess.
    1     8.656e+00  
    2     1.431e+01  
    3     2.248e+00  
    4     7.809e-01  
    5     2.188e-01  
    6     9.634e-02  
    7     2.857e-02  
    8     4.899e-03  
    9     1.968e-03  
   10     3.422e-04  
   11     1.179e-04  
   12     1.922e-05  
   13     6.798e-06  
   14     2.178e-06  
   15     8.015e-07  Converged.
   ... Converged in 15 steps (norm: 8.0155e-07)
------------------------------------
  Starting TPA DIIS iterations ... 
------------------------------------ 
   It     Res. Norm  Remark
------------------------------------
                       Guess.
    1     8.206e+00  
    2     1.357e+01  
    3     2.145e+00  
    4     7.723e-01  
    5     2.180e-01  
    6     9.718e-02  
    7     2.826e-02  
    8     4.987e-03  
    9     1.978e-03  
   10     3.427e-04  
   11     1.177e-04  
   12     1.902e-05  
   13     6.748e-06  
   14     2.198e-06  
   15     6.704e-07  Converged.
   ... Converged in 15 steps (norm: 6.70383e-07)
------------------------------------
  Starting TPA DIIS iterations ... 
------------------------------------ 
   It     Res. Norm  Remark
------------------------------------
                       Guess.
    1     8.130e-01  
    2     6.936e-01  
    3     3.017e-01  
    4     2.200e-01  
    5     4.018e-02  
    6     1.813e-02  
    7     3.943e-03  
    8     1.671e-03  
    9     5.418e-04  
   10     5.172e-05  
   11     1.608e-05  
   12     7.514e-06  
   13     6.450e-06  
   14     1.343e-06  
   15     4.661e-07  Converged.
   ... Converged in 15 steps (norm: 4.66099e-07)
------------------------------------
  Starting TPA DIIS iterations ... 
------------------------------------ 
   It     Res. Norm  Remark
------------------------------------
                       Guess.
    1     1.049e+01  
    2     1.843e+01  
    3     2.734e+00  
    4     1.057e+00  
    5     3.002e-01  
    6     1.348e-01  
    7     3.939e-02  
    8     6.718e-03  
    9     2.756e-03  
   10     4.794e-04  
   11     1.655e-04  
   12     2.750e-05  
   13     9.787e-06  
   14     3.425e-06  
   15     1.300e-06  
   16     5.136e-07  Converged.
   ... Converged in 16 steps (norm: 5.13591e-07)
------------------------------------
  Starting TPA DIIS iterations ... 
------------------------------------ 
   It     Res. Norm  Remark
------------------------------------
                       Guess.
    1     9.945e+00  
    2     1.747e+01  
    3     2.608e+00  
    4     1.043e+00  
    5     2.992e-01  
    6     1.362e-01  
    7     3.898e-02  
    8     6.842e-03  
    9     2.767e-03  
   10     4.798e-04  
   11     1.647e-04  
   12     2.731e-05  
   13     9.620e-06  
   14     3.496e-06  
   15     1.038e-06  
   16     6.060e-07  Converged.
   ... Converged in 16 steps (norm: 6.06005e-07)
------------------------------------
  Starting TPA DIIS iterations ... 
------------------------------------ 
   It     Res. Norm  Remark
------------------------------------
                       Guess.
    1     8.469e-01  
    2     7.652e-01  
    3     3.513e-01  
    4     3.025e-01  
    5     5.097e-02  
    6     2.390e-02  
    7     5.648e-03  
    8     1.890e-03  
    9     6.958e-04  
   10     6.912e-05  
   11     2.247e-05  
   12     1.090e-05  
   13     1.034e-05  
   14     1.916e-06  
   15     6.342e-07  Converged.
   ... Converged in 15 steps (norm: 6.342e-07)
------------------------------------
  Starting TPA DIIS iterations ... 
------------------------------------ 
   It     Res. Norm  Remark
------------------------------------
                       Guess.
    1     1.143e+01  
    2     2.063e+01  
    3     2.978e+00  
    4     1.206e+00  
    5     3.444e-01  
    6     1.560e-01  
    7     4.527e-02  
    8     7.705e-03  
    9     3.189e-03  
   10     5.542e-04  
   11     1.906e-04  
   12     3.210e-05  
   13     1.144e-05  
   14     4.183e-06  
   15     1.636e-06  
   16     6.707e-07  Converged.
   ... Converged in 16 steps (norm: 6.70678e-07)
------------------------------------
  Starting TPA DIIS iterations ... 
------------------------------------ 
   It     Res. Norm  Remark
------------------------------------
                       Guess.
    1     1.083e+01  
    2     1.956e+01  
    3     2.840e+00  
    4     1.188e+00  
    5     3.434e-01  
    6     1.578e-01  
    7     4.480e-02  
    8     7.848e-03  
    9     3.199e-03  
   10     5.545e-04  
   11     1.895e-04  
   12     3.197e-05  
   13     1.119e-05  
   14     4.287e-06  
   15     1.297e-06  
   16     8.129e-07  Converged.
   ... Converged in 16 steps (norm: 8.12903e-07)
------------------------------------
  Starting TPA DIIS iterations ... 
------------------------------------ 
   It     Res. Norm  Remark
------------------------------------
                       Guess.
    1     8.618e-01  
    2     7.991e-01  
    3     3.755e-01  
    4     3.435e-01  
    5     5.671e-02  
    6     2.681e-02  
    7     6.571e-03  
    8     1.948e-03  
    9     7.701e-04  
   10     7.978e-05  
   11     2.604e-05  
   12     1.277e-05  
   13     1.261e-05  
   14     2.238e-06  
   15     7.450e-07  Converged.
   ... Converged in 15 steps (norm: 7.45001e-07)
------------------------------------
  Starting TPA DIIS iterations ... 
------------------------------------ 
   It     Res. Norm  Remark
------------------------------------
                       Guess.
    1     1.239e+01  
    2     2.295e+01  
    3     3.225e+00  
    4     1.362e+00  
    5     3.915e-01  
    6     1.788e-01  
    7     5.152e-02  
    8     8.752e-03  
    9     3.653e-03  
   10     6.337e-04  
   11     2.168e-04  
   12     3.710e-05  
   13     1.327e-05  
   14     5.045e-06  
   15     2.054e-06  
   16     8.602e-07  Converged.
   ... Converged in 16 steps (norm: 8.60213e-07)
------------------------------------
  Starting TPA DIIS iterations ... 
------------------------------------ 
   It     Res. Norm  Remark
------------------------------------
                       Guess.
    1     1.174e+01  
    2     2.175e+01  
    3     3.075e+00  
    4     1.341e+00  
    5     3.903e-01  
    6     1.809e-01  
    7     5.100e-02  
    8     8.915e-03  
    9     3.663e-03  
   10     6.340e-04  
   11     2.155e-04  
   12     3.708e-05  
   13     1.291e-05  
   14     5.187e-06  
   15     1.631e-06  
   16     1.068e-06  
   17     5.248e-07  Converged.
   ... Converged in 17 steps (norm: 5.24849e-07)
------------------------------------
  Starting TPA DIIS iterations ... 
------------------------------------ 
   It     Res. Norm  Remark
------------------------------------
                       Guess.
    1     8.757e-01  
    2     8.324e-01  
    3     3.994e-01  
    4     3.837e-01  
    5     6.271e-02  
    6     2.970e-02  
    7     7.541e-03  
    8     1.990e-03  
    9     8.441e-04  
   10     9.119e-05  
   11     2.993e-05  
   12     1.483e-05  
   13     1.516e-05  
   14     2.604e-06  
   15     9.026e-07  Converged.
   ... Converged in 15 steps (norm: 9.02634e-07)
------------------------------------
  Two-photon absorbption ...  CPU 163.86 s  wall 43.48 s
  Transition density matrix of state singlet_A_1 printed to ASCII file 'State_singlet_A_1_Transition.txt'
  Transition density matrix of state singlet_A_2 printed to ASCII file 'State_singlet_A_2_Transition.txt'
  Transition density matrix of state singlet_A_3 printed to ASCII file 'State_singlet_A_3_Transition.txt'
  Transition density matrix of state singlet_A_4 printed to ASCII file 'State_singlet_A_4_Transition.txt'
  Transition density matrix of state singlet_A_5 printed to ASCII file 'State_singlet_A_5_Transition.txt'
  Transition density matrix of state singlet_A_6 printed to ASCII file 'State_singlet_A_6_Transition.txt'
  Transition density matrix of state singlet_A_7 printed to ASCII file 'State_singlet_A_7_Transition.txt'
  Transition density matrix of state singlet_A_8 printed to ASCII file 'State_singlet_A_8_Transition.txt'
  Transition density matrix of state singlet_A_9 printed to ASCII file 'State_singlet_A_9_Transition.txt'
  Transition density matrix of state singlet_A_10 printed to ASCII file 'State_singlet_A_10_Transition.txt'
  Transition properties ...  CPU 0.31 s  wall 0.37 s
  Difference density matrix of state singlet_A_1 printed to ASCII file 'State_singlet_A_1_Difference.txt'
  Total density matrix of state singlet_A_1 printed to ASCII file 'State_singlet_A_1_Total.txt'
  Difference density matrix of state singlet_A_2 printed to ASCII file 'State_singlet_A_2_Difference.txt'
  Total density matrix of state singlet_A_2 printed to ASCII file 'State_singlet_A_2_Total.txt'
  Difference density matrix of state singlet_A_3 printed to ASCII file 'State_singlet_A_3_Difference.txt'
  Total density matrix of state singlet_A_3 printed to ASCII file 'State_singlet_A_3_Total.txt'
  Difference density matrix of state singlet_A_4 printed to ASCII file 'State_singlet_A_4_Difference.txt'
  Total density matrix of state singlet_A_4 printed to ASCII file 'State_singlet_A_4_Total.txt'
  Difference density matrix of state singlet_A_5 printed to ASCII file 'State_singlet_A_5_Difference.txt'
  Total density matrix of state singlet_A_5 printed to ASCII file 'State_singlet_A_5_Total.txt'
  Difference density matrix of state singlet_A_6 printed to ASCII file 'State_singlet_A_6_Difference.txt'
  Total density matrix of state singlet_A_6 printed to ASCII file 'State_singlet_A_6_Total.txt'
  Difference density matrix of state singlet_A_7 printed to ASCII file 'State_singlet_A_7_Difference.txt'
  Total density matrix of state singlet_A_7 printed to ASCII file 'State_singlet_A_7_Total.txt'
  Difference density matrix of state singlet_A_8 printed to ASCII file 'State_singlet_A_8_Difference.txt'
  Total density matrix of state singlet_A_8 printed to ASCII file 'State_singlet_A_8_Total.txt'
  Difference density matrix of state singlet_A_9 printed to ASCII file 'State_singlet_A_9_Difference.txt'
  Total density matrix of state singlet_A_9 printed to ASCII file 'State_singlet_A_9_Total.txt'
  Difference density matrix of state singlet_A_10 printed to ASCII file 'State_singlet_A_10_Difference.txt'
  Total density matrix of state singlet_A_10 printed to ASCII file 'State_singlet_A_10_Total.txt'
  Properties ...  CPU 1.29 s  wall 0.98 s
  ISR TDMS ...  CPU 40.01 s  wall 11.55 s
  ISR transition properties ...  CPU 0.40 s  wall 0.15 s
  Sum-over-states TPA ...  CPU 0.00 s  wall 0.00 s

--------------------------------------------------------------------------------
                   State-averaged natural transition orbitals
--------------------------------------------------------------------------------
--------------------------------------------------------------------------------
  SA-NTO decomposition ...  CPU 0.01 s  wall 0.02 s

--------------------------------------------------------------------------------
                             Excited State Summary
--------------------------------------------------------------------------------
--------------------------------------------------------------------------------

  Excited state 1 (singlet, A)                                     [converged]
  ----------------------------------------------------------------------------
  Term symbol:  2 (1) A                                     R^2 =  1.55422e-13

  Total energy:                                            -77.9985447982 a.u.
  Excitation energy:                                               8.737516 eV

  Osc. strength:                                                      0.445705
  Trans. dip. moment [a.u.]:           [   1.045174,   -0.994799,   -0.009337]
  <i|r^2|0> [a.u.]:                    [   6.162732,   -0.246632,   -0.000173]
  Two-photon absorption cross-section (SoS) [a.u.]:                   0.000090
  Two-photon absorption matrix (SoS) [a.u.]:
                                       |    0.001583    0.000077   -0.000283 |
                                       |    0.000077    0.002236    0.000265 |
                                       |   -0.000283    0.000265    0.001278 |
  Two-photon absorption cross-section [a.u.]:                         0.000055
  Two-photon absorption matrix [a.u.]:
                                       |   -0.001792   -0.000876    0.000258 |
                                       |   -0.000876   -0.001048    0.001577 |
                                       |    0.000258    0.001577    0.000915 |

  Dip. moment [a.u.]:                  [  -0.000226,    0.000128,    0.000474]
  Total dipole [Debye]:                                               0.001373
  <r^2> [a.u.]:                        [ 176.057392,   35.653794,   11.868639]
  Total <r^2> [a.u.]:                                               223.579825

  V1^2 = 0.9715, V2^2 = 0.0285

  Important amplitudes:
      occ i     occ j     vir a      vir b          v   
    -----------------------------------------------------
     8 (A) A              9 (A) A                 0.6811
     6 (A) A             14 (A) A                 0.0623
     4 (A) A             10 (A) A                 0.0608
     7 (A) A             16 (A) A                 0.0568
     5 (A) A             13 (A) A                -0.0513
     6 (A) A             23 (A) A                 0.0487
     8 (A) A             20 (A) A                 0.0350
     6 (A) A             19 (A) A                 0.0308
     3 (A) A             12 (A) A                -0.0281
     5 (A) A             22 (A) A                -0.0215
     7 (A) A             11 (A) A                 0.0211
     4 (A) A             24 (A) A                 0.0188
     3 (A) A             26 (A) A                -0.0185
     8 (A) A   8 (A) B   17 (A) A   20 (A) B     -0.0184
     8 (A) A   8 (A) B    9 (A) A   28 (A) B     -0.0168
     6 (A) A             26 (A) A                 0.0163
     7 (A) A             21 (A) A                 0.0149
     3 (A) A             14 (A) A                -0.0139
     6 (A) A             12 (A) A                -0.0133
     3 (A) A   4 (A) B    9 (A) A    9 (A) B     -0.0129
     3 (A) A             19 (A) A                -0.0119
     8 (A) A   8 (A) B   18 (A) A   19 (A) B      0.0113
     7 (A) A             32 (A) A                 0.0096
     7 (A) A             36 (A) A                 0.0086
     3 (A) A             23 (A) A                -0.0081
     8 (A) A   8 (A) B   25 (A) A   29 (A) B      0.0076
     6 (A) A             35 (A) A                 0.0073
     6 (A) A             40 (A) A                 0.0068
     3 (A) A   6 (A) B    9 (A) A   28 (A) B      0.0065
     6 (A) A   8 (A) A   19 (A) A   28 (A) A      0.0061
     5 (A) A   7 (A) B    9 (A) A    9 (A) B     -0.0060
     5 (A) A   8 (A) B   11 (A) A   20 (A) B     -0.0059
     7 (A) A   8 (A) B   13 (A) A   20 (A) B      0.0059
     5 (A) A   8 (A) B   16 (A) A    9 (A) B     -0.0059
     5 (A) A   8 (A) B   11 (A) A    9 (A) B      0.0058
     3 (A) A   5 (A) B    9 (A) A   25 (A) B     -0.0058
     3 (A) A             40 (A) A                -0.0057
     7 (A) A   8 (A) B   22 (A) A   20 (A) B      0.0057
     6 (A) A   8 (A) A    9 (A) A   18 (A) A      0.0057
     8 (A) A   8 (A) B   19 (A) A   30 (A) B      0.0056
    -----------------------------------------------------

  Density matrix analysis:
  ------------------------
  NOs
    Occupation of frontier NOs:
       0.9495   1.0217
    Number of electrons: 16.000000
    Number of unpaired electrons: n_u =  2.31345, n_u,nl =  2.03265
    NO participation ratio (PR_NO):  2.864268
  
  
  Mulliken Population Analysis
  Atom      Charge (e)              h+              e-           Del q
  --------------------------------------------------------------------
   1 H        0.058650        0.020293       -0.012541        0.007752
   2 C       -0.116131        0.490851       -0.506102       -0.015251
   3 H        0.057995        0.020155       -0.012603        0.007552
   4 C       -0.117028        0.490780       -0.506199       -0.015418
   5 H        0.057977        0.020172       -0.012587        0.007585
   6 H        0.058538        0.020306       -0.012526        0.007780
  --------------------------------------------------------------------
  Sum:       -0.000000        1.062558       -1.062558        0.000000
  
  Multipole moment analysis of the density matrix
    Molecular charge:                      -0.000000
    Number of electrons:                   16.000000
      Center of electronic charge [Ang]: [ -1.560256,  -0.065607,   0.001963]
    Total nuclear charge:                  16.000000
      Center of nuclear charge [Ang]:    [ -1.560264,  -0.065602,   0.001978]
    Dipole moment [D]:                     0.001373
      Cartesian components [D]:          [ -0.000573,   0.000325,   0.001204]
    RMS size of the density [Ang]:         1.214223
      Cartesian components [Ang]:        [  0.804312,   0.787211,   0.455761]
  
  Exciton analysis of the difference density matrix
    <r_h> [Ang]:                  [ -1.560134,  -0.065739,   0.001768]
    <r_e> [Ang]:                  [ -1.560168,  -0.065714,   0.001722]
    |<r_e - r_h>| [Ang]:            0.000062
    Hole size [Ang]:                1.285422
      Cartesian components [Ang]: [  0.728401,   0.712657,   0.783493]
    Electron size [Ang]:            1.463186
      Cartesian components [Ang]: [  0.854018,   0.830495,   0.849613]

  Transition density matrix analysis:
  -----------------------------------
  
  CT numbers (Mulliken)
    omega =     0.9535
    <Phe> =    -0.1606
  
  Exciton analysis of the transition density matrix
    Trans. dipole moment [D]:             1.833805
      Cartesian components [D]:         [  1.328283,  -1.264264,  -0.011866]
    <r_h> [Ang]:                        [ -1.560067,  -0.065819,   0.001804]
    <r_e> [Ang]:                        [ -1.560173,  -0.065701,   0.001693]
    |<r_e - r_h>| [Ang]:                  0.000194
    Hole size [Ang]:                      1.214155
      Cartesian components [Ang]:       [  0.649569,   0.636460,   0.804458]
    Electron size [Ang]:                  1.486020
      Cartesian components [Ang]:       [  0.864442,   0.839394,   0.869719]
    RMS electron-hole separation [Ang]:   1.936619
      Cartesian components [Ang]:       [  1.106696,   1.075053,   1.170460]
    Covariance(r_h, r_e) [Ang^2]:        -0.034032
    Correlation coefficient:             -0.018862
    Center-of-mass size [Ang]:            0.950574
      Cartesian components [Ang]:       [  0.527642,   0.515652,   0.599406]

  Decomposition into state-averaged NTOs
    H- 0 -> L+ 0: -0.6699 ( 89.8%)
    H- 2 -> L+ 5:  0.0837 (  1.4%)
                   omega =  95.4%
  ----------------------------------------------------------------------------


  Excited state 2 (singlet, A)                                     [converged]
  ----------------------------------------------------------------------------
  Term symbol:  3 (1) A                                     R^2 =  1.27039e-13

  Total energy:                                            -77.9868039338 a.u.
  Excitation energy:                                               9.057001 eV

  Osc. strength:                                                      0.000002
  Trans. dip. moment [a.u.]:           [   0.002143,   -0.002323,   -0.000912]
  <i|r^2|0> [a.u.]:                    [  -0.051173,   -0.087258,    0.150493]
  Two-photon absorption cross-section (SoS) [a.u.]:                   4.939959
  Two-photon absorption matrix (SoS) [a.u.]:
                                       |   -0.052521   -0.058916    0.542530 |
                                       |   -0.058916   -0.065579    0.556042 |
                                       |    0.542530    0.556042    0.118095 |
  Two-photon absorption cross-section [a.u.]:                         0.077255
  Two-photon absorption matrix [a.u.]:
                                       |    0.002826    0.006974   -0.054697 |
                                       |    0.006974    0.011994   -0.080195 |
                                       |   -0.054697   -0.080195   -0.014788 |

  Dip. moment [a.u.]:                  [  -0.004813,    0.002537,    0.000803]
  Total dipole [Debye]:                                               0.013978
  <r^2> [a.u.]:                        [ 174.469500,   33.960782,   13.172982]
  Total <r^2> [a.u.]:                                               221.603264

  V1^2 = 0.9542, V2^2 = 0.0458

  Important amplitudes:
      occ i     occ j     vir a      vir b          v   
    -----------------------------------------------------
     7 (A) A              9 (A) A                 0.6691
     8 (A) A             11 (A) A                 0.1489
     7 (A) A             20 (A) A                 0.0759
     5 (A) A   8 (A) B    9 (A) A    9 (A) B     -0.0316
     8 (A) A             16 (A) A                -0.0274
     8 (A) A             21 (A) A                 0.0176
     5 (A) A             28 (A) A                -0.0150
     4 (A) A   7 (A) B    9 (A) A   19 (A) B      0.0135
     5 (A) A   7 (A) B    9 (A) A   16 (A) B      0.0134
     7 (A) A   8 (A) B   20 (A) A   17 (A) B     -0.0105
     7 (A) A   8 (A) A    9 (A) A   28 (A) A      0.0098
     5 (A) A   8 (A) B    9 (A) A   20 (A) B     -0.0096
     4 (A) A   6 (A) B    9 (A) A   16 (A) B      0.0091
     5 (A) A   6 (A) A    9 (A) A   23 (A) A      0.0091
     5 (A) A   6 (A) A    9 (A) A   14 (A) A      0.0089
     5 (A) A   6 (A) B    9 (A) A   19 (A) B      0.0087
     8 (A) A   7 (A) B    9 (A) A   28 (A) B     -0.0085
     4 (A) A   5 (A) A    9 (A) A   10 (A) A     -0.0085
     6 (A) A   7 (A) B    9 (A) A   18 (A) B      0.0083
     5 (A) A   6 (A) B    9 (A) A   23 (A) B      0.0080
     3 (A) A   7 (A) B    9 (A) A   18 (A) B      0.0080
     5 (A) A   7 (A) A    9 (A) A   16 (A) A      0.0079
     4 (A) A   8 (A) B    9 (A) A   25 (A) B     -0.0077
     7 (A) A   8 (A) B   17 (A) A   20 (A) B     -0.0074
     4 (A) A   7 (A) B   19 (A) A    9 (A) B      0.0074
     5 (A) A   5 (A) B    9 (A) A   13 (A) B     -0.0072
     7 (A) A   8 (A) B   19 (A) A   18 (A) B      0.0072
     5 (A) A   8 (A) A    9 (A) A   20 (A) A     -0.0069
     4 (A) A   5 (A) B    9 (A) A   18 (A) B      0.0067
     7 (A) A   7 (A) B   20 (A) A   22 (A) B      0.0065
     7 (A) A   8 (A) B   17 (A) A    9 (A) B     -0.0065
     5 (A) A   6 (A) B    9 (A) A   14 (A) B      0.0063
     4 (A) A   7 (A) A    9 (A) A   19 (A) A      0.0061
     4 (A) A   5 (A) B   10 (A) A    9 (A) B      0.0061
     5 (A) A   7 (A) B   11 (A) A   20 (A) B     -0.0060
     4 (A) A   7 (A) B    9 (A) A   14 (A) B     -0.0060
     5 (A) A             38 (A) A                -0.0059
     8 (A) A             12 (A) A                -0.0058
     4 (A) A   8 (A) A    9 (A) A   25 (A) A     -0.0057
     6 (A) A   7 (A) A   19 (A) A   28 (A) A      0.0057
    -----------------------------------------------------

  Density matrix analysis:
  ------------------------
  NOs
    Occupation of frontier NOs:
       0.9576   1.0541
    Number of electrons: 16.000000
    Number of unpaired electrons: n_u =  2.35537, n_u,nl =  2.06304
    NO participation ratio (PR_NO):  3.029787
  
  
  Mulliken Population Analysis
  Atom      Charge (e)              h+              e-           Del q
  --------------------------------------------------------------------
   1 H        0.147547        0.121351       -0.024701        0.096649
   2 C       -0.301786        0.271310       -0.472215       -0.200905
   3 H        0.153769        0.127781       -0.024456        0.103325
   4 C       -0.302387        0.272627       -0.473405       -0.200778
   5 H        0.154187        0.128783       -0.024988        0.103795
   6 H        0.148671        0.121962       -0.024049        0.097913
  --------------------------------------------------------------------
  Sum:       -0.000000        1.043814       -1.043814        0.000000
  
  Multipole moment analysis of the density matrix
    Molecular charge:                      -0.000000
    Number of electrons:                   16.000000
      Center of electronic charge [Ang]: [ -1.560105,  -0.065686,   0.001952]
    Total nuclear charge:                  16.000000
      Center of nuclear charge [Ang]:    [ -1.560264,  -0.065602,   0.001978]
    Dipole moment [D]:                     0.013978
      Cartesian components [D]:          [ -0.012234,   0.006447,   0.002041]
    RMS size of the density [Ang]:         1.200086
      Cartesian components [Ang]:        [  0.787147,   0.768153,   0.480153]
  
  Exciton analysis of the difference density matrix
    <r_h> [Ang]:                  [ -1.562101,  -0.063282,   0.002077]
    <r_e> [Ang]:                  [ -1.559810,  -0.064477,   0.001864]
    |<r_e - r_h>| [Ang]:            0.002593
    Hole size [Ang]:                1.486196
      Cartesian components [Ang]: [  0.996566,   1.004464,   0.454629]
    Electron size [Ang]:            1.477498
      Cartesian components [Ang]: [  0.881341,   0.860063,   0.816413]

  Transition density matrix analysis:
  -----------------------------------
  
  CT numbers (Mulliken)
    omega =     0.9218
    <Phe> =    -0.0121
  
  Exciton analysis of the transition density matrix
    Trans. dipole moment [D]:             0.004180
      Cartesian components [D]:         [  0.002723,  -0.002952,  -0.001159]
    <r_h> [Ang]:                        [ -1.562464,  -0.062945,   0.002133]
    <r_e> [Ang]:                        [ -1.559476,  -0.064705,   0.001807]
    |<r_e - r_h>| [Ang]:                  0.003483
    Hole size [Ang]:                      1.514714
      Cartesian components [Ang]:       [  1.018798,   1.029109,   0.444232]
    Electron size [Ang]:                  1.474582
      Cartesian components [Ang]:       [  0.872056,   0.849340,   0.832184]
    RMS electron-hole separation [Ang]:   2.094146
      Cartesian components [Ang]:       [  1.325215,   1.319389,   0.942584]
    Covariance(r_h, r_e) [Ang^2]:         0.041658
    Correlation coefficient:              0.018651
    Center-of-mass size [Ang]:            1.066779
      Cartesian components [Ang]:       [  0.678358,   0.674557,   0.472039]

  Decomposition into state-averaged NTOs
    H- 1 -> L+ 0: -0.6614 ( 87.5%)
    H- 0 -> L+ 2: -0.1489 (  4.4%)
                   omega =  92.2%
  ----------------------------------------------------------------------------


  Excited state 3 (singlet, A)                                     [converged]
  ----------------------------------------------------------------------------
  Term symbol:  4 (1) A                                     R^2 =  9.55918e-14

  Total energy:                                            -77.9827809018 a.u.
  Excitation energy:                                               9.166473 eV

  Osc. strength:                                                      0.025073
  Trans. dip. moment [a.u.]:           [  -0.015368,   -0.020172,    0.333169]
  <i|r^2|0> [a.u.]:                    [  -0.091671,   -0.003704,   -0.002300]
  Two-photon absorption cross-section (SoS) [a.u.]:                   0.000656
  Two-photon absorption matrix (SoS) [a.u.]:
                                       |   -0.008254   -0.000262    0.000152 |
                                       |   -0.000262    0.007739   -0.002367 |
                                       |    0.000152   -0.002367   -0.003878 |
  Two-photon absorption cross-section [a.u.]:                         0.000534
  Two-photon absorption matrix [a.u.]:
                                       |   -0.007434    0.000399    0.000723 |
                                       |    0.000399    0.004575   -0.004115 |
                                       |    0.000723   -0.004115   -0.002649 |

  Dip. moment [a.u.]:                  [  -0.002472,   -0.001680,   -0.000738]
  Total dipole [Debye]:                                               0.007825
  <r^2> [a.u.]:                        [ 180.775317,   40.603520,   11.026877]
  Total <r^2> [a.u.]:                                               232.405713

  V1^2 = 0.9587, V2^2 = 0.0413

  Important amplitudes:
      occ i     occ j     vir a      vir b          v   
    -----------------------------------------------------
     8 (A) A             10 (A) A                -0.6891
     8 (A) A             24 (A) A                -0.0507
     8 (A) A             18 (A) A                 0.0313
     4 (A) A              9 (A) A                -0.0238
     8 (A) A   8 (A) B    9 (A) A   12 (A) B      0.0219
     8 (A) A   8 (A) B   10 (A) A   17 (A) B     -0.0173
     8 (A) A             15 (A) A                -0.0171
     5 (A) A   8 (A) B   11 (A) A   10 (A) B     -0.0165
     7 (A) A   8 (A) B   13 (A) A   10 (A) B      0.0141
     4 (A) A   8 (A) B   12 (A) A   10 (A) B      0.0111
     6 (A) A   8 (A) A   10 (A) A   15 (A) A     -0.0110
     7 (A) A   8 (A) B   22 (A) A   10 (A) B      0.0108
     6 (A) A   8 (A) B   15 (A) A   10 (A) B      0.0107
     4 (A) A   8 (A) A   10 (A) A   12 (A) A     -0.0106
     7 (A) A   8 (A) A   10 (A) A   22 (A) A     -0.0099
     7 (A) A   8 (A) A   10 (A) A   13 (A) A     -0.0097
     5 (A) A   8 (A) B   21 (A) A   10 (A) B     -0.0094
     5 (A) A   8 (A) A   10 (A) A   11 (A) A      0.0094
     6 (A) A   8 (A) A   10 (A) A   18 (A) A     -0.0088
     6 (A) A   8 (A) B   10 (A) A   10 (A) B     -0.0087
     7 (A) A   8 (A) A   12 (A) A   16 (A) A      0.0082
     5 (A) A   8 (A) A   10 (A) A   21 (A) A      0.0079
     3 (A) A   4 (A) B   10 (A) A    9 (A) B      0.0079
     4 (A) A   8 (A) B   19 (A) A   10 (A) B      0.0075
     8 (A) A   8 (A) B    9 (A) A   23 (A) B     -0.0075
     8 (A) A   8 (A) B   10 (A) A   28 (A) B      0.0073
     3 (A) A   8 (A) B   10 (A) A   10 (A) B     -0.0072
     5 (A) A   8 (A) B   10 (A) A   11 (A) B     -0.0071
     3 (A) A   8 (A) A   10 (A) A   24 (A) A      0.0071
     7 (A) A   8 (A) B   16 (A) A   12 (A) B     -0.0070
     3 (A) A   8 (A) B   10 (A) A   18 (A) B      0.0069
     8 (A) A   8 (A) B    9 (A) A   19 (A) B      0.0068
     6 (A) A   8 (A) B   18 (A) A   10 (A) B      0.0067
     3 (A) A   6 (A) B   10 (A) A   28 (A) B     -0.0062
     7 (A) A   8 (A) B   12 (A) A   11 (A) B      0.0058
     6 (A) A             28 (A) A                 0.0057
     3 (A) A   5 (A) B   10 (A) A   25 (A) B      0.0056
     5 (A) A   8 (A) A   10 (A) A   16 (A) A     -0.0056
     3 (A) A   8 (A) A   10 (A) A   18 (A) A      0.0056
     4 (A) A   8 (A) A   10 (A) A   23 (A) A      0.0055
    -----------------------------------------------------

  Density matrix analysis:
  ------------------------
  NOs
    Occupation of frontier NOs:
       0.9814   0.9850
    Number of electrons: 16.000000
    Number of unpaired electrons: n_u =  2.28526, n_u,nl =  2.02440
    NO participation ratio (PR_NO):  2.691955
  
  
  Mulliken Population Analysis
  Atom      Charge (e)              h+              e-           Del q
  --------------------------------------------------------------------
   1 H       -0.162812        0.053807       -0.267517       -0.213709
   2 C        0.326659        0.538347       -0.110808        0.427539
   3 H       -0.163742        0.053849       -0.268034       -0.214185
   4 C        0.326017        0.538075       -0.110448        0.427627
   5 H       -0.164114        0.053847       -0.268352       -0.214505
   6 H       -0.162009        0.053896       -0.266662       -0.212766
  --------------------------------------------------------------------
  Sum:       -0.000000        1.291821       -1.291821        0.000000
  
  Multipole moment analysis of the density matrix
    Molecular charge:                      -0.000000
    Number of electrons:                   16.000000
      Center of electronic charge [Ang]: [ -1.560182,  -0.065547,   0.002003]
    Total nuclear charge:                  16.000000
      Center of nuclear charge [Ang]:    [ -1.560264,  -0.065602,   0.001978]
    Dipole moment [D]:                     0.007825
      Cartesian components [D]:          [ -0.006282,  -0.004271,  -0.001877]
    RMS size of the density [Ang]:         1.276341
      Cartesian components [Ang]:        [  0.854238,   0.840439,   0.439302]
  
  Exciton analysis of the difference density matrix
    <r_h> [Ang]:                  [ -1.560161,  -0.065707,   0.001857]
    <r_e> [Ang]:                  [ -1.559268,  -0.064945,   0.002316]
    |<r_e - r_h>| [Ang]:            0.001260
    Hole size [Ang]:                1.410110
      Cartesian components [Ang]: [  0.833787,   0.819762,   0.788163]
    Electron size [Ang]:            2.075200
      Cartesian components [Ang]: [  1.372690,   1.376456,   0.726325]

  Transition density matrix analysis:
  -----------------------------------
  
  CT numbers (Mulliken)
    omega =     0.9259
    <Phe> =    -0.0109
  
  Exciton analysis of the transition density matrix
    Trans. dipole moment [D]:             0.424641
      Cartesian components [D]:         [ -0.019530,  -0.025636,   0.423416]
    <r_h> [Ang]:                        [ -1.560132,  -0.065928,   0.001740]
    <r_e> [Ang]:                        [ -1.558906,  -0.064774,   0.002442]
    |<r_e - r_h>| [Ang]:                  0.001824
    Hole size [Ang]:                      1.212925
      Cartesian components [Ang]:       [  0.636431,   0.623496,   0.823040]
    Electron size [Ang]:                  2.295420
      Cartesian components [Ang]:       [  1.517175,   1.523939,   0.802956]
    RMS electron-hole separation [Ang]:   2.586272
      Cartesian components [Ang]:       [  1.637761,   1.639569,   1.148197]
    Covariance(r_h, r_e) [Ang^2]:         0.025669
    Correlation coefficient:              0.009220
    Center-of-mass size [Ang]:            1.303023
      Cartesian components [Ang]:       [  0.826358,   0.826755,   0.575741]

  Decomposition into state-averaged NTOs
    H- 0 -> L+ 1: -0.6798 ( 92.4%)
                   omega =  92.6%
  ----------------------------------------------------------------------------


  Excited state 4 (singlet, A)                                     [converged]
  ----------------------------------------------------------------------------
  Term symbol:  5 (1) A                                     R^2 =  1.44909e-13

  Total energy:                                            -77.9583289514 a.u.
  Excitation energy:                                               9.831845 eV

  Osc. strength:                                                      0.000000
  Trans. dip. moment [a.u.]:           [   0.000854,   -0.000809,   -0.000575]
  <i|r^2|0> [a.u.]:                    [   0.022868,    0.018125,   -0.036146]
  Two-photon absorption cross-section (SoS) [a.u.]:                 149.376923
  Two-photon absorption matrix (SoS) [a.u.]:
                                       |    0.290601    0.324319   -3.019727 |
                                       |    0.324319    0.358074   -3.021844 |
                                       |   -3.019727   -3.021844   -0.648548 |
  Two-photon absorption cross-section [a.u.]:                        91.870077
  Two-photon absorption matrix [a.u.]:
                                       |    0.228933    0.254347   -2.359983 |
                                       |    0.254347    0.280041   -2.377959 |
                                       |   -2.359983   -2.377959   -0.508809 |

  Dip. moment [a.u.]:                  [   0.003118,    0.004158,   -0.000165]
  Total dipole [Debye]:                                               0.013217
  <r^2> [a.u.]:                        [ 181.267831,   40.519308,   10.768324]
  Total <r^2> [a.u.]:                                               232.555463

  V1^2 = 0.9635, V2^2 = 0.0365

  Important amplitudes:
      occ i     occ j     vir a      vir b          v   
    -----------------------------------------------------
     8 (A) A             11 (A) A                -0.6695
     7 (A) A              9 (A) A                 0.1509
     8 (A) A             21 (A) A                -0.0780
     8 (A) A             16 (A) A                 0.0644
     8 (A) A   8 (A) B    9 (A) A   13 (A) B      0.0167
     5 (A) A   8 (A) B   11 (A) A   11 (A) B     -0.0155
     8 (A) A   8 (A) B   11 (A) A   17 (A) B     -0.0140
     7 (A) A             20 (A) A                 0.0138
     7 (A) A   8 (A) B   13 (A) A   11 (A) B      0.0127
     8 (A) A             12 (A) A                 0.0123
     5 (A) A   8 (A) A   11 (A) A   21 (A) A      0.0110
     4 (A) A   8 (A) B   12 (A) A   11 (A) B      0.0110
     8 (A) A   8 (A) B    9 (A) A   22 (A) B      0.0107
     7 (A) A   8 (A) A   11 (A) A   22 (A) A     -0.0096
     6 (A) A              9 (A) A                 0.0091
     6 (A) A   8 (A) B   15 (A) A   11 (A) B      0.0090
     6 (A) A   8 (A) B   10 (A) A   11 (A) B     -0.0090
     7 (A) A   8 (A) B   22 (A) A   11 (A) B      0.0089
     3 (A) A   4 (A) B   11 (A) A    9 (A) B      0.0083
     3 (A) A   8 (A) B   11 (A) A   18 (A) B      0.0081
     6 (A) A   8 (A) A   11 (A) A   15 (A) A     -0.0080
     7 (A) A   8 (A) A   13 (A) A   16 (A) A      0.0078
     7 (A) A   8 (A) A   11 (A) A   13 (A) A     -0.0077
     5 (A) A   8 (A) B   21 (A) A   11 (A) B     -0.0071
     4 (A) A   8 (A) B   19 (A) A   11 (A) B      0.0070
     5 (A) A   8 (A) B    9 (A) A    9 (A) B     -0.0068
     4 (A) A   8 (A) A   11 (A) A   12 (A) A     -0.0063
     6 (A) A   8 (A) A   11 (A) A   18 (A) A     -0.0062
     3 (A) A   6 (A) B   11 (A) A   28 (A) B     -0.0060
     6 (A) A   8 (A) B   18 (A) A   11 (A) B      0.0060
     7 (A) A   8 (A) B   16 (A) A   13 (A) B     -0.0057
     3 (A) A   8 (A) A   11 (A) A   18 (A) A      0.0056
     5 (A) A   8 (A) B   10 (A) A   10 (A) B     -0.0056
     3 (A) A   8 (A) B   11 (A) A   30 (A) B      0.0055
     3 (A) A   5 (A) B   11 (A) A   25 (A) B      0.0054
     6 (A) A   8 (A) B   11 (A) A   10 (A) B     -0.0054
     7 (A) A   8 (A) B   12 (A) A   10 (A) B      0.0054
     8 (A) A   8 (A) B   20 (A) A   22 (A) B      0.0053
     3 (A) A   8 (A) A   11 (A) A   24 (A) A      0.0053
     5 (A) A   8 (A) A   11 (A) A   16 (A) A     -0.0049
    -----------------------------------------------------

  Density matrix analysis:
  ------------------------
  NOs
    Occupation of frontier NOs:
       0.9403   1.0283
    Number of electrons: 16.000000
    Number of unpaired electrons: n_u =  2.31925, n_u,nl =  2.04944
    NO participation ratio (PR_NO):  2.917296
  
  
  Mulliken Population Analysis
  Atom      Charge (e)              h+              e-           Del q
  --------------------------------------------------------------------
   1 H       -0.144323        0.045723       -0.240944       -0.195221
   2 C        0.274466        0.496744       -0.121397        0.375346
   3 H       -0.129950        0.047194       -0.227587       -0.180393
   4 C        0.273312        0.496749       -0.121827        0.374922
   5 H       -0.128134        0.047233       -0.225759       -0.178526
   6 H       -0.145370        0.045780       -0.241908       -0.196128
  --------------------------------------------------------------------
  Sum:       -0.000000        1.179423       -1.179423        0.000000
  
  Multipole moment analysis of the density matrix
    Molecular charge:                      -0.000000
    Number of electrons:                   16.000000
      Center of electronic charge [Ang]: [ -1.560367,  -0.065740,   0.001984]
    Total nuclear charge:                  16.000000
      Center of nuclear charge [Ang]:    [ -1.560264,  -0.065602,   0.001978]
    Dipole moment [D]:                     0.013217
      Cartesian components [D]:          [  0.007925,   0.010569,  -0.000418]
    RMS size of the density [Ang]:         1.277131
      Cartesian components [Ang]:        [  0.858933,   0.839547,   0.434121]
  
  Exciton analysis of the difference density matrix
    <r_h> [Ang]:                  [ -1.560360,  -0.065714,   0.001830]
    <r_e> [Ang]:                  [ -1.561890,  -0.067499,   0.002075]
    |<r_e - r_h>| [Ang]:            0.002364
    Hole size [Ang]:                1.395040
      Cartesian components [Ang]: [  0.818065,   0.807488,   0.790487]
    Electron size [Ang]:            2.124258
      Cartesian components [Ang]: [  1.442475,   1.403863,   0.678899]

  Transition density matrix analysis:
  -----------------------------------
  
  CT numbers (Mulliken)
    omega =     0.9298
    <Phe> =    -0.0135
  
  Exciton analysis of the transition density matrix
    Trans. dipole moment [D]:             0.001664
      Cartesian components [D]:         [  0.001085,  -0.001028,  -0.000731]
    <r_h> [Ang]:                        [ -1.560232,  -0.065634,   0.001769]
    <r_e> [Ang]:                        [ -1.562272,  -0.067785,   0.002099]
    |<r_e - r_h>| [Ang]:                  0.002983
    Hole size [Ang]:                      1.228089
      Cartesian components [Ang]:       [  0.657476,   0.651089,   0.807471]
    Electron size [Ang]:                  2.262189
      Cartesian components [Ang]:       [  1.536795,   1.495210,   0.721183]
    RMS electron-hole separation [Ang]:   2.563371
      Cartesian components [Ang]:       [  1.662992,   1.623031,   1.082173]
    Covariance(r_h, r_e) [Ang^2]:         0.027419
    Correlation coefficient:              0.009870
    Center-of-mass size [Ang]:            1.292337
      Cartesian components [Ang]:       [  0.840014,   0.819285,   0.541556]

  Decomposition into state-averaged NTOs
    H- 0 -> L+ 2:  0.6649 ( 88.4%)
    H- 1 -> L+ 0: -0.1489 (  4.4%)
                   omega =  93.0%
  ----------------------------------------------------------------------------


  Excited state 5 (singlet, A)                                     [converged]
  ----------------------------------------------------------------------------
  Term symbol:  6 (1) A                                     R^2 =  9.51755e-14

  Total energy:                                            -77.9444662338 a.u.
  Excitation energy:                                              10.209068 eV

  Osc. strength:                                                      0.000000
  Trans. dip. moment [a.u.]:           [  -0.000092,   -0.000102,   -0.000416]
  <i|r^2|0> [a.u.]:                    [  -0.088665,    0.103688,   -0.015763]
  Two-photon absorption cross-section (SoS) [a.u.]:                 172.570903
  Two-photon absorption matrix (SoS) [a.u.]:
                                       |   -0.313786   -0.039428    3.289076 |
                                       |   -0.039428    0.384931   -3.259689 |
                                       |    3.289076   -3.259689   -0.075986 |
  Two-photon absorption cross-section [a.u.]:                        75.729128
  Two-photon absorption matrix [a.u.]:
                                       |   -0.207832   -0.025280    2.161883 |
                                       |   -0.025280    0.255340   -2.176264 |
                                       |    2.161883   -2.176264   -0.053578 |

  Dip. moment [a.u.]:                  [   0.002730,   -0.002661,    0.000173]
  Total dipole [Debye]:                                               0.009702
  <r^2> [a.u.]:                        [ 178.207863,   38.259509,   11.955403]
  Total <r^2> [a.u.]:                                               228.422775

  V1^2 = 0.9574, V2^2 = 0.0426

[...]
    16   -1.475583828375e-03
    17   -1.752653428105e-03
    18   -1.145538759090e-04
    19   -3.277137157402e-03
    20    1.058636669727e-02
    21    9.309669751008e-01
    22   -2.865974636880e-04
    23    1.392210189784e-02
    24    8.111708413864e-04
    25    7.036762104421e-02
    26   -5.243498374803e-02
    27   -1.399448544740e+00
    28    9.732886244787e-02
    29   -9.353195570643e-02
    30   -1.098861663118e-03
    31    3.814384904500e-01
    32   -3.631655383454e-01
    33   -4.112850757261e-03
    34    1.556516737985e-02
    35   -1.470974160288e-03
    36   -1.775272282494e-03
    37   -1.460544079834e-04
    38   -3.209557530623e-03
    39    1.046609611490e-02
    40    9.333654702367e-01
    41    2.356365872239e-04
    42   -1.392301676170e-02
    43   -8.266900886348e-04
    44    1.025659245194e-02
    45    9.370057521259e-01
    46    1.411796218513e-02
    47    2.649601460867e-04
    48    6.775869760655e-04
Sym=X
Ene= 0.232870
Spin=Alpha
Occup=0
     1    2.611973086057e-02
     2    1.231157239906e+00
     3   -1.428901400251e-02
     4   -3.832513245885e-03
     5   -8.988019108860e-04
     6    3.068277628272e-03
     7   -3.637608384407e-03
     8   -4.550797411149e-02
     9   -1.544025376692e-01
    10   -1.586895588972e-01
    11   -1.666353832960e-02
    12   -5.550676047263e-01
    13   -5.569937492916e-01
    14   -5.906758946614e-02
    15    4.987161353804e-04
    16   -6.942181639411e-05
    17   -5.106447099087e-05
    18   -2.837458896503e-04
    19   -3.558110139124e-04
    20   -2.494350375735e-02
    21   -1.158769621906e+00
    22   -2.472919401793e-03
    23   -1.359822567812e-02
    24   -9.219598752256e-04
    25   -3.153785898558e-03
    26    3.687698683907e-03
    27    4.802140166145e-02
    28   -1.545473624371e-01
    29   -1.585664804918e-01
    30   -1.679940345499e-02
    31   -5.535152196176e-01
    32   -5.538983671515e-01
    33   -5.937570972207e-02
    34   -5.349442225742e-04
    35    7.436615520166e-05
    36    3.320519020675e-05
    37    3.884974607572e-04
    38    3.786400013869e-04
    39    2.497872878517e-02
    40    1.154037217401e+00
    41   -2.444001097209e-03
    42   -1.355904773138e-02
    43   -9.273419319039e-04
    44   -2.607942164683e-02
    45   -1.229554463552e+00
    46   -1.431147076393e-02
    47   -3.822023310970e-03
    48   -9.054317215741e-04
Sym=X
Ene= 0.239490
Spin=Alpha
Occup=0
     1    1.586951550113e-02
     2    1.047247965657e+00
     3   -1.646998577891e-02
     4   -9.104454601368e-03
     5   -1.326502480801e-03
     6    8.654797382639e-02
     7   -7.963187605828e-02
     8   -1.596421980691e+00
     9   -5.282785368708e-02
    10    6.133902418123e-02
    11    1.021848937538e-03
    12   -2.075681148377e-01
    13    2.384922644418e-01
    14    3.791851285917e-03
    15    2.258453090542e-02
    16   -2.616555244734e-03
    17   -2.969991055374e-03
    18    5.957461182599e-04
    19   -1.290853183112e-02
    20    1.707787675397e-02
    21    1.130630165722e+00
    22    8.543466723466e-03
    23    1.787659590120e-02
    24    1.457285335687e-03
    25   -8.644751392454e-02
    26    7.937764584572e-02
    27    1.595658390549e+00
    28   -5.293563191750e-02
    29    6.146329623885e-02
    30    1.346947815348e-03
    31   -2.087472678554e-01
    32    2.387740386014e-01
    33    5.107565211413e-03
    34   -2.257213136670e-02
    35    2.589972215109e-03
    36    3.001056846400e-03
    37   -5.723872055102e-04
    38    1.286483340980e-02
    39   -1.698522030012e-02
    40   -1.129284869394e+00
    41    8.599795273667e-03
    42    1.783674778508e-02
    43    1.482027817449e-03
    44   -1.583314942272e-02
    45   -1.047453176238e+00
    46   -1.646688250503e-02
    47   -9.150367619497e-03
    48   -1.310128315918e-03
Sym=X
Ene= 0.303230
Spin=Alpha
Occup=0
     1   -2.069147006878e-02
     2    1.695244244220e+00
     3   -2.294632253041e-02
     4    2.367907425758e-04
     5   -1.078328894242e-03
     6   -5.269584768102e-05
     7    2.647705303133e-04
     8   -5.231771780673e-03
     9   -1.343058442815e-01
    10   -1.395460783761e-01
    11   -1.460220318963e-02
    12   -1.143442458462e+00
    13   -1.195593891171e+00
    14   -1.249853727129e-01
    15   -2.105900747585e-05
    16   -1.650205621368e-03
    17    1.832915484497e-03
    18   -3.249579987254e-02
    19   -1.625531946735e-03
    20    1.979605524237e-02
    21   -1.689459025882e+00
    22    1.443431940276e-03
    23   -2.282004196777e-02
    24   -1.274465165287e-03
    25   -8.274580374739e-05
    26    2.620858804321e-04
    27   -4.766033776691e-03
    28    1.345854936699e-01
    29    1.398771289753e-01
    30    1.472058214408e-02
    31    1.143501805999e+00
    32    1.194629916470e+00
    33    1.252202830733e-01
    34   -1.910000324601e-05
    35   -1.595628551702e-03
    36    1.887864262329e-03
    37   -3.239635441518e-02
    38   -1.626309798838e-03
    39    1.945050176362e-02
    40   -1.690391308030e+00
    41   -1.500065693016e-03
    42    2.283605815398e-02
    43    1.295076218172e-03
    44   -2.043038407055e-02
    45    1.696383209212e+00
    46    2.294792112928e-02
    47   -2.930606459233e-04
    48    1.065300577070e-03
Sym=X
Ene= 0.461774
Spin=Alpha
Occup=0
     1   -1.143574952643e-01
     2   -7.146388456207e-01
     3   -1.561753824665e-02
     4   -1.024577628580e-02
     5   -1.340634948887e-03
     6    6.069647333506e-02
     7    1.735037385030e-02
     8   -3.587759325210e+00
     9    1.035272294320e-01
    10   -9.939864540654e-02
    11   -9.841050996653e-04
    12    2.421982995553e+00
    13   -2.298716740812e+00
    14   -2.101359178529e-02
    15    5.350764027878e-02
    16   -3.333191145677e-03
    17   -4.627175522522e-03
    18   -6.072103599527e-04
    19    1.819198439842e-02
    20   -1.206348941563e-01
    21   -7.012157535044e-01
    22    8.611269254773e-03
    23    1.643698009969e-02
    24    1.381125921774e-03
    25   -6.077935933169e-02
    26   -1.682708386844e-02
    27    3.588290137846e+00
    28    1.043889510462e-01
    29   -1.002984581171e-01
    30   -1.188199960099e-03
    31    2.420168240420e+00
    32   -2.296369100536e+00
    33   -2.182846303693e-02
    34   -5.308061949233e-02
    35    3.314764528927e-03
    36    4.569127629572e-03
    37    6.321896295852e-04
    38   -1.868983705530e-02
    39    1.183125894152e-01
    40    7.025218122760e-01
    41    8.482217300907e-03
    42    1.634269203340e-02
    43    1.371541904672e-03
    44    1.118259325062e-01
    45    7.174552872870e-01
    46   -1.553532312255e-02
    47   -1.013982893876e-02
    48   -1.347669971142e-03
Sym=X
Ene= 0.577250
Spin=Alpha
Occup=0
     1    2.492334652726e-01
     2    4.384477874190e-02
     3   -1.812721421812e-02
     4    2.562802726659e-02
     5    6.570161402577e-04
     6   -4.663931952170e-03
     7   -1.563402703388e-01
     8   -4.508585116674e-01
     9    2.975597430369e-01
    10   -2.869617002238e-01
    11   -2.917308465924e-03
    12   -7.294398540234e-01
    13    7.057025254658e-01
    14    7.356759765013e-03
    15   -6.354722776676e-03
    16    3.921662613121e-03
    17    3.786494408998e-03
    18   -4.288569796341e-03
    19    6.034375975210e-02
    20    2.551439499405e-01
    21    3.249399297304e-02
    22   -2.672700870828e-02
    23    1.639337047897e-02
    24   -2.968665954352e-04
    25   -5.233775541079e-03
    26   -1.567153409339e-01
    27   -4.235532812638e-01
    28   -2.964992762080e-01
    29    2.860754664414e-01
    30    2.888469704736e-03
    31    7.486265119502e-01
    32   -7.239529859451e-01
    33   -7.728734111884e-03
    34   -6.366899384811e-03
    35    3.916953559433e-03
    36    3.796139025640e-03
    37   -4.367149040420e-03
    38    6.031127905473e-02
    39    2.549046978525e-01
    40    4.006464613987e-02
    41    2.696538298694e-02
    42   -1.652589892396e-02
    43    2.841500003445e-04
    44    2.482763236309e-01
    45    5.262665865092e-02
    46    1.830845930153e-02
    47   -2.589676525702e-02
    48   -6.843112717623e-04
Sym=X
Ene= 0.615676
Spin=Alpha
Occup=0
     1   -5.224609239522e-01
     2    1.996491542202e-01
     3   -6.164063651364e-02
     4    3.778361775449e-02
     5   -6.982420978318e-04
     6   -6.194970756028e-04
     7    5.638808458704e-04
     8   -2.611192885665e-02
     9   -4.004734452998e-02
    10   -3.871553757538e-02
    11   -4.217580222345e-03
    12    3.081532092883e-01
    13    2.792397260182e-01
    14    3.099927042885e-02
    15    2.009855342635e-03
    16   -7.595738863455e-03
    17    8.280641546646e-03
    18   -1.485587261885e-01
    19   -6.005308285739e-03
    20    5.097107029887e-01
    21   -2.055347209063e-01
    22    4.163228314635e-02
    23   -5.854000681900e-02
    24   -1.490866266260e-03
    25    6.236927934284e-04
    26   -4.686344121308e-04
    27    2.475179726050e-02
    28   -4.043802663825e-02
    29   -3.861879147352e-02
    30   -4.191305710253e-03
    31    3.102343547559e-01
    32    2.796134479569e-01
    33    3.147237540220e-02
    34   -1.977451977839e-03
    35    7.485743702089e-03
    36   -8.479488036808e-03
    37    1.491775224400e-01
    38    6.013675616432e-03
    39   -5.113188200342e-01
    40    2.087689883807e-01
    41    4.148481956020e-02
    42   -5.865227101911e-02
    43   -1.544345779459e-03
    44    5.241104803511e-01
    45   -2.016898565032e-01
    46   -6.167997572544e-02
    47    3.756241317036e-02
    48   -6.552528416203e-04
Sym=X
Ene= 0.689154
Spin=Alpha
Occup=0
     1    3.117982996499e-04
     2    6.994903943541e-05
     3    1.054051536076e-03
     4    1.270031453431e-03
     5   -2.100796674566e-02
     6    2.187358099895e-05
     7    2.563006190070e-04
     8   -1.005816404778e-05
     9    3.158989567747e-02
    10    3.979089516967e-02
    11   -6.703052776454e-01
    12   -2.923197325681e-02
    13   -3.605068174259e-02
    14    6.134937029725e-01
    15   -1.364782653424e-03
    16    8.269549664488e-02
    17   -7.834983406440e-02
    18   -8.598132681841e-03
    19   -1.118275728384e-03
    20    3.406041845875e-04
    21   -7.433504451584e-05
    22    9.454992651348e-04
    23    1.167078598049e-03
    24   -2.093401325107e-02
    25    9.081637382256e-06
    26    3.779222781365e-04
    27   -3.722054764544e-04
    28    3.186390710362e-02
    29    3.982466028172e-02
    30   -6.702220268540e-01
    31   -2.954447170390e-02
    32   -3.614050684634e-02
    33    6.132985129624e-01
    34    1.157357872189e-03
    35   -8.271438691344e-02
    36    7.840674618174e-02
    37    8.546390069806e-03
    38    1.193401195721e-03
    39    1.339161063172e-04
    40   -4.417068599354e-04
    41    1.004795126882e-03
    42    1.341674236796e-03
    43   -2.086471820280e-02
    44    9.993627658561e-05
    45   -2.988408791990e-04
    46    9.095192377881e-04
    47    1.254295639093e-03
    48   -2.104799762253e-02
Sym=X
Ene= 0.708565
Spin=Alpha
Occup=0
     1   -4.742205478080e-01
     2    1.565193182568e-01
     3   -8.079978613236e-02
     4   -4.398960766751e-02
     5   -6.456630993968e-03
     6   -4.743504742287e-02
     7   -3.204818400356e-01
     8    4.925490525673e-01
     9    2.051390416205e-01
    10   -1.930241555259e-01
    11   -2.110549229710e-03
    12   -9.252333294328e-02
    13    7.497355450038e-02
    14    2.479155986418e-04
    15    1.936549266518e-01
    16   -2.042362043287e-02
    17   -2.380755144854e-02
    18    2.575293541646e-03
    19   -7.688743493064e-02
    20   -4.751519727637e-01
    21    1.456655038161e-01
    22    4.082900341967e-02
    23    8.123751695457e-02
    24    6.716701886939e-03
    25   -4.707364407004e-02
    26   -3.204302081435e-01
    27    4.720098912727e-01
    28   -2.047815895141e-01
    29    1.932257905561e-01
    30    1.396172754815e-03
    31    7.842808269518e-02
    32   -6.291724182060e-02
    33    6.841459189646e-04
    34    1.937841778964e-01
    35   -2.043277246279e-02
    36   -2.385039728299e-02
    37    2.526378986871e-03
    38   -7.605638601492e-02
    39   -4.745426760654e-01
    40    1.419039512136e-01
    41   -4.075849730151e-02
    42   -8.118188827359e-02
    43   -6.762637806341e-03
    44   -4.736580214670e-01
    45    1.512547966840e-01
    46    8.076561911821e-02
    47    4.383298583709e-02
    48    6.436210516303e-03
Sym=X
Ene= 0.784497
Spin=Alpha
Occup=0
     1    5.271004855318e-01
     2   -4.698891996004e-01
     3    1.100046486510e-01
     4    2.633167908011e-02
     5    6.774145817011e-03
     6    9.116953429614e-02
     7   -2.145096931825e-01
     8   -6.560332262151e-01
     9    1.107108453920e-01
    10   -1.048658356486e-01
    11   -2.749300563524e-04
    12    3.229267521270e-01
    13   -2.993550407338e-01
    14   -3.719118223087e-03
    15   -2.066993467011e-01
    16    1.756642702147e-02
    17    2.184700724280e-02
    18   -1.942826528942e-03
    19    9.952973221282e-03
    20    5.391122120652e-01
    21   -4.725482463857e-01
    22   -2.041621383226e-02
    23   -1.129183222530e-01
    24   -7.633300441656e-03
    25   -9.124045398732e-02
    26    2.146055471033e-01
    27    6.601216668622e-01
    28    1.114772799306e-01
    29   -1.049431575662e-01
    30   -1.527038042407e-03
    31    3.192840478394e-01
    32   -2.975390292899e-01
    33   -1.262081791952e-03
    34    2.068487038122e-01
    35   -1.748687924268e-02
    36   -2.214082821063e-02
    37    1.917718988913e-03
    38   -9.653703071675e-03
    39   -5.410840155485e-01
    40    4.725148636058e-01
    41   -2.059868857288e-02
    42   -1.128547853404e-01
    43   -7.710434705090e-03
    44   -5.285405113892e-01
    45    4.680956578363e-01
    46    1.098767451032e-01
    47    2.645611077481e-02
    48    6.776318446775e-03
Sym=X
Ene= 0.807978
Spin=Alpha
Occup=0
     1    4.042160077051e-04
     2   -6.610233608655e-04
     3    1.739670185753e-03
     4    2.010295605960e-03
     5   -3.380804245488e-02
     6    8.172510287010e-05
     7   -2.654778027957e-04
     8   -8.927876797926e-05
     9    3.627487336003e-02
    10    4.490842425824e-02
    11   -7.630874971452e-01
    12   -5.307987798665e-02
    13   -6.673600772303e-02
    14    1.127028632249e+00
    15    7.725662097488e-04
    16   -6.522613967923e-02
    17    6.188186883958e-02
    18    6.816922397234e-03
    19    8.751981882973e-04
    20    4.097611069075e-04
    21   -2.622414475242e-04
    22    1.664323540424e-03
    23    1.946408983140e-03
    24   -3.449142649977e-02
    25   -7.237402737170e-05
    26    5.996004509993e-05
    27    2.011981175992e-04
    28   -3.604119049306e-02
    29   -4.566499410818e-02
    30    7.631794193359e-01
    31    5.375179885805e-02
    32    6.697670251292e-02
    33   -1.126996881747e+00
    34    1.238030553246e-03
    35   -6.525219458843e-02
    36    6.183633044790e-02
    37    6.710323123319e-03
    38    9.685644271442e-04
    39   -4.062260180749e-04
    40    3.248315082916e-04
    41   -1.578318367284e-03
    42   -2.189353052591e-03
    43    3.432213162763e-02
    44   -4.040334827424e-04
    45    7.107640955387e-04
    46   -1.409194894195e-03
    47   -2.013508670094e-03
    48    3.372787362261e-02
Sym=X
Ene= 0.862241
Spin=Alpha
Occup=0
     1    1.269542988394e-02
     2   -1.094282999834e+00
     3    1.483788379246e-01
     4    5.647538917783e-02
     5    1.036289320838e-02
     6    2.928036129894e-04
     7   -1.797788593872e-03
     8    3.155227281286e-03
     9   -4.059566843347e-01
    10   -4.294533065856e-01
    11   -4.450142401332e-02
    12    9.462525193352e-01
    13    1.000943776694e+00
    14    1.037424001344e-01
    15   -8.968726744771e-04
    16    1.172313069726e-02
    17   -1.346818149708e-02
    18    2.351600486242e-01
    19    9.065758813868e-03
    20   -1.217005324670e-02
    21    1.102665848661e+00
    22    5.046486539959e-02
    23    1.510944092788e-01
    24    1.134422175582e-02
    25   -3.301596678519e-04
    26    1.048600868209e-03
    27   -2.601369819820e-03
    28   -4.068256044309e-01
    29   -4.303987669647e-01
    30   -4.503920533352e-02
    31    9.484038747442e-01
    32    1.002938229248e+00
    33    1.049533357743e-01
    34    1.075931843634e-03
    35   -1.174019218618e-02
    36    1.351703335117e-02
    37   -2.357862302914e-01
    38   -9.045623680607e-03
    39    1.169473861937e-02
    40   -1.103402575642e+00
    41    4.999779817628e-02
    42    1.514463658451e-01
    43    1.142842543576e-02
    44   -1.238501495429e-02
    45    1.094913872384e+00
    46    1.487741922550e-01
    47    5.593683470548e-02
    48    1.033010045956e-02
Sym=X
Ene= 0.935862
Spin=Alpha
Occup=0
     1    1.136733527925e-01
     2   -1.284057155451e+00
     3    1.813653207289e-01
     4   -5.153249186205e-03
     5    8.321337667730e-03
     6   -4.341188075166e-05
     7    3.898205370753e-03
     8   -4.152420599652e-03
     9   -4.746750742715e-01
    10   -4.982748228268e-01
    11   -5.198669378602e-02
    12    1.472885851551e+00
    13    1.536773104298e+00
    14    1.607775287504e-01
    15    9.634813283121e-04
    16    5.859482701630e-03
    17   -6.951077765980e-03
    18    1.201358291493e-01
    19    3.160476495970e-03
    20   -1.169572072038e-01
    21    1.285612536148e+00
    22   -1.172669281303e-02
    23    1.827862509944e-01
    24    1.021303241518e-02
    25    8.835865214213e-05
    26    4.421263970656e-03
    27   -2.785262389453e-03
    28    4.728339734090e-01
    29    4.988213052285e-01
    30    5.207758667576e-02
    31   -1.466948600398e+00
    32   -1.537088723920e+00
    33   -1.609301303132e-01
    34    6.138033528772e-04
    35    5.717717771073e-03
    36   -7.181113607866e-03
    37    1.198091013770e-01
    38    2.364446295118e-03
    39   -1.171363636509e-01
    40    1.285562240542e+00
    41    1.193795316777e-02
    42   -1.825861366178e-01
    43   -1.032436569388e-02
    44    1.139571528617e-01
    45   -1.280293850443e+00
    46   -1.809154444906e-01
    47    5.892317992213e-03
    48   -8.214102514299e-03
Sym=X
Ene= 0.972282
Spin=Alpha
Occup=0
     1   -6.503786539623e-02
     2    9.183069422512e-01
     3   -8.977790575850e-02
     4   -9.819312004200e-02
     5   -1.009099544846e-02
     6    2.536359769051e-02
     7    2.469467117432e-01
     8    5.297138996864e-01
     9    4.794614457090e-01
    10   -4.555725855820e-01
    11   -4.124461049688e-03
    12   -1.486935492035e+00
    13    1.412862641159e+00
    14    1.281496217854e-02
    15   -5.409018683777e-02
    16   -1.283225838516e-02
    17   -9.608794669885e-03
    18    1.330316420315e-02
    19   -3.012661974657e-01
    20   -6.137648901420e-02
    21    9.093450977771e-01
    22    9.505503663288e-02
    23    9.255006982229e-02
    24    9.975406088814e-03
    25   -2.531037716754e-02
    26   -2.415861713958e-01
    27   -5.385898587489e-01
    28    4.803121265979e-01
    29   -4.540048308583e-01
    30   -4.466912961779e-03
    31   -1.491751401056e+00
    32    1.407937041083e+00
    33    1.360607542518e-02
    34    5.371644286989e-02
    35    1.279013213060e-02
    36    9.597709096542e-03
    37   -1.287927074264e-02
    38    3.002644686537e-01
    39    6.177339661087e-02
    40   -9.027695954442e-01
    41    9.475673142107e-02
    42    9.170685744238e-02
    43    1.001674165442e-02
    44    6.528989822708e-02
    45   -9.197122496670e-01
    46   -8.996737311718e-02
    47   -9.784321233334e-02
    48   -9.995127113669e-03
[5D]

======= END OF MOLDEN-FORMATTED INPUT FILE =======


        *************************************************************
        *                                                           *
        *  Thank you very much for using Q-Chem.  Have a nice day.  *
        *                                                           *
        *************************************************************


