                  Welcome to Q-Chem
     A Quantum Leap Into The Future Of Chemistry


 Q-Chem 5.4 (devel), Q-Chem, Inc., Pleasanton, CA (2021)

 E. Epifanovsky,  A. T. B. Gilbert,  Xintian Feng,  Joonho Lee,  Yuezhi Mao,  
 N. Mardirossian,  P. Pokhilko,  A. White,  M. Wormit,  M. P. Coons,  
 A. L. Dempwolff,  Zhengting Gan,  D. Hait,  P. R. Horn,  L. D. Jacobson,  
 I. Kaliman,  J. Kussmann,  A. W. Lange,  Ka Un Lao,  D. S. Levine,  Jie Liu,  
 S. C. McKenzie,  A. F. Morrison,  K. Nanda,  F. Plasser,  D. R. Rehn,  
 M. L. Vidal,  Zhi-Qiang You,  Ying Zhu,  B. Alam,  B. Albrecht,  
 A. Aldossary,  E. Alguire,  J. H. Andersen,  D. Barton,  K. Begam,  A. Behn,  
 Y. A. Bernard,  E. J. Berquist,  H. Burton,  A. Carreras,  K. Carter-Fenk,  
 R. Chakraborty,  A. D. Chien,  K. D. Closser,  V. Cofer-Shabica,  
 S. Dasgupta,  Jia Deng,  M. de Wergifosse,  M. Diedenhofen,  Hainam Do,  
 S. Ehlert,  Po-Tung Fang,  S. Fatehi,  Qingguo Feng,  T. Friedhoff,  
 J. Gayvert,  Qinghui Ge,  G. Gidofalvi,  M. Goldey,  J. Gomes,  
 C. Gonzalez-Espinoza,  S. Gulania,  A. Gunina,  M. W. D. Hanson-Heine,  
 P. H. P. Harbach,  A. W. Hauser,  M. F. Herbst,  M. Hernandez Vera,  
 M. Hodecker,  Z. C. Holden,  S. Houck,  Xunkun Huang,  Kerwin Hui,  
 B. C. Huynh,  M. Ivanov,  Hyunjun Ji,  Hanjie Jiang,  B. Kaduk,  S. Kaehler,  
 K. Khistyaev,  Jaehoon Kim,  P. Klunzinger,  Z. Koczor-Benda,  
 Joong Hoon Koh,  D. Kosenkov,  L. Koulias,  T. Kowalczyk,  C. M. Krauter,  
 K. Kue,  A. Kunitsa,  T. Kus,  A. Landau,  K. V. Lawler,  D. Lefrancois,  
 S. Lehtola,  Rain Li,  Yi-Pei Li,  Jiashu Liang,  M. Liebenthal,  
 Hung-Hsuan Lin,  You-Sheng Lin,  Fenglai Liu,  Kuan-Yu Liu,  
 M. Loipersberger,  A. Luenser,  A. Manjanath,  P. Manohar,  E. Mansoor,  
 S. F. Manzer,  Shan-Ping Mao,  A. V. Marenich,  T. Markovich,  S. Mason,  
 S. A. Maurer,  P. F. McLaughlin,  M. F. S. J. Menger,  J.-M. Mewes,  
 S. A. Mewes,  P. Morgante,  J. W. Mullinax,  K. J. Oosterbaan,  G. Paran,  
 Alexander C. Paul,  Suranjan K. Paul,  F. Pavosevic,  Zheng Pei,  S. Prager,  
 E. I. Proynov,  E. Ramos,  B. Rana,  A. E. Rask,  A. Rettig,  R. M. Richard,  
 F. Rob,  E. Rossomme,  T. Scheele,  M. Scheurer,  M. Schneider,  
 N. Sergueev,  S. M. Sharada,  W. Skomorowski,  D. W. Small,  C. J. Stein,  
 Yu-Chuan Su,  E. J. Sundstrom,  Zhen Tao,  J. Thirman,  T. Tsuchimochi,  
 N. M. Tubman,  S. P. Veccham,  O. Vydrov,  J. Wenzel,  J. Witte,  A. Yamada,  
 Kun Yao,  S. Yeganeh,  S. R. Yost,  A. Zech,  Igor Ying Zhang,  Xing Zhang,  
 Yu Zhang,  D. Zuev,  A. Aspuru-Guzik,  A. T. Bell,  N. A. Besley,  
 K. B. Bravaya,  B. R. Brooks,  D. Casanova,  Jeng-Da Chai,  S. Coriani,  
 C. J. Cramer,  A. E. DePrince, III,  R. A. DiStasio Jr.,  A. Dreuw,  
 B. D. Dunietz,  T. R. Furlani,  W. A. Goddard III,  S. Grimme,  
 S. Hammes-Schiffer,  T. Head-Gordon,  W. J. Hehre,  Chao-Ping Hsu,  
 T.-C. Jagau,  Yousung Jung,  A. Klamt,  Jing Kong,  D. S. Lambrecht,  
 WanZhen Liang,  N. J. Mayhall,  C. W. McCurdy,  J. B. Neaton,  
 C. Ochsenfeld,  J. A. Parkhill,  R. Peverati,  V. A. Rassolov,  Yihan Shao,  
 L. V. Slipchenko,  T. Stauch,  R. P. Steele,  J. E. Subotnik,  
 A. J. W. Thom,  A. Tkatchenko,  D. G. Truhlar,  T. Van Voorhis,  
 T. A. Wesolowski,  K. B. Whaley,  H. L. Woodcock III,  P. M. Zimmerman,  
 S. Faraji,  P. M. W. Gill,  M. Head-Gordon,  J. M. Herbert,  A. I. Krylov

 Additional authors for Version 5.4.1: 
 S. Kotaru,  Shaozhi Li,  Xiangyuan Li,  F. Matz,  A. Molle,  Haisheng Ren,  
 Yingli Su,  Hung-Yi Tsai,  C. Utku,  Fang Wang

 Contributors to earlier versions of Q-Chem not listed above: 
 R. D. Adamson,  B. Austin,  R. Baer,  J. Baker,  G. J. O. Beran,  
 K. Brandhorst,  S. T. Brown,  E. F. C. Byrd,  A. K. Chakraborty,  
 G. K. L. Chan,  Chun-Min Chang,  Yunqing Chen,  C.-L. Cheng,  
 Siu Hung Chien,  D. M. Chipman,  D. L. Crittenden,  H. Dachsel,  
 R. J. Doerksen,  A. D. Dutoi,  R. G. Edgar,  J. Fosso-Tande,  
 L. Fusti-Molnar,  D. Ghosh,  A. Ghysels,  A. Golubeva-Zadorozhnaya,  
 J. Gonthier,  M. S. Gordon,  S. R. Gwaltney,  G. Hawkins,  J. E. Herr,  
 A. Heyden,  S. Hirata,  E. G. Hohenstein,  G. Kedziora,  F. J. Keil,  
 C. Kelley,  Jihan Kim,  R. A. King,  R. Z. Khaliullin,  P. P. Korambath,  
 W. Kurlancheek,  A. Laurent,  A. M. Lee,  M. S. Lee,  S. V. Levchenko,  
 Ching Yeh Lin,  D. Liotard,  E. Livshits,  R. C. Lochan,  I. Lotan,  
 L. A. Martinez-Martinez,  P. E. Maslen,  N. Nair,  D. P. O'Neill,  
 D. Neuhauser,  E. Neuscamman,  C. M. Oana,  R. Olivares-Amaya,  R. Olson,  
 T. M. Perrine,  B. Peters,  P. A. Pieniazek,  A. Prociuk,  Y. M. Rhee,  
 J. Ritchie,  M. A. Rohrdanz,  E. Rosta,  N. J. Russ,  H. F. Schaefer III,  
 M. W. Schmidt,  N. E. Schultz,  S. Sharma,  N. Shenvi,  C. D. Sherrill,  
 A. C. Simmonett,  A. Sodt,  T. Stein,  D. Stuck,  K. S. Thanthiriwatte,  
 V. Vanovschi,  L. Vogt,  Tao Wang,  A. Warshel,  M. A. Watson,  
 C. F. Williams,  Q. Wu,  X. Xu,  Jun Yang,  W. Zhang,  Yan Zhao

 Please cite Q-Chem as follows:
 Y. Shao et al., Mol. Phys. 113, 184-215 (2015)
 DOI: 10.1080/00268976.2014.952696

 Q-Chem 5.4.1 for Intel X86 EM64T Linux

 Parts of Q-Chem use Armadillo 9.800.1 (Horizon Scraper).
 http://arma.sourceforge.net/

 Q-Chem begins on Thu Nov 17 00:22:07 2022  

 Host: cpu317.baobab
0

     Scratch files written to /scratch/fum/qchem53738//
 Processing $rem in /home/share/wesolowski/qc5.aug2021.FDE/config/preferences:
 Processing $rem in /home/fum/.qchemrc:

 Checking the input file for inconsistencies... 	...done.

--------------------------------------------------------------
User input:
--------------------------------------------------------------
$comment
generated from CCJob.Templates
$end

$rem
sym_ignore = true
method = adc(2)
ee_states = 10
basis = cc-pVDZ
mem_static = 1024
mem_total = 30000
adc_davidson_maxiter = 900
adc_davidson_conv = 6
adc_print = 3
adc_prop_es = true
adc_prop_es2es = true
adc_prop_tpa = true
molden_format = True
state_analysis = true
print_orbitals = 15
gen_scfman = false
fde_export_density = true
fde_details = 3
$end

$molecule
0 1
H -0.0348278765 -0.2442097827 0.0636489606
C -1.0765972949 -0.5242748755 -0.0023551776
H -1.313264467 -1.5767591607 -0.0757276926
C -2.043634118 0.3926884087 0.0061254933
H -1.8137616575 1.4509188337999999 0.0804456828
H -3.085977293 0.114931858 -0.0593381042                     
$end
--------------------------------------------------------------
 ----------------------------------------------------------------
             Standard Nuclear Orientation (Angstroms)
    I     Atom           X                Y                Z
 ----------------------------------------------------------------
    1      H      -0.0348278765    -0.2442097827     0.0636489606
    2      C      -1.0765972949    -0.5242748755    -0.0023551776
    3      H      -1.3132644670    -1.5767591607    -0.0757276926
    4      C      -2.0436341180     0.3926884087     0.0061254933
    5      H      -1.8137616575     1.4509188338     0.0804456828
    6      H      -3.0859772930     0.1149318580    -0.0593381042
 ----------------------------------------------------------------
 Nuclear Repulsion Energy =          33.40597419 hartrees
 There are        8 alpha and        8 beta electrons
 Requested basis set is cc-pVDZ
 There are 24 shells and 48 basis functions
 Total memory of 30000 MB is distributed as follows: 
   MEM_STATIC is set to 1024 MB
   QALLOC/CCMAN JOB total memory use is  28976 MB
 Warning: actual memory use might exceed 30000 MB

 Total QAlloc Memory Limit  30000 MB
 Mega-Array Size      1001 MB
 MEM_STATIC part      1024 MB

                       Distance Matrix (Angstroms)
             H (  1)   C (  2)   H (  3)   C (  4)   H (  5)
   C (  2)  1.080776
   H (  3)  1.851895  1.081258
   C (  4)  2.108139  1.332687  2.102109
   H (  5)  2.457305  2.109895  3.072738  1.085457
   H (  6)  3.074674  2.109370  2.450428  1.080700  1.850117

 A cutoff of  1.0D-11 yielded    300 shell pairs
 There are      1220 function pairs (      1329 Cartesian)
 Smallest overlap matrix eigenvalue = 4.80E-03

 Scale SEOQF with 1.000000e-01/1.000000e-01/1.000000e+00

 Standard Electronic Orientation quadrupole field applied
 Nucleus-field energy     =     0.0000000022 hartrees
 Guess from superposition of atomic densities
 Warning:  Energy on first SCF cycle will be non-variational
 SAD guess density has 16.000000 electrons
 A restricted Hartree-Fock SCF calculation will be
 performed using Pulay DIIS extrapolation
 SCF converges when DIIS error is below 1.0E-08
 using 8 threads for integral computing
 -------------------------------------------------------
 OpenMP Integral computing Module                
 Release: version 1.0, May 2013, Q-Chem Inc. Pittsburgh 
 -------------------------------------------------------
 ---------------------------------------
  Cycle       Energy         DIIS Error
 ---------------------------------------
    1     -78.4353177236      1.01E-01
    2     -78.0177110222      7.21E-03
    3     -78.0383290988      1.84E-03
    4     -78.0398115095      5.73E-04
    5     -78.0399329064      5.79E-05
    6     -78.0399347806      9.29E-06
    7     -78.0399348413      2.18E-06
    8     -78.0399348441      7.93E-07
    9     -78.0399348444      1.16E-07
   10     -78.0399348444      2.34E-08
   11     -78.0399348444      6.81E-09 Convergence criterion met
 ---------------------------------------
 SCF time:  CPU 2.53 s  wall 2.36 s
 SCF   energy in the final basis set = -78.03993484
 Total energy in the final basis set = -78.03993484
Exporting Density Matrix to file 'Densmat_SCF.txt'.
Export successful
================================================================================
|                                                                              |
|                                 A D C  M A N                                 |
|                                                                              |
 ------------------------------------------------------------------------------ 
|                                                                              |
| Components:                                                                  |
|                                                                              |
| - libvmm - 1.3-trunk                                                         |
|   Authors:                                                                   |
|   Evgeny Epifanovsky, Ilya Kaliman                                           |
|                                                                              |
| - libtensor - 2.5-trunk                                                      |
|   Authors:                                                                   |
|   Evgeny Epifanovsky, Michael Wormit, Dmitry Zuev, Sam Manzer,               |
|   Ilya Kaliman                                                               |
|                                                                              |
| - libwfa - 1.1-trunk                                                         |
|   Authors:                                                                   |
|   Felix Plasser, Stefanie Mewes (Baeppler), Benjamin Thomitzni,              |
|   Michael Wormit, Feng Chen, Anna I. Krylov, Pavel Pokhilko                  |
|                                                                              |
| - libadc - 1.1-trunk                                                         |
|   Authors:                                                                   |
|   Michael Wormit, Adrian L. Dempwolff, Philipp H. P. Harbach,                |
|   Caroline Krauter, Dirk Rehn, Matthias Schneider, Jan Wenzel                |
|                                                                              |
| - adcman - 2.6-trunk                                                         |
|   Authors:                                                                   |
|   Michael Wormit, Adrian L. Dempwolff, Philipp H. P. Harbach,                |
|   Caroline Krauter, Daniel Lefrancois, Jan-Michael Mewes, Dirk Rehn,         |
|   Matthias Schneider, Jan Wenzel, Andreas Dreuw                              |
|                                                                              |
| Authors of earlier versions of ADCMAN:                                       |
| Andreas Dreuw, Jan Hendrik Starcke, Dirk Rehn, Michael Wormit                |
|                                                                              |
================================================================================

 Created directory /scratch/fum/qchem53738/plots
  Import QC data ...  CPU 0.00 s  wall 0.00 s

 Alpha MOs, Restricted
 -- Occupied --                  
-11.235 -11.234  -1.032  -0.789  -0.641  -0.582  -0.504  -0.374
  1 A     2 A     3 A     4 A     5 A     6 A     7 A     8 A                  
 -- Virtual --                   
  0.168   0.204   0.233   0.239   0.303   0.462   0.578   0.615
  9 A    10 A    11 A    12 A    13 A    14 A    15 A    16 A                  
  0.689   0.708   0.784   0.808   0.862   0.935   0.972   1.009
 17 A    18 A    19 A    20 A    21 A    22 A    23 A    24 A                  
  1.130   1.235   1.254   1.266   1.293   1.600   1.726   1.749
 25 A    26 A    27 A    28 A    29 A    30 A    31 A    32 A                  
  1.819   1.859   1.866   1.920   1.975   1.978   2.221   2.257
 33 A    34 A    35 A    36 A    37 A    38 A    39 A    40 A                  
  2.374   2.451   2.504   2.632   2.717   2.819   3.137   3.396
 41 A    42 A    43 A    44 A    45 A    46 A    47 A    48 A                  

 Beta MOs, Restricted
 -- Occupied --                  
-11.235 -11.234  -1.032  -0.789  -0.641  -0.582  -0.504  -0.374
  1 A     2 A     3 A     4 A     5 A     6 A     7 A     8 A                  
 -- Virtual --                   
  0.168   0.204   0.233   0.239   0.303   0.462   0.578   0.615
  9 A    10 A    11 A    12 A    13 A    14 A    15 A    16 A                  
  0.689   0.708   0.784   0.808   0.862   0.935   0.972   1.009
 17 A    18 A    19 A    20 A    21 A    22 A    23 A    24 A                  
  1.130   1.235   1.254   1.266   1.293   1.600   1.726   1.749
 25 A    26 A    27 A    28 A    29 A    30 A    31 A    32 A                  
  1.819   1.859   1.866   1.920   1.975   1.978   2.221   2.257
 33 A    34 A    35 A    36 A    37 A    38 A    39 A    40 A                  
  2.374   2.451   2.504   2.632   2.717   2.819   3.137   3.396
 41 A    42 A    43 A    44 A    45 A    46 A    47 A    48 A                  
  Import AO data ...  CPU 0.00 s  wall 0.05 s
  Using point group: C1
  Irreducible representations in point group: A
  Molecular orbitals: 
  Occupied MOs:
  Block   0:   1 (  A) A   2 (  A) A   3 (  A) A   4 (  A) A   5 (  A) A
                  -11.24      -11.23      -1.032     -0.7893     -0.6407
               6 (  A) A   7 (  A) A   8 (  A) A
                 -0.5818     -0.5042      -0.374
  Block   1:   1 (  A) B   2 (  A) B   3 (  A) B   4 (  A) B   5 (  A) B
                  -11.24      -11.23      -1.032     -0.7893     -0.6407
               6 (  A) B   7 (  A) B   8 (  A) B
                 -0.5818     -0.5042      -0.374
  Virtual MOs:
  Block   0:   9 (  A) A  10 (  A) A  11 (  A) A  12 (  A) A  13 (  A) A
                  0.1684      0.2036      0.2328      0.2392      0.3032
              14 (  A) A  15 (  A) A  16 (  A) A  17 (  A) A  18 (  A) A
                   0.462      0.5776      0.6148      0.6891      0.7084
              19 (  A) A  20 (  A) A  21 (  A) A  22 (  A) A
                  0.7838      0.8079      0.8619      0.9353
  Block   1:  23 (  A) A  24 (  A) A  25 (  A) A  26 (  A) A  27 (  A) A
                  0.9723       1.009        1.13       1.235       1.254
              28 (  A) A  29 (  A) A  30 (  A) A  31 (  A) A  32 (  A) A
                   1.266       1.293         1.6       1.726       1.749
              33 (  A) A  34 (  A) A  35 (  A) A  36 (  A) A
                   1.819       1.859       1.866        1.92
  Block   2:  37 (  A) A  38 (  A) A  39 (  A) A  40 (  A) A  41 (  A) A
                   1.975       1.978       2.221       2.257       2.374
              42 (  A) A  43 (  A) A  44 (  A) A  45 (  A) A  46 (  A) A
                   2.451       2.504       2.632       2.717       2.819
              47 (  A) A  48 (  A) A
                   3.137       3.396
  Block   3:   9 (  A) B  10 (  A) B  11 (  A) B  12 (  A) B  13 (  A) B
                  0.1684      0.2036      0.2328      0.2392      0.3032
              14 (  A) B  15 (  A) B  16 (  A) B  17 (  A) B  18 (  A) B
                   0.462      0.5776      0.6148      0.6891      0.7084
              19 (  A) B  20 (  A) B  21 (  A) B  22 (  A) B
                  0.7838      0.8079      0.8619      0.9353
  Block   4:  23 (  A) B  24 (  A) B  25 (  A) B  26 (  A) B  27 (  A) B
                  0.9723       1.009        1.13       1.235       1.254
              28 (  A) B  29 (  A) B  30 (  A) B  31 (  A) B  32 (  A) B
                   1.266       1.293         1.6       1.726       1.749
              33 (  A) B  34 (  A) B  35 (  A) B  36 (  A) B
                   1.819       1.859       1.866        1.92
  Block   5:  37 (  A) B  38 (  A) B  39 (  A) B  40 (  A) B  41 (  A) B
                   1.975       1.978       2.221       2.257       2.374
              42 (  A) B  43 (  A) B  44 (  A) B  45 (  A) B  46 (  A) B
                   2.451       2.504       2.632       2.717       2.819
              47 (  A) B  48 (  A) B
                   3.137       3.396
  Import MO data ...  CPU 0.18 s  wall 0.43 s
  Import HF data ...  CPU 4.96 s  wall 1.87 s
  Import 2e integrals ...  CPU 2.72 s  wall 0.57 s

--------------------------------------------------------------------------------
                                   HF Summary                                   
--------------------------------------------------------------------------------
  Energy:                                                  -78.0399348444 a.u.
  Dip. moment [a.u.]:                  [  -0.000824,   -0.000231,    0.000321]
  Total dipole [Debye]:                                               0.002322
  <r^2> [a.u.]:                        [ 175.321317,   34.970726,   11.630536]
  Total <r^2> [a.u.]:                                               221.922579
--------------------------------------------------------------------------------
  HF properties ...  CPU 0.49 s  wall 0.21 s
  MP(1) calculation ...  CPU 0.06 s  wall 0.02 s
  N^6 prerequesite intermediates ...  CPU 1.32 s  wall 0.41 s
  Difference density matrix of state mp2_gs printed to ASCII file 'State_mp2_gs_Difference.txt'
Exporting MP density matrix to file 'Densmat_MP.txt'.
Export successful
  Total density matrix of state mp2_gs printed to ASCII file 'State_mp2_gs_Total.txt'
Exporting MP density matrix to file 'Densmat_MP.txt'.
Export successful

--------------------------------------------------------------------------------
                                 MP(2) Summary                                  
--------------------------------------------------------------------------------
  MP energy contribution:                                   -0.2797723478 a.u.
  Total energy:                                            -78.3197071922 a.u.
  Dip. moment [a.u.]:                  [  -0.000746,   -0.000248,    0.000319]
  Total dipole [Debye]:                                               0.002157
  <r^2> [a.u.]:                        [ 175.368221,   35.010598,   11.462031]
  Total <r^2> [a.u.]:                                               221.840850

  Density matrix analysis:
  ------------------------
  NOs
    Occupation of frontier NOs:
       0.0453   1.9382
    Number of electrons: 16.000000
    Number of unpaired electrons: n_u =  0.40375, n_u,nl =  0.04514
    NO participation ratio (PR_NO): 13.861735
  
  
  Mulliken Population Analysis
  Atom      Charge (e)              h+              e-           Del q
  --------------------------------------------------------------------
   1 H        0.051024        0.014034       -0.011205        0.002828
   2 C       -0.099993        0.093175       -0.098839       -0.005664
   3 H        0.050633        0.014076       -0.011192        0.002884
   4 C       -0.103768        0.093293       -0.099053       -0.005760
   5 H        0.051400        0.014051       -0.011208        0.002844
   6 H        0.050703        0.014075       -0.011206        0.002869
  --------------------------------------------------------------------
  Sum:       -0.000000        0.242703       -0.242703       -0.000000
  
  Multipole moment analysis of the density matrix
    Molecular charge:                      -0.000000
    Number of electrons:                   16.000000
      Center of electronic charge [Ang]: [ -1.560552,  -0.065282,   0.001968]
    Total nuclear charge:                  16.000000
      Center of nuclear charge [Ang]:    [ -1.560576,  -0.065290,   0.001978]
    Dipole moment [D]:                     0.002157
      Cartesian components [D]:          [ -0.001897,  -0.000630,   0.000810]
    RMS size of the density [Ang]:         1.201259
      Cartesian components [Ang]:        [  0.796201,   0.780055,   0.447886]
  
  Exciton analysis of the difference density matrix
    <r_h> [Ang]:                  [ -1.560656,  -0.064821,   0.001930]
    <r_e> [Ang]:                  [ -1.560825,  -0.064784,   0.001935]
    |<r_e - r_h>| [Ang]:            0.000173
    Hole size [Ang]:                1.394330
      Cartesian components [Ang]: [  0.846632,   0.835179,   0.727906]
    Electron size [Ang]:            1.359903
      Cartesian components [Ang]: [  0.877710,   0.862284,   0.579162]
--------------------------------------------------------------------------------
  MP(2) calculation ...  CPU 3.70 s  wall 1.39 s
  Start ADC(2)-s ...  CPU 0.35 s  wall 0.16 s
  ADC(2) intermediates ...  CPU 0.67 s  wall 0.22 s
  Starting Davidson for singlet states of irrep A ... 
--------------------------------------------------------------------------------
   It NVec Conv  Avg. Norm  Max. Norm  Conv. states           Remark
--------------------------------------------------------------------------------
        10    0  1.330e-01  4.687e-01  0.4118 n n n n n n n n Guess.
    1   20    0  2.305e-02  1.110e-01  0.3263 n n n n n n n n 
    2   30    0  5.877e-03  2.612e-02  0.3215 n n n n n n n n 
    3   40    0  2.063e-03  1.456e-02  0.3211 n n n n n n n n 
    4   50    0  6.318e-04  4.776e-03  0.3211 n n n n n n n n 
    5   20    0  2.685e-04  1.941e-03  0.3211 n n n n n n n n Subspace collapsed.
    6   30    0  1.811e-04  1.619e-03  0.3211 n n n n n n n n 
    7   40    0  1.038e-04  7.791e-04  0.3211 n n n n n n n n 
    8   50    0  1.086e-04  1.035e-03  0.3211 n n n n n n n n 
    9   20    2  7.749e-05  7.508e-04  0.3211 n y n y n n n n Subspace collapsed.
   10   30    4  9.537e-05  9.411e-04  0.3211 n y y y n y n n 
   11   40    5  9.415e-05  9.390e-04  0.3211 n y y y y y n n 
   12   50    6  9.219e-05  9.214e-04  0.3211 y y y y y y n n 
   13   20    6  4.732e-05  4.730e-04  0.3211 y y y y y y n n Subspace collapsed.
   14   30    6  3.924e-05  3.921e-04  0.3211 y y y y y y n n 
   15   40    6  2.026e-05  2.025e-04  0.3211 y y y y y y n n 
   16   50    6  3.027e-05  3.026e-04  0.3211 y y y y y y n n 
   17   20    8  1.254e-05  1.253e-04  0.3211 y y y y y y n y Subspace collapsed.
   18   30    7  1.963e-05  1.962e-04  0.3211 y y y y y y n y 
   19   40    7  1.866e-05  1.866e-04  0.3211 y y y y y y n y 
   20   50    9  2.293e-05  2.293e-04  0.3211 y y y y y y y y 
   21   20    9  9.455e-06  9.455e-05  0.3211 y y y y y y y y Subspace collapsed.
   22   30    9  9.171e-06  9.171e-05  0.3211 y y y y y y y y 
   23   32    9  8.893e-06  8.893e-05  0.3211 y y y y y y y y 
   24   40    9  5.260e-06  5.260e-05  0.3211 y y y y y y y y 
   25   47    9  7.646e-06  7.646e-05  0.3211 y y y y y y y y 
   26   50    9  8.035e-06  8.034e-05  0.3211 y y y y y y y y 
   27   15    9  3.870e-06  3.870e-05  0.3211 y y y y y y y y Subspace collapsed.
   28   20    9  4.115e-06  4.115e-05  0.3211 y y y y y y y y 
   29   24    9  3.507e-06  3.507e-05  0.3211 y y y y y y y y 
   30   28    9  3.667e-06  3.667e-05  0.3211 y y y y y y y y 
   31   32    9  3.182e-06  3.182e-05  0.3211 y y y y y y y y 
   32   36    9  3.176e-06  3.176e-05  0.3211 y y y y y y y y 
   33   40    9  1.697e-06  1.697e-05  0.3211 y y y y y y y y 
   34   44    9  9.519e-07  9.519e-06  0.3211 y y y y y y y y 
   35   48    9  4.510e-07  4.510e-06  0.3211 y y y y y y y y 
   36   50    9  2.411e-07  2.411e-06  0.3211 y y y y y y y y 
   37   14    9  1.025e-07  1.025e-06  0.3211 y y y y y y y y Subspace collapsed.
   38   18   10  8.965e-08  8.965e-07  0.3211 y y y y y y y y Converged.
--------------------------------------------------------------------------------
  Davidson Summary: 
 ------------------------------------------------------------
  State  0: excitation energy =   0.3211 a.u.   (converged)
  State  1: excitation energy =   0.3325 a.u.   (converged)
  State  2: excitation energy =   0.3369 a.u.   (converged)
  State  3: excitation energy =   0.3611 a.u.   (converged)
  State  4: excitation energy =   0.3751 a.u.   (converged)
  State  5: excitation energy =   0.3871 a.u.   (converged)
  State  6: excitation energy =   0.4243 a.u.   (converged)
  State  7: excitation energy =   0.4469 a.u.   (converged)
  State  8: excitation energy =   0.4561 a.u.   (converged)
  State  9: excitation energy =   0.4642 a.u.   (converged)
 ------------------------------------------------------------

  Singlet states of irrep A ...  CPU 253.41 s  wall 75.54 s
  TDMs ...  CPU 4.01 s  wall 1.17 s
  SDMs ...  CPU 6.60 s  wall 2.01 s
  Starting TPA DIIS iterations ... 
------------------------------------ 
   It     Res. Norm  Remark
------------------------------------
                       Guess.
    1     4.405e+00  
    2     5.840e+00  
    3     1.077e+00  
    4     2.564e-01  
    5     6.565e-02  
    6     2.670e-02  
    7     8.244e-03  
    8     1.437e-03  
    9     5.334e-04  
   10     9.013e-05  
   11     2.815e-05  
   12     4.377e-06  
   13     1.413e-06  
   14     4.286e-07  Converged.
   ... Converged in 14 steps (norm: 4.28598e-07)
------------------------------------
  Starting TPA DIIS iterations ... 
------------------------------------ 
   It     Res. Norm  Remark
------------------------------------
                       Guess.
    1     4.182e+00  
    2     5.538e+00  
    3     1.031e+00  
    4     2.568e-01  
    5     6.544e-02  
    6     2.693e-02  
    7     8.143e-03  
    8     1.475e-03  
    9     5.456e-04  
   10     9.086e-05  
   11     2.888e-05  
   12     4.398e-06  
   13     1.449e-06  
   14     4.287e-07  Converged.
   ... Converged in 14 steps (norm: 4.28695e-07)
------------------------------------
  Starting TPA DIIS iterations ... 
------------------------------------ 
   It     Res. Norm  Remark
------------------------------------
                       Guess.
    1     6.880e-01  
    2     4.828e-01  
    3     1.703e-01  
    4     6.021e-02  
    5     1.839e-02  
    6     6.646e-03  
    7     1.041e-03  
    8     4.491e-04  
    9     1.243e-04  
   10     2.963e-05  
   11     5.375e-06  
   12     1.583e-06  
   13     9.153e-07  Converged.
   ... Converged in 13 steps (norm: 9.15321e-07)
------------------------------------
  Starting TPA DIIS iterations ... 
------------------------------------ 
   It     Res. Norm  Remark
------------------------------------
                       Guess.
    1     4.686e+00  
    2     6.343e+00  
    3     1.156e+00  
    4     2.841e-01  
    5     7.375e-02  
    6     3.024e-02  
    7     9.322e-03  
    8     1.622e-03  
    9     6.066e-04  
   10     1.031e-04  
   11     3.250e-05  
   12     5.095e-06  
   13     1.656e-06  
   14     5.020e-07  Converged.
   ... Converged in 14 steps (norm: 5.02011e-07)
------------------------------------
  Starting TPA DIIS iterations ... 
------------------------------------ 
   It     Res. Norm  Remark
------------------------------------
                       Guess.
    1     4.447e+00  
    2     6.014e+00  
    3     1.106e+00  
    4     2.844e-01  
    5     7.352e-02  
    6     3.054e-02  
    7     9.211e-03  
    8     1.667e-03  
    9     6.207e-04  
   10     1.039e-04  
   11     3.334e-05  
   12     5.116e-06  
   13     1.698e-06  
   14     5.020e-07  Converged.
   ... Converged in 14 steps (norm: 5.02025e-07)
------------------------------------
  Starting TPA DIIS iterations ... 
------------------------------------ 
   It     Res. Norm  Remark
------------------------------------
                       Guess.
    1     6.997e-01  
    2     4.998e-01  
    3     1.799e-01  
    4     6.792e-02  
    5     1.977e-02  
    6     7.247e-03  
    7     1.172e-03  
    8     5.272e-04  
    9     1.495e-04  
   10     3.381e-05  
   11     6.089e-06  
   12     1.858e-06  
   13     1.141e-06  
   14     4.156e-07  Converged.
   ... Converged in 14 steps (norm: 4.15597e-07)
------------------------------------
  Starting TPA DIIS iterations ... 
------------------------------------ 
   It     Res. Norm  Remark
------------------------------------
                       Guess.
    1     4.802e+00  
    2     6.554e+00  
    3     1.188e+00  
    4     2.960e-01  
    5     7.722e-02  
    6     3.177e-02  
    7     9.783e-03  
    8     1.701e-03  
    9     6.381e-04  
   10     1.086e-04  
   11     3.439e-05  
   12     5.408e-06  
   13     1.763e-06  
   14     5.341e-07  Converged.
   ... Converged in 14 steps (norm: 5.3411e-07)
------------------------------------
  Starting TPA DIIS iterations ... 
------------------------------------ 
   It     Res. Norm  Remark
------------------------------------
                       Guess.
    1     4.557e+00  
    2     6.214e+00  
    3     1.137e+00  
    4     2.962e-01  
    5     7.699e-02  
    6     3.209e-02  
    7     9.669e-03  
    8     1.749e-03  
    9     6.530e-04  
   10     1.095e-04  
   11     3.527e-05  
   12     5.429e-06  
   13     1.808e-06  
   14     5.341e-07  Converged.
   ... Converged in 14 steps (norm: 5.34127e-07)
------------------------------------
  Starting TPA DIIS iterations ... 
------------------------------------ 
   It     Res. Norm  Remark
------------------------------------
                       Guess.
    1     7.044e-01  
    2     5.066e-01  
    3     1.838e-01  
    4     7.127e-02  
    5     2.033e-02  
    6     7.505e-03  
    7     1.229e-03  
    8     5.618e-04  
    9     1.607e-04  
   10     3.527e-05  
   11     6.391e-06  
   12     1.981e-06  
   13     1.246e-06  
   14     4.520e-07  Converged.
   ... Converged in 14 steps (norm: 4.52021e-07)
------------------------------------
  Starting TPA DIIS iterations ... 
------------------------------------ 
   It     Res. Norm  Remark
------------------------------------
                       Guess.
    1     5.535e+00  
    2     7.922e+00  
    3     1.394e+00  
    4     3.752e-01  
    5     1.003e-01  
    6     4.203e-02  
    7     1.286e-02  
    8     2.227e-03  
    9     8.497e-04  
   10     1.462e-04  
   11     4.740e-05  
   12     7.561e-06  
   13     2.514e-06  
   14     7.574e-07  Converged.
   ... Converged in 14 steps (norm: 7.57384e-07)
------------------------------------
  Starting TPA DIIS iterations ... 
------------------------------------ 
   It     Res. Norm  Remark
------------------------------------
                       Guess.
    1     5.251e+00  
    2     7.510e+00  
    3     1.333e+00  
    4     3.749e-01  
    5     1.001e-01  
    6     4.253e-02  
    7     1.272e-02  
    8     2.295e-03  
    9     8.701e-04  
   10     1.474e-04  
   11     4.852e-05  
   12     7.577e-06  
   13     2.574e-06  
   14     7.583e-07  Converged.
   ... Converged in 14 steps (norm: 7.583e-07)
------------------------------------
  Starting TPA DIIS iterations ... 
------------------------------------ 
   It     Res. Norm  Remark
------------------------------------
                       Guess.
    1     7.311e-01  
    2     5.476e-01  
    3     2.080e-01  
    4     9.431e-02  
    5     2.386e-02  
    6     9.225e-03  
    7     1.624e-03  
    8     7.985e-04  
    9     2.357e-04  
   10     4.079e-05  
   11     8.395e-06  
   12     2.844e-06  
   13     2.040e-06  
   14     7.325e-07  Converged.
   ... Converged in 14 steps (norm: 7.32502e-07)
------------------------------------
  Starting TPA DIIS iterations ... 
------------------------------------ 
   It     Res. Norm  Remark
------------------------------------
                       Guess.
    1     6.050e+00  
    2     8.914e+00  
    3     1.537e+00  
    4     4.350e-01  
    5     1.177e-01  
    6     4.986e-02  
    7     1.519e-02  
    8     2.622e-03  
    9     1.011e-03  
   10     1.748e-04  
   11     5.754e-05  
   12     9.239e-06  
   13     3.114e-06  
   14     9.363e-07  Converged.
   ... Converged in 14 steps (norm: 9.36296e-07)
------------------------------------
  Starting TPA DIIS iterations ... 
------------------------------------ 
   It     Res. Norm  Remark
------------------------------------
                       Guess.
    1     5.737e+00  
    2     8.450e+00  
    3     1.470e+00  
    4     4.341e-01  
    5     1.175e-01  
    6     5.051e-02  
    7     1.503e-02  
    8     2.705e-03  
    9     1.036e-03  
   10     1.764e-04  
   11     5.882e-05  
   12     9.249e-06  
   13     3.185e-06  
   14     9.392e-07  Converged.
   ... Converged in 14 steps (norm: 9.39179e-07)
------------------------------------
  Starting TPA DIIS iterations ... 
------------------------------------ 
   It     Res. Norm  Remark
------------------------------------
                       Guess.
    1     7.476e-01  
    2     5.744e-01  
    3     2.244e-01  
    4     1.123e-01  
    5     2.636e-02  
    6     1.053e-02  
    7     1.938e-03  
    8     9.730e-04  
    9     2.900e-04  
   10     4.199e-05  
   11     9.938e-06  
   12     3.539e-06  
   13     2.737e-06  
   14     9.841e-07  Converged.
   ... Converged in 14 steps (norm: 9.84132e-07)
------------------------------------
  Starting TPA DIIS iterations ... 
------------------------------------ 
   It     Res. Norm  Remark
------------------------------------
                       Guess.
    1     6.551e+00  
    2     9.906e+00  
    3     1.676e+00  
    4     4.962e-01  
    5     1.356e-01  
    6     5.795e-02  
    7     1.757e-02  
    8     3.026e-03  
    9     1.178e-03  
   10     2.044e-04  
   11     6.812e-05  
   12     1.099e-05  
   13     3.751e-06  
   14     1.129e-06  
   15     3.882e-07  Converged.
   ... Converged in 15 steps (norm: 3.88152e-07)
------------------------------------
  Starting TPA DIIS iterations ... 
------------------------------------ 
   It     Res. Norm  Remark
------------------------------------
                       Guess.
    1     6.212e+00  
    2     9.389e+00  
    3     1.602e+00  
    4     4.948e-01  
    5     1.353e-01  
    6     5.878e-02  
    7     1.739e-02  
    8     3.125e-03  
    9     1.206e-03  
   10     2.062e-04  
   11     6.954e-05  
   12     1.099e-05  
   13     3.829e-06  
   14     1.136e-06  
   15     3.643e-07  Converged.
   ... Converged in 15 steps (norm: 3.6426e-07)
------------------------------------
  Starting TPA DIIS iterations ... 
------------------------------------ 
   It     Res. Norm  Remark
------------------------------------
                       Guess.
    1     7.622e-01  
    2     5.993e-01  
    3     2.399e-01  
    4     1.311e-01  
    5     2.886e-02  
    6     1.188e-02  
    7     2.274e-03  
    8     1.139e-03  
    9     3.420e-04  
   10     4.251e-05  
   11     1.157e-05  
   12     4.279e-06  
   13     3.522e-06  
   14     1.274e-06  
   15     4.709e-07  Converged.
   ... Converged in 15 steps (norm: 4.70948e-07)
------------------------------------
  Starting TPA DIIS iterations ... 
------------------------------------ 
   It     Res. Norm  Remark
------------------------------------
                       Guess.
    1     8.632e+00  
    2     1.426e+01  
    3     2.242e+00  
    4     7.772e-01  
    5     2.176e-01  
    6     9.590e-02  
    7     2.851e-02  
    8     4.868e-03  
    9     1.956e-03  
   10     3.422e-04  
   11     1.174e-04  
   12     1.923e-05  
   13     6.781e-06  
   14     2.151e-06  
   15     7.584e-07  Converged.
   ... Converged in 15 steps (norm: 7.58412e-07)
------------------------------------
  Starting TPA DIIS iterations ... 
------------------------------------ 
   It     Res. Norm  Remark
------------------------------------
                       Guess.
    1     8.181e+00  
    2     1.351e+01  
    3     2.141e+00  
    4     7.723e-01  
    5     2.173e-01  
    6     9.758e-02  
    7     2.826e-02  
    8     5.044e-03  
    9     2.004e-03  
   10     3.452e-04  
   11     1.192e-04  
   12     1.920e-05  
   13     6.840e-06  
   14     2.189e-06  
   15     6.780e-07  Converged.
   ... Converged in 15 steps (norm: 6.77987e-07)
------------------------------------
  Starting TPA DIIS iterations ... 
------------------------------------ 
   It     Res. Norm  Remark
------------------------------------
                       Guess.
    1     8.118e-01  
    2     6.918e-01  
    3     3.007e-01  
    4     2.189e-01  
    5     4.006e-02  
    6     1.803e-02  
    7     3.925e-03  
    8     1.663e-03  
    9     5.397e-04  
   10     5.220e-05  
   11     1.984e-05  
   12     7.860e-06  
   13     7.718e-06  
   14     2.951e-06  
   15     1.332e-06  
   16     7.373e-07  Converged.
   ... Converged in 16 steps (norm: 7.37266e-07)
------------------------------------
  Starting TPA DIIS iterations ... 
------------------------------------ 
   It     Res. Norm  Remark
------------------------------------
                       Guess.
    1     1.046e+01  
    2     1.837e+01  
    3     2.727e+00  
    4     1.052e+00  
    5     2.986e-01  
    6     1.343e-01  
    7     3.932e-02  
    8     6.675e-03  
    9     2.739e-03  
   10     4.797e-04  
   11     1.649e-04  
   12     2.753e-05  
   13     9.743e-06  
   14     3.368e-06  
   15     1.205e-06  
   16     4.658e-07  Converged.
   ... Converged in 16 steps (norm: 4.65796e-07)
------------------------------------
  Starting TPA DIIS iterations ... 
------------------------------------ 
   It     Res. Norm  Remark
------------------------------------
                       Guess.
    1     9.915e+00  
    2     1.741e+01  
    3     2.603e+00  
    4     1.043e+00  
    5     2.983e-01  
    6     1.369e-01  
    7     3.899e-02  
    8     6.929e-03  
    9     2.805e-03  
   10     4.836e-04  
   11     1.667e-04  
   12     2.756e-05  
   13     9.730e-06  
   14     3.453e-06  
   15     1.047e-06  
   16     5.566e-07  Converged.
   ... Converged in 16 steps (norm: 5.56628e-07)
------------------------------------
  Starting TPA DIIS iterations ... 
------------------------------------ 
   It     Res. Norm  Remark
------------------------------------
                       Guess.
    1     8.457e-01  
    2     7.632e-01  
    3     3.501e-01  
    4     3.011e-01  
    5     5.080e-02  
    6     2.378e-02  
    7     5.623e-03  
    8     1.884e-03  
    9     6.944e-04  
   10     7.200e-05  
   11     2.893e-05  
   12     1.151e-05  
   13     1.239e-05  
   14     5.032e-06  
   15     2.654e-06  
   16     1.365e-06  
   17     7.097e-07  Converged.
   ... Converged in 17 steps (norm: 7.09684e-07)
------------------------------------
  Starting TPA DIIS iterations ... 
------------------------------------ 
   It     Res. Norm  Remark
------------------------------------
                       Guess.
    1     1.140e+01  
    2     2.056e+01  
    3     2.971e+00  
    4     1.201e+00  
    5     3.427e-01  
    6     1.555e-01  
    7     4.522e-02  
    8     7.657e-03  
    9     3.171e-03  
   10     5.549e-04  
   11     1.901e-04  
   12     3.217e-05  
   13     1.137e-05  
   14     4.105e-06  
   15     1.506e-06  
   16     6.100e-07  Converged.
   ... Converged in 16 steps (norm: 6.10026e-07)
------------------------------------
  Starting TPA DIIS iterations ... 
------------------------------------ 
   It     Res. Norm  Remark
------------------------------------
                       Guess.
    1     1.080e+01  
    2     1.949e+01  
    3     2.835e+00  
    4     1.189e+00  
    5     3.425e-01  
    6     1.586e-01  
    7     4.484e-02  
    8     7.954e-03  
    9     3.246e-03  
   10     5.593e-04  
   11     1.919e-04  
   12     3.228e-05  
   13     1.132e-05  
   14     4.218e-06  
   15     1.305e-06  
   16     7.436e-07  Converged.
   ... Converged in 16 steps (norm: 7.43553e-07)
------------------------------------
  Starting TPA DIIS iterations ... 
------------------------------------ 
   It     Res. Norm  Remark
------------------------------------
                       Guess.
    1     8.606e-01  
    2     7.971e-01  
    3     3.743e-01  
    4     3.421e-01  
    5     5.653e-02  
    6     2.668e-02  
    7     6.547e-03  
    8     1.944e-03  
    9     7.693e-04  
   10     8.389e-05  
   11     3.418e-05  
   12     1.358e-05  
   13     1.514e-05  
   14     6.307e-06  
   15     3.514e-06  
   16     1.769e-06  
   17     9.700e-07  Converged.
   ... Converged in 17 steps (norm: 9.69971e-07)
------------------------------------
  Starting TPA DIIS iterations ... 
------------------------------------ 
   It     Res. Norm  Remark
------------------------------------
                       Guess.
    1     1.233e+01  
    2     2.279e+01  
    3     3.210e+00  
    4     1.351e+00  
    5     3.880e-01  
    6     1.774e-01  
    7     5.126e-02  
    8     8.662e-03  
    9     3.616e-03  
   10     6.320e-04  
   11     2.154e-04  
   12     3.702e-05  
   13     1.310e-05  
   14     4.909e-06  
   15     1.867e-06  
   16     7.782e-07  Converged.
   ... Converged in 16 steps (norm: 7.78224e-07)
------------------------------------
  Starting TPA DIIS iterations ... 
------------------------------------ 
   It     Res. Norm  Remark
------------------------------------
                       Guess.
    1     1.168e+01  
    2     2.160e+01  
    3     3.062e+00  
    4     1.337e+00  
    5     3.878e-01  
    6     1.811e-01  
    7     5.084e-02  
    8     9.003e-03  
    9     3.700e-03  
   10     6.368e-04  
   11     2.173e-04  
   12     3.726e-05  
   13     1.300e-05  
   14     5.052e-06  
   15     1.623e-06  
   16     9.646e-07  Converged.
   ... Converged in 16 steps (norm: 9.64617e-07)
------------------------------------
  Starting TPA DIIS iterations ... 
------------------------------------ 
   It     Res. Norm  Remark
------------------------------------
                       Guess.
    1     8.741e-01  
    2     8.292e-01  
    3     3.974e-01  
    4     3.809e-01  
    5     6.231e-02  
    6     2.947e-02  
    7     7.481e-03  
    8     1.986e-03  
    9     8.414e-04  
   10     9.608e-05  
   11     3.975e-05  
   12     1.582e-05  
   13     1.819e-05  
   14     7.704e-06  
   15     4.477e-06  
   16     2.217e-06  
   17     1.262e-06  
   18     3.956e-07  Converged.
   ... Converged in 18 steps (norm: 3.95627e-07)
------------------------------------
  Two-photon absorbption ...  CPU 190.73 s  wall 46.19 s
  Transition density matrix of state singlet_A_1 printed to ASCII file 'State_singlet_A_1_Transition.txt'
  Transition density matrix of state singlet_A_2 printed to ASCII file 'State_singlet_A_2_Transition.txt'
  Transition density matrix of state singlet_A_3 printed to ASCII file 'State_singlet_A_3_Transition.txt'
  Transition density matrix of state singlet_A_4 printed to ASCII file 'State_singlet_A_4_Transition.txt'
  Transition density matrix of state singlet_A_5 printed to ASCII file 'State_singlet_A_5_Transition.txt'
  Transition density matrix of state singlet_A_6 printed to ASCII file 'State_singlet_A_6_Transition.txt'
  Transition density matrix of state singlet_A_7 printed to ASCII file 'State_singlet_A_7_Transition.txt'
  Transition density matrix of state singlet_A_8 printed to ASCII file 'State_singlet_A_8_Transition.txt'
  Transition density matrix of state singlet_A_9 printed to ASCII file 'State_singlet_A_9_Transition.txt'
  Transition density matrix of state singlet_A_10 printed to ASCII file 'State_singlet_A_10_Transition.txt'
  Transition properties ...  CPU 0.67 s  wall 0.45 s
  Difference density matrix of state singlet_A_1 printed to ASCII file 'State_singlet_A_1_Difference.txt'
  Total density matrix of state singlet_A_1 printed to ASCII file 'State_singlet_A_1_Total.txt'
  Difference density matrix of state singlet_A_2 printed to ASCII file 'State_singlet_A_2_Difference.txt'
  Total density matrix of state singlet_A_2 printed to ASCII file 'State_singlet_A_2_Total.txt'
  Difference density matrix of state singlet_A_3 printed to ASCII file 'State_singlet_A_3_Difference.txt'
  Total density matrix of state singlet_A_3 printed to ASCII file 'State_singlet_A_3_Total.txt'
  Difference density matrix of state singlet_A_4 printed to ASCII file 'State_singlet_A_4_Difference.txt'
  Total density matrix of state singlet_A_4 printed to ASCII file 'State_singlet_A_4_Total.txt'
  Difference density matrix of state singlet_A_5 printed to ASCII file 'State_singlet_A_5_Difference.txt'
  Total density matrix of state singlet_A_5 printed to ASCII file 'State_singlet_A_5_Total.txt'
  Difference density matrix of state singlet_A_6 printed to ASCII file 'State_singlet_A_6_Difference.txt'
  Total density matrix of state singlet_A_6 printed to ASCII file 'State_singlet_A_6_Total.txt'
  Difference density matrix of state singlet_A_7 printed to ASCII file 'State_singlet_A_7_Difference.txt'
  Total density matrix of state singlet_A_7 printed to ASCII file 'State_singlet_A_7_Total.txt'
  Difference density matrix of state singlet_A_8 printed to ASCII file 'State_singlet_A_8_Difference.txt'
  Total density matrix of state singlet_A_8 printed to ASCII file 'State_singlet_A_8_Total.txt'
  Difference density matrix of state singlet_A_9 printed to ASCII file 'State_singlet_A_9_Difference.txt'
  Total density matrix of state singlet_A_9 printed to ASCII file 'State_singlet_A_9_Total.txt'
  Difference density matrix of state singlet_A_10 printed to ASCII file 'State_singlet_A_10_Difference.txt'
  Total density matrix of state singlet_A_10 printed to ASCII file 'State_singlet_A_10_Total.txt'
  Properties ...  CPU 0.84 s  wall 0.77 s
  ISR TDMS ...  CPU 42.12 s  wall 11.08 s
  ISR transition properties ...  CPU 1.24 s  wall 0.35 s
  Sum-over-states TPA ...  CPU 0.00 s  wall 0.00 s

--------------------------------------------------------------------------------
                   State-averaged natural transition orbitals
--------------------------------------------------------------------------------
--------------------------------------------------------------------------------
  SA-NTO decomposition ...  CPU 0.01 s  wall 0.02 s

--------------------------------------------------------------------------------
                             Excited State Summary
--------------------------------------------------------------------------------
--------------------------------------------------------------------------------

  Excited state 1 (singlet, A)                                     [converged]
  ----------------------------------------------------------------------------
  Term symbol:  2 (1) A                                     R^2 =  6.21573e-13

  Total energy:                                            -77.9986141083 a.u.
  Excitation energy:                                               8.737387 eV

  Osc. strength:                                                      0.445757
  Trans. dip. moment [a.u.]:           [  -1.045205,    0.994902,    0.009347]
  <i|r^2|0> [a.u.]:                    [  -6.162888,    0.243782,   -0.000063]
  Two-photon absorption cross-section (SoS) [a.u.]:                   0.000732
  Two-photon absorption matrix (SoS) [a.u.]:
                                       |   -0.005864   -0.004635   -0.000316 |
                                       |   -0.004635   -0.006323   -0.000866 |
                                       |   -0.000316   -0.000866    0.000950 |
  Two-photon absorption cross-section [a.u.]:                         0.000309
  Two-photon absorption matrix [a.u.]:
                                       |    0.001726   -0.000943   -0.000437 |
                                       |   -0.000943    0.004613   -0.001552 |
                                       |   -0.000437   -0.001552    0.002546 |

  Dip. moment [a.u.]:                  [  -0.000635,   -0.000380,    0.000401]
  Total dipole [Debye]:                                               0.002140
  <r^2> [a.u.]:                        [ 176.122783,   35.699902,   11.872042]
  Total <r^2> [a.u.]:                                               223.694728

  V1^2 = 0.9715, V2^2 = 0.0285

  Important amplitudes:
      occ i     occ j     vir a      vir b          v   
    -----------------------------------------------------
     8 (A) A              9 (A) A                -0.6811
     6 (A) A             14 (A) A                -0.0622
     4 (A) A             10 (A) A                -0.0608
     7 (A) A             16 (A) A                -0.0570
     5 (A) A             13 (A) A                 0.0514
     6 (A) A             23 (A) A                -0.0486
     8 (A) A             20 (A) A                -0.0350
     6 (A) A             19 (A) A                 0.0308
     3 (A) A             12 (A) A                 0.0282
     5 (A) A             22 (A) A                 0.0215
     7 (A) A             11 (A) A                 0.0208
     4 (A) A             24 (A) A                -0.0188
     3 (A) A             26 (A) A                 0.0185
     8 (A) A   8 (A) B   17 (A) A   20 (A) B      0.0184
     8 (A) A   8 (A) B    9 (A) A   28 (A) B      0.0168
     6 (A) A             26 (A) A                -0.0163
     7 (A) A             21 (A) A                -0.0149
     3 (A) A             14 (A) A                 0.0139
     6 (A) A             12 (A) A                 0.0133
     3 (A) A   4 (A) B    9 (A) A    9 (A) B      0.0129
     3 (A) A             19 (A) A                -0.0119
     8 (A) A   8 (A) B   18 (A) A   19 (A) B      0.0112
     7 (A) A             32 (A) A                -0.0096
     7 (A) A             36 (A) A                -0.0086
     3 (A) A             23 (A) A                 0.0081
     8 (A) A   8 (A) B   25 (A) A   29 (A) B     -0.0076
     6 (A) A             35 (A) A                -0.0072
     6 (A) A             40 (A) A                -0.0068
     3 (A) A   6 (A) B    9 (A) A   28 (A) B     -0.0065
     6 (A) A   8 (A) A   19 (A) A   28 (A) A      0.0061
     5 (A) A   7 (A) B    9 (A) A    9 (A) B      0.0060
     5 (A) A   8 (A) B   11 (A) A   20 (A) B     -0.0060
     7 (A) A   8 (A) B   13 (A) A   20 (A) B     -0.0059
     5 (A) A   8 (A) B   16 (A) A    9 (A) B      0.0059
     5 (A) A   8 (A) B   11 (A) A    9 (A) B      0.0059
     3 (A) A   5 (A) B    9 (A) A   25 (A) B      0.0058
     3 (A) A             40 (A) A                 0.0057
     7 (A) A   8 (A) B   22 (A) A   20 (A) B     -0.0057
     6 (A) A   8 (A) A    9 (A) A   18 (A) A     -0.0057
     8 (A) A   8 (A) B   19 (A) A   30 (A) B      0.0056
    -----------------------------------------------------

  Density matrix analysis:
  ------------------------
  NOs
    Occupation of frontier NOs:
       0.9495   1.0217
    Number of electrons: 16.000000
    Number of unpaired electrons: n_u =  2.31368, n_u,nl =  2.03269
    NO participation ratio (PR_NO):  2.864876
  
  
  Mulliken Population Analysis
  Atom      Charge (e)              h+              e-           Del q
  --------------------------------------------------------------------
   1 H        0.058775        0.020284       -0.012533        0.007751
   2 C       -0.115190        0.490880       -0.506077       -0.015197
   3 H        0.058229        0.020199       -0.012603        0.007596
   4 C       -0.119420        0.490732       -0.506384       -0.015652
   5 H        0.059118        0.020252       -0.012534        0.007718
   6 H        0.058488        0.020298       -0.012514        0.007784
  --------------------------------------------------------------------
  Sum:       -0.000000        1.062645       -1.062645       -0.000000
  
  Multipole moment analysis of the density matrix
    Molecular charge:                      0.000000
    Number of electrons:                   16.000000
      Center of electronic charge [Ang]: [ -1.560555,  -0.065277,   0.001965]
    Total nuclear charge:                  16.000000
      Center of nuclear charge [Ang]:    [ -1.560576,  -0.065290,   0.001978]
    Dipole moment [D]:                     0.002140
      Cartesian components [D]:          [ -0.001615,  -0.000966,   0.001018]
    RMS size of the density [Ang]:         1.214685
      Cartesian components [Ang]:        [  0.804444,   0.787750,   0.455827]
  
  Exciton analysis of the difference density matrix
    <r_h> [Ang]:                  [ -1.560237,  -0.065667,   0.001772]
    <r_e> [Ang]:                  [ -1.560292,  -0.065602,   0.001731]
    |<r_e - r_h>| [Ang]:            0.000095
    Hole size [Ang]:                1.285571
      Cartesian components [Ang]: [  0.728439,   0.712946,   0.783439]
    Electron size [Ang]:            1.463237
      Cartesian components [Ang]: [  0.853987,   0.830630,   0.849601]

  Transition density matrix analysis:
  -----------------------------------
  
  CT numbers (Mulliken)
    omega =     0.9535
    <Phe> =    -0.1606
  
  Exciton analysis of the transition density matrix
    Trans. dipole moment [D]:             1.833924
      Cartesian components [D]:         [ -1.328323,   1.264395,   0.011878]
    <r_h> [Ang]:                        [ -1.560048,  -0.065921,   0.001802]
    <r_e> [Ang]:                        [ -1.560312,  -0.065561,   0.001704]
    |<r_e - r_h>| [Ang]:                  0.000457
    Hole size [Ang]:                      1.214147
      Cartesian components [Ang]:       [  0.649562,   0.636497,   0.804422]
    Electron size [Ang]:                  1.486093
      Cartesian components [Ang]:       [  0.864435,   0.839523,   0.869728]
    RMS electron-hole separation [Ang]:   1.936686
      Cartesian components [Ang]:       [  1.106727,   1.075147,   1.170457]
    Covariance(r_h, r_e) [Ang^2]:        -0.034063
    Correlation coefficient:             -0.018878
    Center-of-mass size [Ang]:            0.950592
      Cartesian components [Ang]:       [  0.527616,   0.515731,   0.599390]

  Decomposition into state-averaged NTOs
    H- 0 -> L+ 0:  0.6699 ( 89.7%)
    H- 2 -> L+ 5:  0.0836 (  1.4%)
                   omega =  95.3%
  ----------------------------------------------------------------------------


  Excited state 2 (singlet, A)                                     [converged]
  ----------------------------------------------------------------------------
  Term symbol:  3 (1) A                                     R^2 =  3.87510e-13

  Total energy:                                            -77.9872359029 a.u.
  Excitation energy:                                               9.047004 eV

  Osc. strength:                                                      0.000005
  Trans. dip. moment [a.u.]:           [  -0.002071,    0.001941,    0.003786]
  <i|r^2|0> [a.u.]:                    [   0.051496,    0.087197,   -0.150466]
  Two-photon absorption cross-section (SoS) [a.u.]:                   4.877696
  Two-photon absorption matrix (SoS) [a.u.]:
                                       |    0.051005    0.058385   -0.528579 |
                                       |    0.058385    0.066339   -0.562582 |
                                       |   -0.528579   -0.562582   -0.117539 |
  Two-photon absorption cross-section [a.u.]:                         0.086272
  Two-photon absorption matrix [a.u.]:
                                       |   -0.002998   -0.007268    0.054410 |
                                       |   -0.007268   -0.012680    0.086975 |
                                       |    0.054410    0.086975    0.015568 |

  Dip. moment [a.u.]:                  [  -0.015581,    0.007374,    0.000544]
  Total dipole [Debye]:                                               0.043837
  <r^2> [a.u.]:                        [ 174.462717,   34.010482,   13.176144]
  Total <r^2> [a.u.]:                                               221.649343

  V1^2 = 0.9542, V2^2 = 0.0458

  Important amplitudes:
      occ i     occ j     vir a      vir b          v   
    -----------------------------------------------------
     7 (A) A              9 (A) A                -0.6691
     8 (A) A             11 (A) A                 0.1488
     7 (A) A             20 (A) A                -0.0759
     5 (A) A   8 (A) B    9 (A) A    9 (A) B      0.0316
     8 (A) A             16 (A) A                 0.0274
     8 (A) A             21 (A) A                -0.0176
     5 (A) A             28 (A) A                 0.0151
     4 (A) A   7 (A) B    9 (A) A   19 (A) B      0.0135
     5 (A) A   7 (A) B    9 (A) A   16 (A) B     -0.0134
     7 (A) A   8 (A) B   20 (A) A   17 (A) B      0.0105
     7 (A) A   8 (A) A    9 (A) A   28 (A) A     -0.0098
     5 (A) A   8 (A) B    9 (A) A   20 (A) B      0.0095
     4 (A) A   6 (A) B    9 (A) A   16 (A) B     -0.0091
     5 (A) A   6 (A) A    9 (A) A   23 (A) A     -0.0091
     5 (A) A   6 (A) A    9 (A) A   14 (A) A     -0.0089
     5 (A) A   6 (A) B    9 (A) A   19 (A) B      0.0086
     8 (A) A   7 (A) B    9 (A) A   28 (A) B      0.0085
     4 (A) A   5 (A) A    9 (A) A   10 (A) A      0.0085
     6 (A) A   7 (A) B    9 (A) A   18 (A) B     -0.0083
     5 (A) A   6 (A) B    9 (A) A   23 (A) B     -0.0080
     3 (A) A   7 (A) B    9 (A) A   18 (A) B     -0.0080
     5 (A) A   7 (A) A    9 (A) A   16 (A) A     -0.0079
     4 (A) A   8 (A) B    9 (A) A   25 (A) B      0.0077
     7 (A) A   8 (A) B   17 (A) A   20 (A) B      0.0074
     4 (A) A   7 (A) B   19 (A) A    9 (A) B      0.0074
     5 (A) A   5 (A) B    9 (A) A   13 (A) B      0.0072
     7 (A) A   8 (A) B   19 (A) A   18 (A) B      0.0072
     5 (A) A   8 (A) A    9 (A) A   20 (A) A      0.0069
     4 (A) A   5 (A) B    9 (A) A   18 (A) B     -0.0068
     7 (A) A   7 (A) B   20 (A) A   22 (A) B     -0.0065
     8 (A) A             10 (A) A                -0.0065
     7 (A) A   8 (A) B   17 (A) A    9 (A) B      0.0065
     5 (A) A   6 (A) B    9 (A) A   14 (A) B     -0.0063
     4 (A) A   7 (A) A    9 (A) A   19 (A) A      0.0061
     4 (A) A   5 (A) B   10 (A) A    9 (A) B     -0.0061
     5 (A) A   7 (A) B   11 (A) A   20 (A) B     -0.0060
     4 (A) A   7 (A) B    9 (A) A   14 (A) B      0.0060
     5 (A) A             38 (A) A                 0.0057
     4 (A) A   8 (A) A    9 (A) A   25 (A) A      0.0057
     6 (A) A   7 (A) A   19 (A) A   28 (A) A      0.0057
    -----------------------------------------------------

  Density matrix analysis:
  ------------------------
  NOs
    Occupation of frontier NOs:
       0.9576   1.0540
    Number of electrons: 16.000000
    Number of unpaired electrons: n_u =  2.35558, n_u,nl =  2.06306
    NO participation ratio (PR_NO):  3.029912
  
  
  Mulliken Population Analysis
  Atom      Charge (e)              h+              e-           Del q
  --------------------------------------------------------------------
   1 H        0.146583        0.120913       -0.025353        0.095559
   2 C       -0.301245        0.269868       -0.471119       -0.201252
   3 H        0.153176        0.126337       -0.023794        0.102542
   4 C       -0.304365        0.274210       -0.474808       -0.200597
   5 H        0.155392        0.129898       -0.025907        0.103992
   6 H        0.150459        0.122780       -0.023024        0.099756
  --------------------------------------------------------------------
  Sum:       -0.000000        1.044005       -1.044005       -0.000000
  
  Multipole moment analysis of the density matrix
    Molecular charge:                      0.000000
    Number of electrons:                   16.000000
      Center of electronic charge [Ang]: [ -1.560061,  -0.065534,   0.001960]
    Total nuclear charge:                  16.000000
      Center of nuclear charge [Ang]:    [ -1.560576,  -0.065290,   0.001978]
    Dipole moment [D]:                     0.043837
      Cartesian components [D]:          [ -0.039604,   0.018744,   0.001383]
    RMS size of the density [Ang]:         1.200487
      Cartesian components [Ang]:        [  0.787159,   0.768732,   0.480211]
  
  Exciton analysis of the difference density matrix
    <r_h> [Ang]:                  [ -1.566339,  -0.057230,   0.002231]
    <r_e> [Ang]:                  [ -1.558820,  -0.061094,   0.002117]
    |<r_e - r_h>| [Ang]:            0.008455
    Hole size [Ang]:                1.487071
      Cartesian components [Ang]: [  0.997489,   1.004839,   0.454636]
    Electron size [Ang]:            1.477517
      Cartesian components [Ang]: [  0.880685,   0.860807,   0.816372]

  Transition density matrix analysis:
  -----------------------------------
  
  CT numbers (Mulliken)
    omega =     0.9217
    <Phe> =    -0.0121
  
  Exciton analysis of the transition density matrix
    Trans. dipole moment [D]:             0.006014
      Cartesian components [D]:         [ -0.002632,   0.002467,   0.004811]
    <r_h> [Ang]:                        [ -1.567508,  -0.056156,   0.002291]
    <r_e> [Ang]:                        [ -1.557698,  -0.061759,   0.002074]
    |<r_e - r_h>| [Ang]:                  0.011300
    Hole size [Ang]:                      1.515850
      Cartesian components [Ang]:       [  1.019972,   1.029545,   0.444405]
    Electron size [Ang]:                  1.474458
      Cartesian components [Ang]:       [  0.871199,   0.850013,   0.832175]
    RMS electron-hole separation [Ang]:   2.094880
      Cartesian components [Ang]:       [  1.325548,   1.320169,   0.942655]
    Covariance(r_h, r_e) [Ang^2]:         0.041716
    Correlation coefficient:              0.018664
    Center-of-mass size [Ang]:            1.067153
      Cartesian components [Ang]:       [  0.678542,   0.674936,   0.472076]

  Decomposition into state-averaged NTOs
    H- 1 -> L+ 0:  0.6615 ( 87.5%)
    H- 0 -> L+ 2: -0.1488 (  4.4%)
                   omega =  92.2%
  ----------------------------------------------------------------------------


  Excited state 3 (singlet, A)                                     [converged]
  ----------------------------------------------------------------------------
  Term symbol:  4 (1) A                                     R^2 =  5.09598e-13

  Total energy:                                            -77.9828282843 a.u.
  Excitation energy:                                               9.166941 eV

  Osc. strength:                                                      0.025003
  Trans. dip. moment [a.u.]:           [   0.015343,    0.020143,   -0.332701]
  <i|r^2|0> [a.u.]:                    [   0.091989,    0.004286,    0.001254]
  Two-photon absorption cross-section (SoS) [a.u.]:                   0.001868
  Two-photon absorption matrix (SoS) [a.u.]:
                                       |    0.008549    0.001176   -0.012804 |
                                       |    0.001176   -0.006270   -0.002385 |
                                       |   -0.012804   -0.002385    0.001939 |
  Two-photon absorption cross-section [a.u.]:                         0.001232
  Two-photon absorption matrix [a.u.]:
                                       |    0.007598    0.000146   -0.009844 |
                                       |    0.000146   -0.003886    0.003506 |
                                       |   -0.009844    0.003506    0.001602 |

  Dip. moment [a.u.]:                  [   0.003625,   -0.013926,   -0.001155]
  Total dipole [Debye]:                                               0.036693
  <r^2> [a.u.]:                        [ 180.876917,   40.662245,   11.029612]
  Total <r^2> [a.u.]:                                               232.568775

  V1^2 = 0.9587, V2^2 = 0.0413

  Important amplitudes:
      occ i     occ j     vir a      vir b          v   
    -----------------------------------------------------
     8 (A) A             10 (A) A                 0.6890
     8 (A) A             24 (A) A                 0.0507
     8 (A) A             18 (A) A                -0.0314
     4 (A) A              9 (A) A                 0.0239
     8 (A) A   8 (A) B    9 (A) A   12 (A) B     -0.0220
     8 (A) A   8 (A) B   10 (A) A   17 (A) B      0.0173
     8 (A) A             15 (A) A                 0.0168
     5 (A) A   8 (A) B   11 (A) A   10 (A) B     -0.0166
     7 (A) A   8 (A) B   13 (A) A   10 (A) B     -0.0141
     4 (A) A   8 (A) B   12 (A) A   10 (A) B     -0.0111
     6 (A) A   8 (A) A   10 (A) A   15 (A) A      0.0110
     7 (A) A   8 (A) B   22 (A) A   10 (A) B     -0.0108
     6 (A) A   8 (A) B   15 (A) A   10 (A) B     -0.0108
     4 (A) A   8 (A) A   10 (A) A   12 (A) A      0.0106
     7 (A) A   8 (A) A   10 (A) A   22 (A) A      0.0099
     7 (A) A   8 (A) A   10 (A) A   13 (A) A      0.0097
     5 (A) A   8 (A) A   10 (A) A   11 (A) A      0.0094
     5 (A) A   8 (A) B   21 (A) A   10 (A) B      0.0094
     6 (A) A   8 (A) A   10 (A) A   18 (A) A      0.0088
     6 (A) A   8 (A) B   10 (A) A   10 (A) B      0.0087
     7 (A) A   8 (A) A   12 (A) A   16 (A) A     -0.0082
     5 (A) A   8 (A) A   10 (A) A   21 (A) A     -0.0079
     3 (A) A   4 (A) B   10 (A) A    9 (A) B     -0.0079
     4 (A) A   8 (A) B   19 (A) A   10 (A) B      0.0075
     8 (A) A   8 (A) B    9 (A) A   23 (A) B      0.0075
     8 (A) A   8 (A) B   10 (A) A   28 (A) B     -0.0073
     3 (A) A   8 (A) B   10 (A) A   10 (A) B      0.0072
     5 (A) A   8 (A) B   10 (A) A   11 (A) B     -0.0071
     3 (A) A   8 (A) A   10 (A) A   24 (A) A     -0.0071
     7 (A) A   8 (A) B   16 (A) A   12 (A) B      0.0071
     3 (A) A   8 (A) B   10 (A) A   18 (A) B     -0.0069
     8 (A) A   8 (A) B    9 (A) A   19 (A) B      0.0068
     7 (A) A              9 (A) A                -0.0067
     6 (A) A   8 (A) B   18 (A) A   10 (A) B     -0.0067
     3 (A) A   6 (A) B   10 (A) A   28 (A) B      0.0062
     7 (A) A   8 (A) B   12 (A) A   11 (A) B      0.0058
     6 (A) A             28 (A) A                -0.0057
     3 (A) A   5 (A) B   10 (A) A   25 (A) B     -0.0056
     5 (A) A   8 (A) A   10 (A) A   16 (A) A      0.0056
     3 (A) A   8 (A) A   10 (A) A   18 (A) A     -0.0055
    -----------------------------------------------------

  Density matrix analysis:
  ------------------------
  NOs
    Occupation of frontier NOs:
       0.9815   0.9849
    Number of electrons: 16.000000
    Number of unpaired electrons: n_u =  2.28568, n_u,nl =  2.02449
    NO participation ratio (PR_NO):  2.693021
  
  
  Mulliken Population Analysis
  Atom      Charge (e)              h+              e-           Del q
  --------------------------------------------------------------------
   1 H       -0.161846        0.053743       -0.266613       -0.212870
   2 C        0.326604        0.537633       -0.111036        0.426597
   3 H       -0.161726        0.054007       -0.266366       -0.212359
   4 C        0.324233        0.538640       -0.110639        0.428001
   5 H       -0.164455        0.053914       -0.269769       -0.215855
   6 H       -0.162811        0.053973       -0.267487       -0.213514
  --------------------------------------------------------------------
  Sum:       -0.000000        1.291910       -1.291910       -0.000000
  
  Multipole moment analysis of the density matrix
    Molecular charge:                      -0.000000
    Number of electrons:                   16.000000
      Center of electronic charge [Ang]: [ -1.560696,  -0.064829,   0.002016]
    Total nuclear charge:                  16.000000
      Center of nuclear charge [Ang]:    [ -1.560576,  -0.065290,   0.001978]
    Dipole moment [D]:                     0.036693
      Cartesian components [D]:          [  0.009213,  -0.035396,  -0.002936]
    RMS size of the density [Ang]:         1.276867
      Cartesian components [Ang]:        [  0.854340,   0.841106,   0.439356]
  
  Exciton analysis of the difference density matrix
    <r_h> [Ang]:                  [ -1.561027,  -0.065053,   0.001856]
    <r_e> [Ang]:                  [ -1.562817,  -0.059450,   0.002460]
    |<r_e - r_h>| [Ang]:            0.005913
    Hole size [Ang]:                1.410408
      Cartesian components [Ang]: [  0.833843,   0.820316,   0.788061]
    Electron size [Ang]:            2.075979
      Cartesian components [Ang]: [  1.372494,   1.377912,   0.726160]

  Transition density matrix analysis:
  -----------------------------------
  
  CT numbers (Mulliken)
    omega =     0.9258
    <Phe> =    -0.0109
  
  Exciton analysis of the transition density matrix
    Trans. dipole moment [D]:             0.424043
      Cartesian components [D]:         [  0.019499,   0.025599,  -0.422821]
    <r_h> [Ang]:                        [ -1.560399,  -0.066230,   0.001715]
    <r_e> [Ang]:                        [ -1.563510,  -0.057661,   0.002628]
    |<r_e - r_h>| [Ang]:                  0.009162
    Hole size [Ang]:                      1.212917
      Cartesian components [Ang]:       [  0.636478,   0.623515,   0.822978]
    Electron size [Ang]:                  2.296422
      Cartesian components [Ang]:       [  1.516990,   1.525710,   0.802811]
    RMS electron-hole separation [Ang]:   2.587155
      Cartesian components [Ang]:       [  1.637602,   1.641223,   1.148051]
    Covariance(r_h, r_e) [Ang^2]:         0.025717
    Correlation coefficient:              0.009233
    Center-of-mass size [Ang]:            1.303472
      Cartesian components [Ang]:       [  0.826286,   0.827585,   0.575668]

  Decomposition into state-averaged NTOs
    H- 0 -> L+ 1:  0.6795 ( 92.3%)
                   omega =  92.6%
  ----------------------------------------------------------------------------


  Excited state 4 (singlet, A)                                     [converged]
  ----------------------------------------------------------------------------
  Term symbol:  5 (1) A                                     R^2 =  4.56862e-13

  Total energy:                                            -77.9586338037 a.u.
  Excitation energy:                                               9.825307 eV

  Osc. strength:                                                      0.000003
  Trans. dip. moment [a.u.]:           [  -0.000897,    0.000583,    0.003172]
  <i|r^2|0> [a.u.]:                    [  -0.021819,   -0.019298,    0.035938]
  Two-photon absorption cross-section (SoS) [a.u.]:                 148.201778
  Two-photon absorption matrix (SoS) [a.u.]:
                                       |   -0.283968   -0.322328    2.952913 |
                                       |   -0.322328   -0.363053    3.063674 |
                                       |    2.952913    3.063674    0.647008 |
  Two-photon absorption cross-section [a.u.]:                        90.846176
  Two-photon absorption matrix [a.u.]:
                                       |   -0.222839   -0.252263    2.299623 |
                                       |   -0.252263   -0.283987    2.410455 |
                                       |    2.299623    2.410455    0.506805 |

  Dip. moment [a.u.]:                  [   0.015517,    0.010406,    0.000812]
  Total dipole [Debye]:                                               0.047533
  <r^2> [a.u.]:                        [ 181.180529,   40.783578,   10.767593]
  Total <r^2> [a.u.]:                                               232.731701

  V1^2 = 0.9635, V2^2 = 0.0365

  Important amplitudes:
      occ i     occ j     vir a      vir b          v   
    -----------------------------------------------------
     8 (A) A             11 (A) A                -0.6697
     7 (A) A              9 (A) A                -0.1508
     8 (A) A             21 (A) A                 0.0781
     8 (A) A             16 (A) A                -0.0648
     8 (A) A   8 (A) B    9 (A) A   13 (A) B     -0.0167
     5 (A) A   8 (A) B   11 (A) A   11 (A) B      0.0156
     8 (A) A   8 (A) B   11 (A) A   17 (A) B     -0.0140
     7 (A) A             20 (A) A                -0.0138
     7 (A) A   8 (A) B   13 (A) A   11 (A) B      0.0127
     5 (A) A   8 (A) A   11 (A) A   21 (A) A      0.0110
     4 (A) A   8 (A) B   12 (A) A   11 (A) B      0.0110
     8 (A) A   8 (A) B    9 (A) A   22 (A) B     -0.0108
     7 (A) A   8 (A) A   11 (A) A   22 (A) A     -0.0096
     6 (A) A   8 (A) B   15 (A) A   11 (A) B      0.0090
     6 (A) A   8 (A) B   10 (A) A   11 (A) B     -0.0090
     7 (A) A   8 (A) B   22 (A) A   11 (A) B      0.0089
     3 (A) A   4 (A) B   11 (A) A    9 (A) B      0.0083
     3 (A) A   8 (A) B   11 (A) A   18 (A) B      0.0081
     6 (A) A   8 (A) A   11 (A) A   15 (A) A     -0.0080
     7 (A) A   8 (A) A   13 (A) A   16 (A) A     -0.0078
     7 (A) A   8 (A) A   11 (A) A   13 (A) A     -0.0077
     5 (A) A   8 (A) B   21 (A) A   11 (A) B     -0.0071
     4 (A) A   8 (A) B   19 (A) A   11 (A) B     -0.0070
     5 (A) A   8 (A) B    9 (A) A    9 (A) B      0.0068
     4 (A) A   8 (A) A   11 (A) A   12 (A) A     -0.0062
     6 (A) A   8 (A) A   11 (A) A   18 (A) A     -0.0062
     3 (A) A   6 (A) B   11 (A) A   28 (A) B     -0.0060
     6 (A) A   8 (A) B   18 (A) A   11 (A) B      0.0060
     7 (A) A   8 (A) B   16 (A) A   13 (A) B      0.0057
     3 (A) A   8 (A) A   11 (A) A   18 (A) A      0.0056
     5 (A) A   8 (A) B   10 (A) A   10 (A) B      0.0056
     3 (A) A   8 (A) B   11 (A) A   30 (A) B      0.0055
     3 (A) A   5 (A) B   11 (A) A   25 (A) B      0.0055
     6 (A) A   8 (A) B   11 (A) A   10 (A) B     -0.0054
     7 (A) A   8 (A) B   12 (A) A   10 (A) B     -0.0054
     8 (A) A   8 (A) B   20 (A) A   22 (A) B     -0.0053
     3 (A) A   8 (A) A   11 (A) A   24 (A) A      0.0053
     5 (A) A   8 (A) A   11 (A) A   16 (A) A     -0.0049
     6 (A) A   8 (A) A   10 (A) A   16 (A) A      0.0048
     8 (A) A   8 (A) B   11 (A) A   28 (A) B      0.0044
    -----------------------------------------------------

  Density matrix analysis:
  ------------------------
  NOs
    Occupation of frontier NOs:
       0.9405   1.0280
    Number of electrons: 16.000000
    Number of unpaired electrons: n_u =  2.31943, n_u,nl =  2.04932
    NO participation ratio (PR_NO):  2.916461
  
  
  Mulliken Population Analysis
  Atom      Charge (e)              h+              e-           Del q
  --------------------------------------------------------------------
   1 H       -0.133457        0.045936       -0.230417       -0.184481
   2 C        0.274489        0.496449       -0.121967        0.374482
   3 H       -0.139201        0.046742       -0.236577       -0.189835
   4 C        0.269802        0.497097       -0.123527        0.373570
   5 H       -0.132835        0.046838       -0.231073       -0.184235
   6 H       -0.138799        0.046080       -0.235582       -0.189502
  --------------------------------------------------------------------
  Sum:       -0.000000        1.179143       -1.179143       -0.000000
  
  Multipole moment analysis of the density matrix
    Molecular charge:                      -0.000000
    Number of electrons:                   16.000000
      Center of electronic charge [Ang]: [ -1.561089,  -0.065634,   0.001951]
    Total nuclear charge:                  16.000000
      Center of nuclear charge [Ang]:    [ -1.560576,  -0.065290,   0.001978]
    Dipole moment [D]:                     0.047533
      Cartesian components [D]:          [  0.039440,   0.026450,   0.002065]
    RMS size of the density [Ang]:         1.277461
      Cartesian components [Ang]:        [  0.856727,   0.842305,   0.434106]
  
  Exciton analysis of the difference density matrix
    <r_h> [Ang]:                  [ -1.561162,  -0.065441,   0.001810]
    <r_e> [Ang]:                  [ -1.568461,  -0.070222,   0.001589]
    |<r_e - r_h>| [Ang]:            0.008728
    Hole size [Ang]:                1.394873
      Cartesian components [Ang]: [  0.817959,   0.807315,   0.790479]
    Electron size [Ang]:            2.123345
      Cartesian components [Ang]: [  1.423569,   1.422007,   0.678188]

  Transition density matrix analysis:
  -----------------------------------
  
  CT numbers (Mulliken)
    omega =     0.9297
    <Phe> =    -0.0136
  
  Exciton analysis of the transition density matrix
    Trans. dipole moment [D]:             0.004254
      Cartesian components [D]:         [ -0.001141,   0.000741,   0.004031]
    <r_h> [Ang]:                        [ -1.560539,  -0.065373,   0.001774]
    <r_e> [Ang]:                        [ -1.570203,  -0.070861,   0.001526]
    |<r_e - r_h>| [Ang]:                  0.011117
    Hole size [Ang]:                      1.228077
      Cartesian components [Ang]:       [  0.658801,   0.649684,   0.807505]
    Electron size [Ang]:                  2.261024
      Cartesian components [Ang]:       [  1.515565,   1.515389,   0.720339]
    RMS electron-hole separation [Ang]:   2.562325
      Cartesian components [Ang]:       [  1.644115,   1.640872,   1.081635]
    Covariance(r_h, r_e) [Ang^2]:         0.027508
    Correlation coefficient:              0.009907
    Center-of-mass size [Ang]:            1.291842
      Cartesian components [Ang]:       [  0.830496,   0.828335,   0.541288]

  Decomposition into state-averaged NTOs
    H- 0 -> L+ 2:  0.6646 ( 88.3%)
    H- 1 -> L+ 0:  0.1487 (  4.4%)
                   omega =  93.0%
  ----------------------------------------------------------------------------


  Excited state 5 (singlet, A)                                     [converged]
  ----------------------------------------------------------------------------
  Term symbol:  6 (1) A                                     R^2 =  4.49503e-13

  Total energy:                                            -77.9445752965 a.u.
  Excitation energy:                                              10.207858 eV

  Osc. strength:                                                      0.000001
  Trans. dip. moment [a.u.]:           [  -0.000015,   -0.000006,    0.002226]
  <i|r^2|0> [a.u.]:                    [   0.087658,   -0.102391,    0.014794]
  Two-photon absorption cross-section (SoS) [a.u.]:                 180.896561
  Two-photon absorption matrix (SoS) [a.u.]:
                                       |    0.327630    0.047900   -3.436548 |
                                       |    0.047900   -0.385727    3.266478 |
                                       |   -3.436548    3.266478    0.062664 |
  Two-photon absorption cross-section [a.u.]:                        81.737221
  Two-photon absorption matrix [a.u.]:
                                       |    0.220945    0.032199   -2.301579 |
                                       |    0.032199   -0.258757    2.204541 |
                                       |   -2.301579    2.204541    0.043608 |

  Dip. moment [a.u.]:                  [  -0.004369,   -0.004016,   -0.000270]
  Total dipole [Debye]:                                               0.015101
  <r^2> [a.u.]:                        [ 178.591317,   38.311443,   11.906923]
[...]
    16   -1.464302950701e-03
    17   -1.754428299583e-03
    18    1.581170785344e-05
    19   -3.238947527027e-03
    20    1.034326984143e-02
    21    9.272862643253e-01
    22   -3.300616341243e-04
    23    1.391331917293e-02
    24    8.085835007812e-04
    25    7.064122060051e-02
    26   -5.275830212437e-02
    27   -1.400174811328e+00
    28    9.737220279781e-02
    29   -9.415677660939e-02
    30   -1.126402006013e-03
    31    3.840910579192e-01
    32   -3.660534090401e-01
    33   -4.126144510558e-03
    34    1.557396389259e-02
    35   -1.468903947068e-03
    36   -1.773017992689e-03
    37   -1.380224249245e-04
    38   -3.171388728923e-03
    39    1.048372122419e-02
    40    9.366690200998e-01
    41    2.426140179706e-04
    42   -1.391362134916e-02
    43   -8.248757389949e-04
    44    1.028626769189e-02
    45    9.390706983518e-01
    46    1.410768184891e-02
    47    3.396372529213e-04
    48    6.815746048406e-04
Sym=X
Ene= 0.232779
Spin=Alpha
Occup=0
     1   -2.602840948391e-02
     2   -1.198662335173e+00
     3    1.375368028941e-02
     4    3.568251529372e-03
     5    8.579242213601e-04
     6   -2.802356454946e-04
     7    8.162216400152e-04
     8   -1.317563045453e-03
     9    1.527828166927e-01
    10    1.602367417678e-01
    11    1.667762223945e-02
    12    5.472369146048e-01
    13    5.651682806220e-01
    14    5.918113090504e-02
    15    1.737738005844e-04
    16   -2.283348793981e-05
    17   -2.135839095995e-05
    18    1.539378284134e-05
    19   -5.072145619260e-05
    20    2.593967581068e-02
    21    1.193350874895e+00
    22    2.739954650796e-03
    23    1.403977383295e-02
    24    9.605406288222e-04
    25    5.194636061470e-04
    26   -8.846938248714e-04
    27   -7.256200689711e-03
    28    1.529982280213e-01
    29    1.611656470894e-01
    30    1.687680482332e-02
    31    5.427686303469e-01
    32    5.606548996398e-01
    33    5.924910321836e-02
    34    1.054675110479e-04
    35   -2.391602042872e-05
    36    2.045798111908e-05
    37   -3.587061322637e-04
    38   -1.317051103323e-04
    39   -2.624282849564e-02
    40   -1.180415172187e+00
    41    2.652186921773e-03
    42    1.383618301921e-02
    43    9.532838077236e-04
    44    2.554767165516e-02
    45    1.196070195537e+00
    46    1.388081755585e-02
    47    3.576730215268e-03
    48    8.705292167320e-04
Sym=X
Ene= 0.239196
Spin=Alpha
Occup=0
     1    1.640012069549e-02
     2    1.090918511817e+00
     3   -1.700270281268e-02
     4   -9.195749713782e-03
     5   -1.356712787088e-03
     6    8.685698082787e-02
     7   -8.022175005656e-02
     8   -1.597631859780e+00
     9   -5.800047988755e-02
    10    5.605837905125e-02
    11    4.673995757230e-04
    12   -2.300556530390e-01
    13    2.201408792605e-01
    14    1.659619300011e-03
    15    2.259361038211e-02
    16   -2.629518465055e-03
    17   -2.955687359335e-03
    18    3.314957312355e-04
    19   -1.291655340077e-02
    20    1.671836942521e-02
    21    1.092719172836e+00
    22    8.483247212296e-03
    23    1.735033647026e-02
    24    1.423233001672e-03
    25   -8.629885814849e-02
    26    7.938078685767e-02
    27    1.585538001905e+00
    28   -5.715135790522e-02
    29    5.707077121740e-02
    30    8.756553906729e-04
    31   -2.253667884985e-01
    32    2.246350701993e-01
    33    3.433977047310e-03
    34   -2.236475244688e-02
    35    2.562304888083e-03
    36    2.973753139846e-03
    37   -6.176651154572e-04
    38    1.273420989651e-02
    39   -1.678711991659e-02
    40   -1.089396092467e+00
    41    8.540745693164e-03
    42    1.721918259555e-02
    43    1.441135361942e-03
    44   -1.665078472650e-02
    45   -1.078692764703e+00
    46   -1.672796534054e-02
    47   -9.300145131644e-03
    48   -1.331656867334e-03
Sym=X
Ene= 0.303227
Spin=Alpha
Occup=0
     1   -2.112182546318e-02
     2    1.691389480360e+00
     3   -2.293076528166e-02
     4    2.998608281184e-04
     5   -1.073661140351e-03
     6   -2.539048339970e-04
     7    1.865283794578e-05
     8    5.454606242344e-03
     9   -1.340356660644e-01
    10   -1.399444590909e-01
    11   -1.461518756552e-02
    12   -1.145515707373e+00
    13   -1.193513956532e+00
    14   -1.249510341859e-01
    15   -1.439788737950e-04
    16   -1.653509017498e-03
    17    1.869671864144e-03
    18   -3.285379738372e-02
    19   -1.576869030882e-03
    20    2.027476150943e-02
    21   -1.692156423745e+00
    22    1.422164359657e-03
    23   -2.300416610515e-02
    24   -1.286788174717e-03
    25    2.201480388292e-04
    26    2.712701802285e-04
    27   -2.028965971853e-02
    28    1.346096045013e-01
    29    1.404501839634e-01
    30    1.474834368326e-02
    31    1.136995066538e+00
    32    1.195498835872e+00
    33    1.249193072564e-01
    34    3.253000304926e-04
    35   -1.643007419267e-03
    36    1.840796084018e-03
    37   -3.244932739677e-02
    38   -1.877383090434e-03
    39    1.898610470048e-02
    40   -1.679749824848e+00
    41   -1.628815434246e-03
    42    2.279502366726e-02
    43    1.285576862665e-03
    44   -2.034177229335e-02
    45    1.696931733477e+00
    46    2.310583718090e-02
    47   -2.732722965078e-04
    48    1.073758060277e-03
Sym=X
Ene= 0.462006
Spin=Alpha
Occup=0
     1   -1.156337946056e-01
     2   -7.126782862360e-01
     3   -1.569517125819e-02
     4   -1.035855185427e-02
     5   -1.351375414507e-03
     6    6.081352158805e-02
     7    1.759554905990e-02
     8   -3.592497920702e+00
     9    1.027351510287e-01
    10   -9.866733752533e-02
    11   -9.763359555644e-04
    12    2.425610311753e+00
    13   -2.304972271592e+00
    14   -2.122690938130e-02
    15    5.367973516479e-02
    16   -3.372078602770e-03
    17   -4.641266045752e-03
    18   -8.287769914372e-04
    19    1.798521582221e-02
    20   -1.213836626283e-01
    21   -7.028384667726e-01
    22    8.746912504798e-03
    23    1.635202074743e-02
    24    1.382672270118e-03
    25   -6.108729389556e-02
    26   -1.626080882479e-02
    27    3.597634246238e+00
    28    1.054845030513e-01
    29   -1.005631793144e-01
    30   -1.141598980516e-03
    31    2.424857216233e+00
    32   -2.293604481117e+00
    33   -2.141481514904e-02
    34   -5.276972617478e-02
    35    3.244847958889e-03
    36    4.515522624220e-03
    37    4.759687020094e-04
    38   -1.927182936061e-02
    39    1.157522641449e-01
    40    7.002664650531e-01
    41    8.652830210369e-03
    42    1.620834119165e-02
    43    1.371078097470e-03
    44    1.105981556356e-01
    45    7.207929816862e-01
    46   -1.537831930881e-02
    47   -9.940782229158e-03
    48   -1.327316740889e-03
Sym=X
Ene= 0.577589
Spin=Alpha
Occup=0
     1    2.446069445500e-01
     2    4.158181133453e-02
     3   -1.879472689500e-02
     4    2.582416913085e-02
     5    6.367865034757e-04
     6   -4.390543429938e-03
     7   -1.575537871548e-01
     8   -4.708291461679e-01
     9    2.991049506937e-01
    10   -2.883973382577e-01
    11   -2.929113899352e-03
    12   -7.168424556744e-01
    13    6.932296251236e-01
    14    7.204414904912e-03
    15   -5.679967107161e-03
    16    3.827293392587e-03
    17    3.745608398423e-03
    18   -4.903238470670e-03
    19    6.020178589864e-02
    20    2.569320852452e-01
    21    2.715002140986e-02
    22   -2.619241748691e-02
    23    1.629760708512e-02
    24   -2.773439288994e-04
    25   -5.830862748165e-03
    26   -1.586664617012e-01
    27   -4.008893147774e-01
    28   -2.979408821010e-01
    29    2.847586701195e-01
    30    2.739327266505e-03
    31    7.696993752772e-01
    32   -7.308167966485e-01
    33   -7.113695431182e-03
    34   -5.830463363814e-03
    35    3.909653560235e-03
    36    3.677476917339e-03
    37   -3.414087253616e-03
    38    6.020707924464e-02
    39    2.476615760402e-01
    40    4.799725888533e-02
    41    2.785176028706e-02
    42   -1.776937436992e-02
    43    2.527158205727e-04
    44    2.509206900383e-01
    45    5.782994960595e-02
    46    1.834246607590e-02
    47   -2.576103925075e-02
    48   -6.733003796794e-04
Sym=X
Ene= 0.614839
Spin=Alpha
Occup=0
     1   -5.234984933798e-01
     2    1.975403807016e-01
     3   -6.118469408461e-02
     4    3.734790171734e-02
     5   -7.016009628462e-04
     6   -5.653317525963e-04
     7   -2.485553669974e-04
     8   -1.419406358632e-02
     9   -4.113189875650e-02
    10   -3.817375299943e-02
    11   -4.233267040962e-03
    12    3.103588591003e-01
    13    2.763222873351e-01
    14    3.094066555919e-02
    15    2.074379161683e-03
    16   -7.614586653380e-03
    17    8.179625253511e-03
    18   -1.477103327060e-01
    19   -6.939906655464e-03
    20    5.058805812650e-01
    21   -2.052897363710e-01
    22    4.191536262138e-02
    23   -5.834788406532e-02
    24   -1.465720079937e-03
    25    2.463859980973e-04
    26    6.029112076103e-04
    27    2.206055574465e-02
    28   -3.840302397972e-02
    29   -3.973077829788e-02
    30   -4.158376814317e-03
    31    2.975788536417e-01
    32    2.842023582460e-01
    33    3.111855204789e-02
    34   -3.791384202837e-04
    35    7.370007873245e-03
    36   -8.677149146823e-03
    37    1.496807824437e-01
    38    5.819486986906e-03
    39   -5.207924714273e-01
    40    2.213189899890e-01
    41    4.068304603799e-02
    42   -5.883612332634e-02
    43   -1.591168499919e-03
    44    5.180008317467e-01
    45   -2.059957943368e-01
    46   -6.132084107836e-02
    47    3.789846385245e-02
    48   -6.203143913292e-04
Sym=X
Ene= 0.689099
Spin=Alpha
Occup=0
     1    2.980902243670e-04
     2    5.879966376343e-05
     3    1.052065462101e-03
     4    1.269745517899e-03
     5   -2.100245593257e-02
     6    2.111287813413e-05
     7    2.513547367831e-04
     8   -1.812766512123e-05
     9    3.159319557143e-02
    10    3.978573788630e-02
    11   -6.702746153528e-01
    12   -2.922353753741e-02
    13   -3.607513524802e-02
    14    6.136254245641e-01
    15   -1.356766677297e-03
    16    8.273838737156e-02
    17   -7.833416014598e-02
    18   -8.595721315365e-03
    19   -1.123564736847e-03
    20    3.311915732394e-04
    21   -7.155298830750e-05
    22    9.474080867979e-04
    23    1.167858104512e-03
    24   -2.091533637681e-02
    25    9.752768230754e-06
    26    3.632530934562e-04
    27   -3.607583698688e-04
    28    3.185426663445e-02
    29    3.980573052022e-02
    30   -6.702769022800e-01
    31   -2.949596454385e-02
    32   -3.612425426760e-02
    33    6.130756383225e-01
    34    1.147514479049e-03
    35   -8.276141563814e-02
    36    7.833795853332e-02
    37    8.546189235925e-03
    38    1.199830736009e-03
    39    1.371644278815e-04
    40   -4.188992096782e-04
    41    9.728781282180e-04
    42    1.298416782724e-03
    43   -2.021726313247e-02
    44    1.097125293760e-04
    45   -2.906565739773e-04
    46    9.137001571877e-04
    47    1.255194878840e-03
    48   -2.109893640580e-02
Sym=X
Ene= 0.708424
Spin=Alpha
Occup=0
     1   -4.696253217593e-01
     2    1.526550859556e-01
     3   -7.957783957062e-02
     4   -4.440321712990e-02
     5   -6.421975734008e-03
     6   -4.720919660672e-02
     7   -3.204669667042e-01
     8    5.048871941633e-01
     9    2.038368914265e-01
    10   -1.926678286131e-01
    11   -2.145247264959e-03
    12   -9.434595733023e-02
    13    7.754356927517e-02
    14    3.214989987319e-04
    15    1.925657717698e-01
    16   -2.029514635496e-02
    17   -2.378842648176e-02
    18    3.858970779866e-03
    19   -7.729752960457e-02
    20   -4.779954920025e-01
    21    1.480532777206e-01
    22    4.052678085764e-02
    23    8.135700642679e-02
    24    6.709815910872e-03
    25   -4.709562290023e-02
    26   -3.174281728465e-01
    27    4.608150882673e-01
    28   -2.016911050694e-01
    29    1.932844267114e-01
    30    1.554030506617e-03
    31    6.079477756051e-02
    32   -6.279735915164e-02
    33   -1.747307901558e-04
    34    1.945935820966e-01
    35   -2.048028282180e-02
    36   -2.389428438982e-02
    37    2.335429318600e-03
    38   -7.568932530875e-02
    39   -4.765822402585e-01
    40    1.511773583401e-01
    41   -4.078398118009e-02
    42   -8.148528496293e-02
    43   -6.778606567394e-03
    44   -4.795014996389e-01
    45    1.455250091416e-01
    46    8.094811254808e-02
    47    4.389351395453e-02
    48    6.445359397532e-03
Sym=X
Ene= 0.783798
Spin=Alpha
Occup=0
     1   -5.319281100083e-01
     2    4.700011374145e-01
     3   -1.109021570100e-01
     4   -2.584310190610e-02
     5   -6.786682940165e-03
     6   -9.123133690848e-02
     7    2.117617200985e-01
     8    6.480183862009e-01
     9   -1.088539629408e-01
    10    1.038000182908e-01
    11    3.604329411778e-04
    12   -3.187619820079e-01
    13    2.955094162351e-01
    14    3.587944256570e-03
    15    2.076173754584e-01
    16   -1.768448557357e-02
    17   -2.189910122049e-02
    18    1.101156900328e-03
    19   -9.994161788250e-03
    20   -5.366224342997e-01
    21    4.699035978022e-01
    22    2.109423276830e-02
    23    1.125491039786e-01
    24    7.645946263599e-03
    25    9.077311949907e-02
    26   -2.192091333791e-01
    27   -6.448348980154e-01
    28   -1.167296090217e-01
    29    1.006383550031e-01
    30    9.697722561095e-04
    31   -2.993750120036e-01
    32    3.040759873384e-01
    33    2.691083270682e-03
    34   -2.055582964985e-01
    35    1.726001623781e-02
    36    2.199462958238e-02
    37   -2.981328169365e-03
    38    8.494829039001e-03
    39    5.404469386944e-01
    40   -4.844718507444e-01
    41    2.062665503684e-02
    42    1.129303144511e-01
    43    7.709405093165e-03
    44    5.285185034799e-01
    45   -4.553027474785e-01
    46   -1.082228435433e-01
    47   -2.620025368622e-02
    48   -6.681405493007e-03
Sym=X
Ene= 0.807935
Spin=Alpha
Occup=0
     1    3.754317929470e-04
     2   -6.037411764631e-04
     3    1.730617729064e-03
     4    2.008050597643e-03
     5   -3.382045267183e-02
     6    7.506748499704e-05
     7   -2.399623606911e-04
     8   -6.531141668678e-05
     9    3.626691532435e-02
    10    4.492686606435e-02
    11   -7.630897134814e-01
    12   -5.311194646660e-02
    13   -6.672808201657e-02
    14    1.126934872481e+00
    15    7.785689356858e-04
    16   -6.531146544055e-02
    17    6.185367275558e-02
    18    6.814275810795e-03
    19    8.839100635694e-04
    20    3.699987114076e-04
    21   -2.464663813705e-04
    22    1.662268347148e-03
    23    1.953370914364e-03
    24   -3.449495674135e-02
    25   -6.559982305281e-05
    26    5.543401921503e-05
    27    1.603992271257e-04
    28   -3.604155771637e-02
    29   -4.563328023972e-02
    30    7.633769002381e-01
    31    5.368411388354e-02
    32    6.693480201513e-02
    33   -1.126744994740e+00
    34    1.216580170723e-03
    35   -6.527640352893e-02
    36    6.184864601534e-02
    37    6.716806278533e-03
    38    9.701635994041e-04
    39   -3.692202416527e-04
    40    3.126068045441e-04
    41   -1.531295567879e-03
    42   -2.116076518896e-03
    43    3.329144004875e-02
    44   -3.647493038346e-04
    45    6.434746513299e-04
    46   -1.429648505278e-03
    47   -2.021659677793e-03
    48    3.384045118245e-02
Sym=X
Ene= 0.861919
Spin=Alpha
Occup=0
     1    1.374759735551e-02
     2   -1.092494235155e+00
     3    1.479564492071e-01
     4    5.648846959653e-02
     5    1.034416777077e-02
     6    6.788673082620e-04
     7   -3.889854666764e-03
     8    6.379213209032e-03
     9   -4.028629451092e-01
    10   -4.277149188703e-01
    11   -4.426464728436e-02
    12    9.416842601930e-01
    13    9.932010942695e-01
    14    1.030941964323e-01
    15   -1.828300145049e-03
    16    1.173987695501e-02
    17   -1.333243865957e-02
    18    2.343120444231e-01
    19    8.736747560953e-03
    20   -9.772742503393e-03
    21    1.094664773527e+00
    22    5.062980738937e-02
    23    1.495812197677e-01
    24    1.126074039620e-02
    25   -8.741844999736e-04
    26   -1.146186989115e-03
    27   -1.116128785114e-03
    28   -4.074447091214e-01
    29   -4.354615296630e-01
    30   -4.533807510024e-02
    31    9.480703700867e-01
    32    1.009628295370e+00
    33    1.052626274318e-01
    34    2.867023867727e-03
    35   -1.196726383752e-02
    36    1.330096856120e-02
    37   -2.361868786563e-01
    38   -1.004982189615e-02
    39    1.081217545160e-02
    40   -1.102447819544e+00
    41    4.905965625890e-02
    42    1.514757924843e-01
    43    1.137896954701e-02
    44   -1.589835706939e-02
    45    1.098420965065e+00
    46    1.501035035788e-01
    47    5.569027159213e-02
    48    1.037707972240e-02
Sym=X
Ene= 0.935277
Spin=Alpha
Occup=0
     1    1.147121356004e-01
     2   -1.283871854485e+00
     3    1.817145664359e-01
     4   -4.754481692766e-03
     5    8.359741684288e-03
     6   -4.806741856408e-04
     7    9.930055608338e-03
     8   -1.949239009824e-02
     9   -4.789057659598e-01
    10   -4.975149246922e-01
    11   -5.213949309258e-02
    12    1.474689251043e+00
    13    1.531275001191e+00
    14    1.605286997804e-01
    15    1.962249025699e-03
    16    5.973408239664e-03
    17   -7.135897953173e-03
    18    1.225380336772e-01
    19    4.588924265857e-03
    20   -1.206587354776e-01
    21    1.290008815271e+00
    22   -1.197723885290e-02
    23    1.845253291115e-01
    24    1.030687295121e-02
    25    8.796772174178e-04
    26    1.104909562751e-02
    27   -8.590512812821e-03
    28    4.666768759759e-01
    29    5.012938158969e-01
    30    5.191563694981e-02
    31   -1.442107922310e+00
    32   -1.534186205327e+00
    33   -1.595289944937e-01
    34   -2.464001341341e-03
    35    5.919235086162e-03
    36   -6.805811643763e-03
    37    1.188843322117e-01
    38    2.248634252545e-03
    39   -1.166881954883e-01
    40    1.278028589940e+00
    41    1.259392123116e-02
    42   -1.815823990877e-01
    43   -1.022933736719e-02
    44    1.187145587879e-01
    45   -1.264625717769e+00
    46   -1.802653275204e-01
    47    6.565041796301e-03
    48   -8.140303032877e-03
Sym=X
Ene= 0.972271
Spin=Alpha
Occup=0
     1   -6.331381591105e-02
     2    9.103824028721e-01
     3   -8.872366483823e-02
     4   -9.812128940867e-02
     5   -1.003482581394e-02
     6    2.543167309461e-02
     7    2.459297950243e-01
     8    5.299848360676e-01
     9    4.770247915998e-01
    10   -4.570975461543e-01
    11   -4.333882383173e-03
    12   -1.478317303811e+00
    13    1.415932564789e+00
    14    1.341646771806e-02
    15   -5.407668746197e-02
    16   -1.278390652055e-02
    17   -9.608046195283e-03
    18    1.371733607771e-02
    19   -3.007989103918e-01
    20   -6.185067564037e-02
    21    9.125781664213e-01
    22    9.478781182227e-02
    23    9.311831181755e-02
    24    9.994406116958e-03
    25   -2.546981838132e-02
    26   -2.455144313873e-01
    27   -5.306523626352e-01
    28    4.843492815170e-01
    29   -4.516086448168e-01
    30   -4.116657359386e-03
    31   -1.502993812107e+00
    32    1.398924086556e+00
    33    1.249409787024e-02
    34    5.379555758200e-02
    35    1.278859920759e-02
    36    9.495720563585e-03
    37   -1.191808717467e-02
    38    2.996013272388e-01
    39    6.167237263486e-02
    40   -8.942587905311e-01
    41    9.408989813684e-02
    42    9.111299922131e-02
    43    9.943107530785e-03
    44    6.605565722173e-02
    45   -9.305865309018e-01
    46   -9.158182667524e-02
    47   -9.823603249354e-02
    48   -1.009589060834e-02
[5D]

======= END OF MOLDEN-FORMATTED INPUT FILE =======


        *************************************************************
        *                                                           *
        *  Thank you very much for using Q-Chem.  Have a nice day.  *
        *                                                           *
        *************************************************************


