                  Welcome to Q-Chem
     A Quantum Leap Into The Future Of Chemistry


 Q-Chem 5.4 (devel), Q-Chem, Inc., Pleasanton, CA (2021)

 E. Epifanovsky,  A. T. B. Gilbert,  Xintian Feng,  Joonho Lee,  Yuezhi Mao,  
 N. Mardirossian,  P. Pokhilko,  A. White,  M. Wormit,  M. P. Coons,  
 A. L. Dempwolff,  Zhengting Gan,  D. Hait,  P. R. Horn,  L. D. Jacobson,  
 I. Kaliman,  J. Kussmann,  A. W. Lange,  Ka Un Lao,  D. S. Levine,  Jie Liu,  
 S. C. McKenzie,  A. F. Morrison,  K. Nanda,  F. Plasser,  D. R. Rehn,  
 M. L. Vidal,  Zhi-Qiang You,  Ying Zhu,  B. Alam,  B. Albrecht,  
 A. Aldossary,  E. Alguire,  J. H. Andersen,  D. Barton,  K. Begam,  A. Behn,  
 Y. A. Bernard,  E. J. Berquist,  H. Burton,  A. Carreras,  K. Carter-Fenk,  
 R. Chakraborty,  A. D. Chien,  K. D. Closser,  V. Cofer-Shabica,  
 S. Dasgupta,  Jia Deng,  M. de Wergifosse,  M. Diedenhofen,  Hainam Do,  
 S. Ehlert,  Po-Tung Fang,  S. Fatehi,  Qingguo Feng,  T. Friedhoff,  
 J. Gayvert,  Qinghui Ge,  G. Gidofalvi,  M. Goldey,  J. Gomes,  
 C. Gonzalez-Espinoza,  S. Gulania,  A. Gunina,  M. W. D. Hanson-Heine,  
 P. H. P. Harbach,  A. W. Hauser,  M. F. Herbst,  M. Hernandez Vera,  
 M. Hodecker,  Z. C. Holden,  S. Houck,  Xunkun Huang,  Kerwin Hui,  
 B. C. Huynh,  M. Ivanov,  Hyunjun Ji,  Hanjie Jiang,  B. Kaduk,  S. Kaehler,  
 K. Khistyaev,  Jaehoon Kim,  P. Klunzinger,  Z. Koczor-Benda,  
 Joong Hoon Koh,  D. Kosenkov,  L. Koulias,  T. Kowalczyk,  C. M. Krauter,  
 K. Kue,  A. Kunitsa,  T. Kus,  A. Landau,  K. V. Lawler,  D. Lefrancois,  
 S. Lehtola,  Rain Li,  Yi-Pei Li,  Jiashu Liang,  M. Liebenthal,  
 Hung-Hsuan Lin,  You-Sheng Lin,  Fenglai Liu,  Kuan-Yu Liu,  
 M. Loipersberger,  A. Luenser,  A. Manjanath,  P. Manohar,  E. Mansoor,  
 S. F. Manzer,  Shan-Ping Mao,  A. V. Marenich,  T. Markovich,  S. Mason,  
 S. A. Maurer,  P. F. McLaughlin,  M. F. S. J. Menger,  J.-M. Mewes,  
 S. A. Mewes,  P. Morgante,  J. W. Mullinax,  K. J. Oosterbaan,  G. Paran,  
 Alexander C. Paul,  Suranjan K. Paul,  F. Pavosevic,  Zheng Pei,  S. Prager,  
 E. I. Proynov,  E. Ramos,  B. Rana,  A. E. Rask,  A. Rettig,  R. M. Richard,  
 F. Rob,  E. Rossomme,  T. Scheele,  M. Scheurer,  M. Schneider,  
 N. Sergueev,  S. M. Sharada,  W. Skomorowski,  D. W. Small,  C. J. Stein,  
 Yu-Chuan Su,  E. J. Sundstrom,  Zhen Tao,  J. Thirman,  T. Tsuchimochi,  
 N. M. Tubman,  S. P. Veccham,  O. Vydrov,  J. Wenzel,  J. Witte,  A. Yamada,  
 Kun Yao,  S. Yeganeh,  S. R. Yost,  A. Zech,  Igor Ying Zhang,  Xing Zhang,  
 Yu Zhang,  D. Zuev,  A. Aspuru-Guzik,  A. T. Bell,  N. A. Besley,  
 K. B. Bravaya,  B. R. Brooks,  D. Casanova,  Jeng-Da Chai,  S. Coriani,  
 C. J. Cramer,  A. E. DePrince, III,  R. A. DiStasio Jr.,  A. Dreuw,  
 B. D. Dunietz,  T. R. Furlani,  W. A. Goddard III,  S. Grimme,  
 S. Hammes-Schiffer,  T. Head-Gordon,  W. J. Hehre,  Chao-Ping Hsu,  
 T.-C. Jagau,  Yousung Jung,  A. Klamt,  Jing Kong,  D. S. Lambrecht,  
 WanZhen Liang,  N. J. Mayhall,  C. W. McCurdy,  J. B. Neaton,  
 C. Ochsenfeld,  J. A. Parkhill,  R. Peverati,  V. A. Rassolov,  Yihan Shao,  
 L. V. Slipchenko,  T. Stauch,  R. P. Steele,  J. E. Subotnik,  
 A. J. W. Thom,  A. Tkatchenko,  D. G. Truhlar,  T. Van Voorhis,  
 T. A. Wesolowski,  K. B. Whaley,  H. L. Woodcock III,  P. M. Zimmerman,  
 S. Faraji,  P. M. W. Gill,  M. Head-Gordon,  J. M. Herbert,  A. I. Krylov

 Additional authors for Version 5.4.1: 
 S. Kotaru,  Shaozhi Li,  Xiangyuan Li,  F. Matz,  A. Molle,  Haisheng Ren,  
 Yingli Su,  Hung-Yi Tsai,  C. Utku,  Fang Wang

 Contributors to earlier versions of Q-Chem not listed above: 
 R. D. Adamson,  B. Austin,  R. Baer,  J. Baker,  G. J. O. Beran,  
 K. Brandhorst,  S. T. Brown,  E. F. C. Byrd,  A. K. Chakraborty,  
 G. K. L. Chan,  Chun-Min Chang,  Yunqing Chen,  C.-L. Cheng,  
 Siu Hung Chien,  D. M. Chipman,  D. L. Crittenden,  H. Dachsel,  
 R. J. Doerksen,  A. D. Dutoi,  R. G. Edgar,  J. Fosso-Tande,  
 L. Fusti-Molnar,  D. Ghosh,  A. Ghysels,  A. Golubeva-Zadorozhnaya,  
 J. Gonthier,  M. S. Gordon,  S. R. Gwaltney,  G. Hawkins,  J. E. Herr,  
 A. Heyden,  S. Hirata,  E. G. Hohenstein,  G. Kedziora,  F. J. Keil,  
 C. Kelley,  Jihan Kim,  R. A. King,  R. Z. Khaliullin,  P. P. Korambath,  
 W. Kurlancheek,  A. Laurent,  A. M. Lee,  M. S. Lee,  S. V. Levchenko,  
 Ching Yeh Lin,  D. Liotard,  E. Livshits,  R. C. Lochan,  I. Lotan,  
 L. A. Martinez-Martinez,  P. E. Maslen,  N. Nair,  D. P. O'Neill,  
 D. Neuhauser,  E. Neuscamman,  C. M. Oana,  R. Olivares-Amaya,  R. Olson,  
 T. M. Perrine,  B. Peters,  P. A. Pieniazek,  A. Prociuk,  Y. M. Rhee,  
 J. Ritchie,  M. A. Rohrdanz,  E. Rosta,  N. J. Russ,  H. F. Schaefer III,  
 M. W. Schmidt,  N. E. Schultz,  S. Sharma,  N. Shenvi,  C. D. Sherrill,  
 A. C. Simmonett,  A. Sodt,  T. Stein,  D. Stuck,  K. S. Thanthiriwatte,  
 V. Vanovschi,  L. Vogt,  Tao Wang,  A. Warshel,  M. A. Watson,  
 C. F. Williams,  Q. Wu,  X. Xu,  Jun Yang,  W. Zhang,  Yan Zhao

 Please cite Q-Chem as follows:
 Y. Shao et al., Mol. Phys. 113, 184-215 (2015)
 DOI: 10.1080/00268976.2014.952696

 Q-Chem 5.4.1 for Intel X86 EM64T Linux

 Parts of Q-Chem use Armadillo 9.800.1 (Horizon Scraper).
 http://arma.sourceforge.net/

 Q-Chem begins on Thu Nov 17 00:22:07 2022  

 Host: cpu308.baobab
0

     Scratch files written to /scratch/fum/qchem219764//
 Processing $rem in /home/share/wesolowski/qc5.aug2021.FDE/config/preferences:
 Processing $rem in /home/fum/.qchemrc:

 Checking the input file for inconsistencies... 	...done.

--------------------------------------------------------------
User input:
--------------------------------------------------------------
$comment
generated from CCJob.Templates
$end

$rem
sym_ignore = true
method = adc(2)
ee_states = 10
basis = cc-pVDZ
mem_static = 1024
mem_total = 30000
adc_davidson_maxiter = 900
adc_davidson_conv = 6
adc_print = 3
adc_prop_es = true
adc_prop_es2es = true
adc_prop_tpa = true
molden_format = True
state_analysis = true
print_orbitals = 15
gen_scfman = false
fde_export_density = true
fde_details = 3
$end

$molecule
0 1
H -0.0348278765 -0.23920978269999998 0.0636489606
C -1.0765972949 -0.5242748755 -0.0023551776
H -1.313264467 -1.5767591607 -0.0757276926
C -2.043634118 0.3926884087 0.0061254933
H -1.8137616575 1.4459188338 0.0804456828
H -3.085977293 0.114931858 -0.0593381042                     
$end
--------------------------------------------------------------
 ----------------------------------------------------------------
             Standard Nuclear Orientation (Angstroms)
    I     Atom           X                Y                Z
 ----------------------------------------------------------------
    1      H      -0.0348278765    -0.2392097827     0.0636489606
    2      C      -1.0765972949    -0.5242748755    -0.0023551776
    3      H      -1.3132644670    -1.5767591607    -0.0757276926
    4      C      -2.0436341180     0.3926884087     0.0061254933
    5      H      -1.8137616575     1.4459188338     0.0804456828
    6      H      -3.0859772930     0.1149318580    -0.0593381042
 ----------------------------------------------------------------
 Nuclear Repulsion Energy =          33.42096108 hartrees
 There are        8 alpha and        8 beta electrons
 Requested basis set is cc-pVDZ
 There are 24 shells and 48 basis functions
 Total memory of 30000 MB is distributed as follows: 
   MEM_STATIC is set to 1024 MB
   QALLOC/CCMAN JOB total memory use is  28976 MB
 Warning: actual memory use might exceed 30000 MB

 Total QAlloc Memory Limit  30000 MB
 Mega-Array Size      1001 MB
 MEM_STATIC part      1024 MB

                       Distance Matrix (Angstroms)
             H (  1)   C (  2)   H (  3)   C (  4)   H (  5)
   C (  2)  1.082082
   H (  3)  1.855496  1.081258
   C (  4)  2.106634  1.332687  2.102109
   H (  5)  2.450418  2.105215  3.067812  1.080583
   H (  6)  3.074094  2.109370  2.450428  1.080700  1.846510

 A cutoff of  1.0D-11 yielded    300 shell pairs
 There are      1220 function pairs (      1329 Cartesian)
 Smallest overlap matrix eigenvalue = 4.80E-03

 Scale SEOQF with 1.000000e-01/1.000000e-01/1.000000e+00

 Standard Electronic Orientation quadrupole field applied
 Nucleus-field energy     =     0.0000000022 hartrees
 Guess from superposition of atomic densities
 Warning:  Energy on first SCF cycle will be non-variational
 SAD guess density has 16.000000 electrons
 A restricted Hartree-Fock SCF calculation will be
 performed using Pulay DIIS extrapolation
 SCF converges when DIIS error is below 1.0E-08
 using 8 threads for integral computing
 -------------------------------------------------------
 OpenMP Integral computing Module                
 Release: version 1.0, May 2013, Q-Chem Inc. Pittsburgh 
 -------------------------------------------------------
 ---------------------------------------
  Cycle       Energy         DIIS Error
 ---------------------------------------
    1     -78.4380677764      1.01E-01
    2     -78.0176812901      7.21E-03
    3     -78.0383120843      1.84E-03
    4     -78.0397951324      5.73E-04
    5     -78.0399169027      5.80E-05
    6     -78.0399187787      9.64E-06
    7     -78.0399188403      2.84E-06
    8     -78.0399188440      1.12E-06
    9     -78.0399188445      9.29E-08
   10     -78.0399188445      1.58E-08
   11     -78.0399188445      4.79E-09 Convergence criterion met
 ---------------------------------------
 SCF time:  CPU 2.51 s  wall 2.12 s
 SCF   energy in the final basis set = -78.03991884
 Total energy in the final basis set = -78.03991884
Exporting Density Matrix to file 'Densmat_SCF.txt'.
Export successful
================================================================================
|                                                                              |
|                                 A D C  M A N                                 |
|                                                                              |
 ------------------------------------------------------------------------------ 
|                                                                              |
| Components:                                                                  |
|                                                                              |
| - libvmm - 1.3-trunk                                                         |
|   Authors:                                                                   |
|   Evgeny Epifanovsky, Ilya Kaliman                                           |
|                                                                              |
| - libtensor - 2.5-trunk                                                      |
|   Authors:                                                                   |
|   Evgeny Epifanovsky, Michael Wormit, Dmitry Zuev, Sam Manzer,               |
|   Ilya Kaliman                                                               |
|                                                                              |
| - libwfa - 1.1-trunk                                                         |
|   Authors:                                                                   |
|   Felix Plasser, Stefanie Mewes (Baeppler), Benjamin Thomitzni,              |
|   Michael Wormit, Feng Chen, Anna I. Krylov, Pavel Pokhilko                  |
|                                                                              |
| - libadc - 1.1-trunk                                                         |
|   Authors:                                                                   |
|   Michael Wormit, Adrian L. Dempwolff, Philipp H. P. Harbach,                |
|   Caroline Krauter, Dirk Rehn, Matthias Schneider, Jan Wenzel                |
|                                                                              |
| - adcman - 2.6-trunk                                                         |
|   Authors:                                                                   |
|   Michael Wormit, Adrian L. Dempwolff, Philipp H. P. Harbach,                |
|   Caroline Krauter, Daniel Lefrancois, Jan-Michael Mewes, Dirk Rehn,         |
|   Matthias Schneider, Jan Wenzel, Andreas Dreuw                              |
|                                                                              |
| Authors of earlier versions of ADCMAN:                                       |
| Andreas Dreuw, Jan Hendrik Starcke, Dirk Rehn, Michael Wormit                |
|                                                                              |
================================================================================

 Created directory /scratch/fum/qchem219764/plots
  Import QC data ...  CPU 0.00 s  wall 0.00 s

 Alpha MOs, Restricted
 -- Occupied --                  
-11.235 -11.233  -1.032  -0.789  -0.641  -0.582  -0.505  -0.374
  1 A     2 A     3 A     4 A     5 A     6 A     7 A     8 A                  
 -- Virtual --                   
  0.168   0.204   0.233   0.239   0.303   0.462   0.577   0.616
  9 A    10 A    11 A    12 A    13 A    14 A    15 A    16 A                  
  0.689   0.709   0.784   0.808   0.862   0.936   0.972   1.009
 17 A    18 A    19 A    20 A    21 A    22 A    23 A    24 A                  
  1.130   1.235   1.256   1.266   1.293   1.601   1.724   1.750
 25 A    26 A    27 A    28 A    29 A    30 A    31 A    32 A                  
  1.819   1.860   1.867   1.922   1.977   1.977   2.220   2.258
 33 A    34 A    35 A    36 A    37 A    38 A    39 A    40 A                  
  2.376   2.454   2.504   2.631   2.721   2.821   3.141   3.397
 41 A    42 A    43 A    44 A    45 A    46 A    47 A    48 A                  

 Beta MOs, Restricted
 -- Occupied --                  
-11.235 -11.233  -1.032  -0.789  -0.641  -0.582  -0.505  -0.374
  1 A     2 A     3 A     4 A     5 A     6 A     7 A     8 A                  
 -- Virtual --                   
  0.168   0.204   0.233   0.239   0.303   0.462   0.577   0.616
  9 A    10 A    11 A    12 A    13 A    14 A    15 A    16 A                  
  0.689   0.709   0.784   0.808   0.862   0.936   0.972   1.009
 17 A    18 A    19 A    20 A    21 A    22 A    23 A    24 A                  
  1.130   1.235   1.256   1.266   1.293   1.601   1.724   1.750
 25 A    26 A    27 A    28 A    29 A    30 A    31 A    32 A                  
  1.819   1.860   1.867   1.922   1.977   1.977   2.220   2.258
 33 A    34 A    35 A    36 A    37 A    38 A    39 A    40 A                  
  2.376   2.454   2.504   2.631   2.721   2.821   3.141   3.397
 41 A    42 A    43 A    44 A    45 A    46 A    47 A    48 A                  
  Import AO data ...  CPU 0.00 s  wall 0.01 s
  Using point group: C1
  Irreducible representations in point group: A
  Molecular orbitals: 
  Occupied MOs:
  Block   0:   1 (  A) A   2 (  A) A   3 (  A) A   4 (  A) A   5 (  A) A
                  -11.24      -11.23      -1.032     -0.7895     -0.6413
               6 (  A) A   7 (  A) A   8 (  A) A
                 -0.5816     -0.5047      -0.374
  Block   1:   1 (  A) B   2 (  A) B   3 (  A) B   4 (  A) B   5 (  A) B
                  -11.24      -11.23      -1.032     -0.7895     -0.6413
               6 (  A) B   7 (  A) B   8 (  A) B
                 -0.5816     -0.5047      -0.374
  Virtual MOs:
  Block   0:   9 (  A) A  10 (  A) A  11 (  A) A  12 (  A) A  13 (  A) A
                  0.1684      0.2036      0.2329      0.2395      0.3032
              14 (  A) A  15 (  A) A  16 (  A) A  17 (  A) A  18 (  A) A
                  0.4618      0.5773      0.6157      0.6892      0.7085
              19 (  A) A  20 (  A) A  21 (  A) A  22 (  A) A
                  0.7845       0.808      0.8622      0.9358
  Block   1:  23 (  A) A  24 (  A) A  25 (  A) A  26 (  A) A  27 (  A) A
                  0.9723       1.009        1.13       1.235       1.256
              28 (  A) A  29 (  A) A  30 (  A) A  31 (  A) A  32 (  A) A
                   1.266       1.293       1.601       1.724        1.75
              33 (  A) A  34 (  A) A  35 (  A) A  36 (  A) A
                   1.819        1.86       1.867       1.922
  Block   2:  37 (  A) A  38 (  A) A  39 (  A) A  40 (  A) A  41 (  A) A
                   1.977       1.977        2.22       2.258       2.376
              42 (  A) A  43 (  A) A  44 (  A) A  45 (  A) A  46 (  A) A
                   2.454       2.504       2.631       2.721       2.821
              47 (  A) A  48 (  A) A
                   3.141       3.397
  Block   3:   9 (  A) B  10 (  A) B  11 (  A) B  12 (  A) B  13 (  A) B
                  0.1684      0.2036      0.2329      0.2395      0.3032
              14 (  A) B  15 (  A) B  16 (  A) B  17 (  A) B  18 (  A) B
                  0.4618      0.5773      0.6157      0.6892      0.7085
              19 (  A) B  20 (  A) B  21 (  A) B  22 (  A) B
                  0.7845       0.808      0.8622      0.9358
  Block   4:  23 (  A) B  24 (  A) B  25 (  A) B  26 (  A) B  27 (  A) B
                  0.9723       1.009        1.13       1.235       1.256
              28 (  A) B  29 (  A) B  30 (  A) B  31 (  A) B  32 (  A) B
                   1.266       1.293       1.601       1.724        1.75
              33 (  A) B  34 (  A) B  35 (  A) B  36 (  A) B
                   1.819        1.86       1.867       1.922
  Block   5:  37 (  A) B  38 (  A) B  39 (  A) B  40 (  A) B  41 (  A) B
                   1.977       1.977        2.22       2.258       2.376
              42 (  A) B  43 (  A) B  44 (  A) B  45 (  A) B  46 (  A) B
                   2.454       2.504       2.631       2.721       2.821
              47 (  A) B  48 (  A) B
                   3.141       3.397
  Import MO data ...  CPU 0.40 s  wall 0.19 s
  Import HF data ...  CPU 0.89 s  wall 0.33 s
  Import 2e integrals ...  CPU 2.72 s  wall 0.47 s

--------------------------------------------------------------------------------
                                   HF Summary                                   
--------------------------------------------------------------------------------
  Energy:                                                  -78.0399188445 a.u.
  Dip. moment [a.u.]:                  [  -0.001252,    0.001034,    0.000376]
  Total dipole [Debye]:                                               0.004238
  <r^2> [a.u.]:                        [ 175.322317,   34.907755,   11.627367]
  Total <r^2> [a.u.]:                                               221.857439
--------------------------------------------------------------------------------
  HF properties ...  CPU 0.01 s  wall 0.02 s
  MP(1) calculation ...  CPU 0.01 s  wall 0.01 s
  N^6 prerequesite intermediates ...  CPU 0.45 s  wall 0.10 s
  Difference density matrix of state mp2_gs printed to ASCII file 'State_mp2_gs_Difference.txt'
Exporting MP density matrix to file 'Densmat_MP.txt'.
Export successful
  Total density matrix of state mp2_gs printed to ASCII file 'State_mp2_gs_Total.txt'
Exporting MP density matrix to file 'Densmat_MP.txt'.
Export successful

--------------------------------------------------------------------------------
                                 MP(2) Summary                                  
--------------------------------------------------------------------------------
  MP energy contribution:                                   -0.2797264905 a.u.
  Total energy:                                            -78.3196453350 a.u.
  Dip. moment [a.u.]:                  [  -0.001144,    0.000963,    0.000372]
  Total dipole [Debye]:                                               0.003918
  <r^2> [a.u.]:                        [ 175.369257,   34.948567,   11.459105]
  Total <r^2> [a.u.]:                                               221.776929

  Density matrix analysis:
  ------------------------
  NOs
    Occupation of frontier NOs:
       0.0453   1.9383
    Number of electrons: 16.000000
    Number of unpaired electrons: n_u =  0.40351, n_u,nl =  0.04509
    NO participation ratio (PR_NO): 13.858750
  
  
  Mulliken Population Analysis
  Atom      Charge (e)              h+              e-           Del q
  --------------------------------------------------------------------
   1 H        0.051276        0.014002       -0.011208        0.002793
   2 C       -0.101052        0.093370       -0.098861       -0.005491
   3 H        0.050749        0.014043       -0.011200        0.002843
   4 C       -0.101513        0.092928       -0.098913       -0.005985
   5 H        0.050079        0.014125       -0.011184        0.002940
   6 H        0.050461        0.014090       -0.011192        0.002899
  --------------------------------------------------------------------
  Sum:       -0.000000        0.242558       -0.242558        0.000000
  
  Multipole moment analysis of the density matrix
    Molecular charge:                      -0.000000
    Number of electrons:                   16.000000
      Center of electronic charge [Ang]: [ -1.560538,  -0.065322,   0.001966]
    Total nuclear charge:                  16.000000
      Center of nuclear charge [Ang]:    [ -1.560576,  -0.065290,   0.001978]
    Dipole moment [D]:                     0.003918
      Cartesian components [D]:          [ -0.002909,   0.002448,   0.000945]
    RMS size of the density [Ang]:         1.200808
      Cartesian components [Ang]:        [  0.796238,   0.779356,   0.447829]
  
  Exciton analysis of the difference density matrix
    <r_h> [Ang]:                  [ -1.560093,  -0.065659,   0.001907]
    <r_e> [Ang]:                  [ -1.560329,  -0.065504,   0.001916]
    |<r_e - r_h>| [Ang]:            0.000282
    Hole size [Ang]:                1.393740
      Cartesian components [Ang]: [  0.846874,   0.833969,   0.727883]
    Electron size [Ang]:            1.359724
      Cartesian components [Ang]: [  0.877868,   0.861766,   0.579274]
--------------------------------------------------------------------------------
  MP(2) calculation ...  CPU 0.22 s  wall 0.22 s
  Start ADC(2)-s ...  CPU 0.01 s  wall 0.00 s
  ADC(2) intermediates ...  CPU 0.02 s  wall 0.01 s
  Starting Davidson for singlet states of irrep A ... 
--------------------------------------------------------------------------------
   It NVec Conv  Avg. Norm  Max. Norm  Conv. states           Remark
--------------------------------------------------------------------------------
        10    0  1.330e-01  4.685e-01  0.4118 n n n n n n n n Guess.
    1   20    0  2.300e-02  1.108e-01  0.3263 n n n n n n n n 
    2   30    0  5.822e-03  2.490e-02  0.3215 n n n n n n n n 
    3   40    0  1.905e-03  1.221e-02  0.3211 n n n n n n n n 
    4   50    0  6.068e-04  4.421e-03  0.3211 n n n n n n n n 
    5   20    0  2.749e-04  2.025e-03  0.3211 n n n n n n n n Subspace collapsed.
    6   30    0  1.585e-04  1.357e-03  0.3211 n n n n n n n n 
    7   40    0  9.497e-05  7.308e-04  0.3211 n n n n n n n n 
    8   50    0  8.639e-05  7.982e-04  0.3211 n n n n n n n n 
    9   20    2  5.276e-05  4.975e-04  0.3211 n y n y n n n n Subspace collapsed.
   10   30    4  6.046e-05  5.823e-04  0.3211 n y y y y n n n 
   11   40    5  6.277e-05  6.237e-04  0.3211 n y y y y y n n 
   12   50    6  5.661e-05  5.652e-04  0.3211 y y y y y y n n 
   13   20    6  2.659e-05  2.654e-04  0.3211 y y y y y y n n Subspace collapsed.
   14   30    6  1.966e-05  1.961e-04  0.3211 y y y y y y n n 
   15   40    6  9.267e-06  9.249e-05  0.3211 y y y y y y n n 
   16   50    6  1.399e-05  1.399e-04  0.3211 y y y y y y n n 
   17   20    7  6.579e-06  6.574e-05  0.3211 y y y y y y n y Subspace collapsed.
   18   30    7  1.068e-05  1.067e-04  0.3211 y y y y y y n y 
   19   40    8  1.108e-05  1.108e-04  0.3211 y y y y y y y y 
   20   50    9  1.022e-05  1.022e-04  0.3211 y y y y y y y y 
   21   20    9  3.975e-06  3.975e-05  0.3211 y y y y y y y y Subspace collapsed.
   22   30    9  2.834e-06  2.833e-05  0.3211 y y y y y y y y 
   23   31    9  2.822e-06  2.821e-05  0.3211 y y y y y y y y 
   24   32    9  2.700e-06  2.700e-05  0.3211 y y y y y y y y 
   25   33    9  2.703e-06  2.703e-05  0.3211 y y y y y y y y 
   26   34    9  2.714e-06  2.714e-05  0.3211 y y y y y y y y 
   27   34    9  2.714e-06  2.714e-05  0.3211 y y y y y y y y 
   28   44    9  1.737e-06  1.737e-05  0.3211 y y y y y y y y 
   29   44    9  1.737e-06  1.737e-05  0.3211 y y y y y y y y 
   30   50    9  1.820e-06  1.819e-05  0.3211 y y y y y y y y 
   31   16    9  1.469e-06  1.469e-05  0.3211 y y y y y y y y Subspace collapsed.
   32   22    9  1.684e-06  1.683e-05  0.3211 y y y y y y y y 
   33   27    9  2.071e-06  2.071e-05  0.3211 y y y y y y y y 
   34   31    9  1.528e-06  1.528e-05  0.3211 y y y y y y y y 
   35   35    9  1.051e-06  1.051e-05  0.3211 y y y y y y y y 
   36   39    9  5.429e-07  5.429e-06  0.3211 y y y y y y y y 
   37   43    9  3.662e-07  3.662e-06  0.3211 y y y y y y y y 
   38   47    9  1.698e-07  1.698e-06  0.3211 y y y y y y y y 
   39   50   10  7.619e-08  7.619e-07  0.3211 y y y y y y y y Converged.
--------------------------------------------------------------------------------
  Davidson Summary: 
 ------------------------------------------------------------
  State  0: excitation energy =   0.3211 a.u.   (converged)
  State  1: excitation energy =   0.3328 a.u.   (converged)
  State  2: excitation energy =   0.3369 a.u.   (converged)
  State  3: excitation energy =   0.3613 a.u.   (converged)
  State  4: excitation energy =   0.3752 a.u.   (converged)
  State  5: excitation energy =   0.3871 a.u.   (converged)
  State  6: excitation energy =   0.4246 a.u.   (converged)
  State  7: excitation energy =   0.4471 a.u.   (converged)
  State  8: excitation energy =   0.4564 a.u.   (converged)
  State  9: excitation energy =   0.4647 a.u.   (converged)
 ------------------------------------------------------------

  Singlet states of irrep A ...  CPU 146.36 s  wall 42.94 s
  TDMs ...  CPU 1.06 s  wall 0.37 s
  SDMs ...  CPU 4.70 s  wall 1.18 s
  Starting TPA DIIS iterations ... 
------------------------------------ 
   It     Res. Norm  Remark
------------------------------------
                       Guess.
    1     4.404e+00  
    2     5.839e+00  
    3     1.078e+00  
    4     2.570e-01  
    5     6.577e-02  
    6     2.677e-02  
    7     8.241e-03  
    8     1.443e-03  
    9     5.347e-04  
   10     9.011e-05  
   11     2.824e-05  
   12     4.389e-06  
   13     1.419e-06  
   14     4.444e-07  Converged.
   ... Converged in 14 steps (norm: 4.44403e-07)
------------------------------------
  Starting TPA DIIS iterations ... 
------------------------------------ 
   It     Res. Norm  Remark
------------------------------------
                       Guess.
    1     4.184e+00  
    2     5.540e+00  
    3     1.029e+00  
    4     2.554e-01  
    5     6.537e-02  
    6     2.670e-02  
    7     8.108e-03  
    8     1.453e-03  
    9     5.370e-04  
   10     8.976e-05  
   11     2.834e-05  
   12     4.342e-06  
   13     1.425e-06  
   14     4.384e-07  Converged.
   ... Converged in 14 steps (norm: 4.38364e-07)
------------------------------------
  Starting TPA DIIS iterations ... 
------------------------------------ 
   It     Res. Norm  Remark
------------------------------------
                       Guess.
    1     6.885e-01  
    2     4.832e-01  
    3     1.704e-01  
    4     5.968e-02  
    5     1.839e-02  
    6     6.657e-03  
    7     1.041e-03  
    8     4.487e-04  
    9     1.238e-04  
   10     2.949e-05  
   11     5.042e-06  
   12     1.532e-06  
   13     7.795e-07  Converged.
   ... Converged in 13 steps (norm: 7.79489e-07)
------------------------------------
  Starting TPA DIIS iterations ... 
------------------------------------ 
   It     Res. Norm  Remark
------------------------------------
                       Guess.
    1     4.693e+00  
    2     6.358e+00  
    3     1.159e+00  
    4     2.858e-01  
    5     7.416e-02  
    6     3.044e-02  
    7     9.355e-03  
    8     1.635e-03  
    9     6.106e-04  
   10     1.035e-04  
   11     3.276e-05  
   12     5.137e-06  
   13     1.674e-06  
   14     5.267e-07  Converged.
   ... Converged in 14 steps (norm: 5.26715e-07)
------------------------------------
  Starting TPA DIIS iterations ... 
------------------------------------ 
   It     Res. Norm  Remark
------------------------------------
                       Guess.
    1     4.458e+00  
    2     6.032e+00  
    3     1.106e+00  
    4     2.838e-01  
    5     7.372e-02  
    6     3.038e-02  
    7     9.206e-03  
    8     1.647e-03  
    9     6.133e-04  
   10     1.031e-04  
   11     3.285e-05  
   12     5.079e-06  
   13     1.680e-06  
   14     5.198e-07  Converged.
   ... Converged in 14 steps (norm: 5.19849e-07)
------------------------------------
  Starting TPA DIIS iterations ... 
------------------------------------ 
   It     Res. Norm  Remark
------------------------------------
                       Guess.
    1     7.007e-01  
    2     5.007e-01  
    3     1.803e-01  
    4     6.757e-02  
    5     1.982e-02  
    6     7.279e-03  
    7     1.176e-03  
    8     5.293e-04  
    9     1.497e-04  
   10     3.383e-05  
   11     5.696e-06  
   12     1.805e-06  
   13     9.758e-07  Converged.
   ... Converged in 13 steps (norm: 9.75777e-07)
------------------------------------
  Starting TPA DIIS iterations ... 
------------------------------------ 
   It     Res. Norm  Remark
------------------------------------
                       Guess.
    1     4.799e+00  
    2     6.552e+00  
    3     1.189e+00  
    4     2.967e-01  
    5     7.733e-02  
    6     3.184e-02  
    7     9.776e-03  
    8     1.708e-03  
    9     6.394e-04  
   10     1.085e-04  
   11     3.449e-05  
   12     5.424e-06  
   13     1.773e-06  
   14     5.588e-07  Converged.
   ... Converged in 14 steps (norm: 5.5877e-07)
------------------------------------
  Starting TPA DIIS iterations ... 
------------------------------------ 
   It     Res. Norm  Remark
------------------------------------
                       Guess.
    1     4.559e+00  
    2     6.215e+00  
    3     1.135e+00  
    4     2.945e-01  
    5     7.688e-02  
    6     3.178e-02  
    7     9.621e-03  
    8     1.721e-03  
    9     6.422e-04  
   10     1.081e-04  
   11     3.458e-05  
   12     5.362e-06  
   13     1.778e-06  
   14     5.517e-07  Converged.
   ... Converged in 14 steps (norm: 5.51651e-07)
------------------------------------
  Starting TPA DIIS iterations ... 
------------------------------------ 
   It     Res. Norm  Remark
------------------------------------
                       Guess.
    1     7.049e-01  
    2     5.070e-01  
    3     1.839e-01  
    4     7.060e-02  
    5     2.033e-02  
    6     7.514e-03  
    7     1.228e-03  
    8     5.607e-04  
    9     1.598e-04  
   10     3.518e-05  
   11     5.937e-06  
   12     1.912e-06  
   13     1.056e-06  
   14     3.593e-07  Converged.
   ... Converged in 14 steps (norm: 3.59297e-07)
------------------------------------
  Starting TPA DIIS iterations ... 
------------------------------------ 
   It     Res. Norm  Remark
------------------------------------
                       Guess.
    1     5.541e+00  
    2     7.935e+00  
    3     1.397e+00  
    4     3.771e-01  
    5     1.007e-01  
    6     4.224e-02  
    7     1.289e-02  
    8     2.242e-03  
    9     8.541e-04  
   10     1.465e-04  
   11     4.769e-05  
   12     7.620e-06  
   13     2.545e-06  
   14     8.118e-07  Converged.
   ... Converged in 14 steps (norm: 8.11771e-07)
------------------------------------
  Starting TPA DIIS iterations ... 
------------------------------------ 
   It     Res. Norm  Remark
------------------------------------
                       Guess.
    1     5.261e+00  
    2     7.526e+00  
    3     1.333e+00  
    4     3.736e-01  
    5     1.002e-01  
    6     4.223e-02  
    7     1.269e-02  
    8     2.263e-03  
    9     8.579e-04  
   10     1.460e-04  
   11     4.772e-05  
   12     7.526e-06  
   13     2.545e-06  
   14     8.041e-07  Converged.
   ... Converged in 14 steps (norm: 8.04084e-07)
------------------------------------
  Starting TPA DIIS iterations ... 
------------------------------------ 
   It     Res. Norm  Remark
------------------------------------
                       Guess.
    1     7.319e-01  
    2     5.485e-01  
    3     2.084e-01  
    4     9.368e-02  
    5     2.390e-02  
    6     9.257e-03  
    7     1.627e-03  
    8     7.994e-04  
    9     2.351e-04  
   10     4.098e-05  
   11     7.666e-06  
   12     2.752e-06  
   13     1.736e-06  
   14     5.361e-07  Converged.
   ... Converged in 14 steps (norm: 5.3607e-07)
------------------------------------
  Starting TPA DIIS iterations ... 
------------------------------------ 
   It     Res. Norm  Remark
------------------------------------
                       Guess.
    1     6.048e+00  
    2     8.914e+00  
    3     1.539e+00  
    4     4.362e-01  
    5     1.179e-01  
    6     4.999e-02  
    7     1.518e-02  
    8     2.634e-03  
    9     1.014e-03  
   10     1.747e-04  
   11     5.772e-05  
   12     9.293e-06  
   13     3.150e-06  
   14     1.016e-06  
   15     3.591e-07  Converged.
   ... Converged in 15 steps (norm: 3.59136e-07)
------------------------------------
  Starting TPA DIIS iterations ... 
------------------------------------ 
   It     Res. Norm  Remark
------------------------------------
                       Guess.
    1     5.742e+00  
    2     8.454e+00  
    3     1.467e+00  
    4     4.316e-01  
    5     1.173e-01  
    6     5.002e-02  
    7     1.495e-02  
    8     2.660e-03  
    9     1.018e-03  
   10     1.741e-04  
   11     5.769e-05  
   12     9.177e-06  
   13     3.143e-06  
   14     1.010e-06  
   15     3.214e-07  Converged.
   ... Converged in 15 steps (norm: 3.21404e-07)
------------------------------------
  Starting TPA DIIS iterations ... 
------------------------------------ 
   It     Res. Norm  Remark
------------------------------------
                       Guess.
    1     7.482e-01  
    2     5.749e-01  
    3     2.246e-01  
    4     1.113e-01  
    5     2.637e-02  
    6     1.055e-02  
    7     1.938e-03  
    8     9.709e-04  
    9     2.883e-04  
   10     4.231e-05  
   11     8.919e-06  
   12     3.413e-06  
   13     2.321e-06  
   14     6.742e-07  Converged.
   ... Converged in 14 steps (norm: 6.74199e-07)
------------------------------------
  Starting TPA DIIS iterations ... 
------------------------------------ 
   It     Res. Norm  Remark
------------------------------------
                       Guess.
    1     6.548e+00  
    2     9.901e+00  
    3     1.677e+00  
    4     4.974e-01  
    5     1.357e-01  
    6     5.807e-02  
    7     1.755e-02  
    8     3.038e-03  
    9     1.180e-03  
   10     2.042e-04  
   11     6.828e-05  
   12     1.106e-05  
   13     3.800e-06  
   14     1.245e-06  
   15     4.487e-07  Converged.
   ... Converged in 15 steps (norm: 4.48669e-07)
------------------------------------
  Starting TPA DIIS iterations ... 
------------------------------------ 
   It     Res. Norm  Remark
------------------------------------
                       Guess.
    1     6.215e+00  
    2     9.391e+00  
    3     1.598e+00  
    4     4.916e-01  
    5     1.351e-01  
    6     5.815e-02  
    7     1.729e-02  
    8     3.070e-03  
    9     1.185e-03  
   10     2.034e-04  
   11     6.816e-05  
   12     1.092e-05  
   13     3.783e-06  
   14     1.242e-06  
   15     3.959e-07  Converged.
   ... Converged in 15 steps (norm: 3.95926e-07)
------------------------------------
  Starting TPA DIIS iterations ... 
------------------------------------ 
   It     Res. Norm  Remark
------------------------------------
                       Guess.
    1     7.628e-01  
    2     5.997e-01  
    3     2.401e-01  
    4     1.299e-01  
    5     2.886e-02  
    6     1.189e-02  
    7     2.271e-03  
    8     1.135e-03  
    9     3.397e-04  
   10     4.289e-05  
   11     1.023e-05  
   12     4.124e-06  
   13     2.983e-06  
   14     8.220e-07  Converged.
   ... Converged in 14 steps (norm: 8.22008e-07)
------------------------------------
  Starting TPA DIIS iterations ... 
------------------------------------ 
   It     Res. Norm  Remark
------------------------------------
                       Guess.
    1     8.652e+00  
    2     1.431e+01  
    3     2.250e+00  
    4     7.827e-01  
    5     2.188e-01  
    6     9.657e-02  
    7     2.862e-02  
    8     4.914e-03  
    9     1.970e-03  
   10     3.434e-04  
   11     1.182e-04  
   12     1.957e-05  
   13     6.980e-06  
   14     2.558e-06  
   15     9.510e-07  Converged.
   ... Converged in 15 steps (norm: 9.50982e-07)
------------------------------------
  Starting TPA DIIS iterations ... 
------------------------------------ 
   It     Res. Norm  Remark
------------------------------------
                       Guess.
    1     8.208e+00  
    2     1.357e+01  
    3     2.143e+00  
    4     7.705e-01  
    5     2.179e-01  
    6     9.695e-02  
    7     2.821e-02  
    8     4.973e-03  
    9     1.977e-03  
   10     3.421e-04  
   11     1.176e-04  
   12     1.939e-05  
   13     6.865e-06  
   14     2.603e-06  
   15     8.100e-07  Converged.
   ... Converged in 15 steps (norm: 8.10049e-07)
------------------------------------
  Starting TPA DIIS iterations ... 
------------------------------------ 
   It     Res. Norm  Remark
------------------------------------
                       Guess.
    1     8.129e-01  
    2     6.933e-01  
    3     3.016e-01  
    4     2.182e-01  
    5     4.019e-02  
    6     1.813e-02  
    7     3.941e-03  
    8     1.661e-03  
    9     5.385e-04  
   10     5.177e-05  
   11     1.664e-05  
   12     7.611e-06  
   13     6.571e-06  
   14     1.549e-06  
   15     5.236e-07  Converged.
   ... Converged in 15 steps (norm: 5.23607e-07)
------------------------------------
  Starting TPA DIIS iterations ... 
------------------------------------ 
   It     Res. Norm  Remark
------------------------------------
                       Guess.
    1     1.049e+01  
    2     1.843e+01  
    3     2.737e+00  
    4     1.060e+00  
    5     3.002e-01  
    6     1.352e-01  
    7     3.946e-02  
    8     6.739e-03  
    9     2.758e-03  
   10     4.812e-04  
   11     1.659e-04  
   12     2.824e-05  
   13     1.015e-05  
   14     4.227e-06  
   15     1.584e-06  
   16     9.212e-07  Converged.
   ... Converged in 16 steps (norm: 9.21151e-07)
------------------------------------
  Starting TPA DIIS iterations ... 
------------------------------------ 
   It     Res. Norm  Remark
------------------------------------
                       Guess.
    1     9.947e+00  
    2     1.748e+01  
    3     2.605e+00  
    4     1.040e+00  
    5     2.991e-01  
    6     1.359e-01  
    7     3.891e-02  
    8     6.825e-03  
    9     2.766e-03  
   10     4.792e-04  
   11     1.648e-04  
   12     2.816e-05  
   13     9.871e-06  
   14     4.374e-06  
   15     1.379e-06  
   16     1.088e-06  
   17     4.002e-07  Converged.
   ... Converged in 17 steps (norm: 4.00201e-07)
------------------------------------
  Starting TPA DIIS iterations ... 
------------------------------------ 
   It     Res. Norm  Remark
------------------------------------
                       Guess.
    1     8.467e-01  
    2     7.647e-01  
    3     3.511e-01  
    4     3.006e-01  
    5     5.098e-02  
    6     2.390e-02  
    7     5.644e-03  
    8     1.881e-03  
    9     6.924e-04  
   10     6.993e-05  
   11     2.326e-05  
   12     1.110e-05  
   13     1.056e-05  
   14     2.289e-06  
   15     7.831e-07  Converged.
   ... Converged in 15 steps (norm: 7.8311e-07)
------------------------------------
  Starting TPA DIIS iterations ... 
------------------------------------ 
   It     Res. Norm  Remark
------------------------------------
                       Guess.
    1     1.142e+01  
    2     2.063e+01  
    3     2.981e+00  
    4     1.209e+00  
    5     3.445e-01  
    6     1.565e-01  
    7     4.535e-02  
    8     7.728e-03  
    9     3.190e-03  
   10     5.563e-04  
   11     1.910e-04  
   12     3.312e-05  
   13     1.192e-05  
   14     5.280e-06  
   15     2.005e-06  
   16     1.225e-06  
   17     2.588e-07  Converged.
   ... Converged in 17 steps (norm: 2.58813e-07)
------------------------------------
  Starting TPA DIIS iterations ... 
------------------------------------ 
   It     Res. Norm  Remark
------------------------------------
                       Guess.
    1     1.084e+01  
    2     1.956e+01  
    3     2.837e+00  
    4     1.185e+00  
    5     3.433e-01  
    6     1.574e-01  
    7     4.472e-02  
    8     7.828e-03  
    9     3.199e-03  
   10     5.539e-04  
   11     1.897e-04  
   12     3.316e-05  
   13     1.154e-05  
   14     5.503e-06  
   15     1.793e-06  
   16     1.471e-06  
   17     5.404e-07  Converged.
   ... Converged in 17 steps (norm: 5.40393e-07)
------------------------------------
  Starting TPA DIIS iterations ... 
------------------------------------ 
   It     Res. Norm  Remark
------------------------------------
                       Guess.
    1     8.616e-01  
    2     7.985e-01  
    3     3.752e-01  
    4     3.418e-01  
    5     5.671e-02  
    6     2.680e-02  
    7     6.566e-03  
    8     1.941e-03  
    9     7.667e-04  
   10     8.084e-05  
   11     2.696e-05  
   12     1.304e-05  
   13     1.289e-05  
   14     2.704e-06  
   15     9.551e-07  Converged.
   ... Converged in 15 steps (norm: 9.55089e-07)
------------------------------------
  Starting TPA DIIS iterations ... 
------------------------------------ 
   It     Res. Norm  Remark
------------------------------------
                       Guess.
    1     1.238e+01  
    2     2.294e+01  
    3     3.228e+00  
    4     1.365e+00  
    5     3.915e-01  
    6     1.793e-01  
    7     5.161e-02  
    8     8.776e-03  
    9     3.653e-03  
   10     6.361e-04  
   11     2.172e-04  
   12     3.847e-05  
   13     1.391e-05  
   14     6.501e-06  
   15     2.521e-06  
   16     1.594e-06  
   17     3.321e-07  Converged.
   ... Converged in 17 steps (norm: 3.32061e-07)
------------------------------------
  Starting TPA DIIS iterations ... 
------------------------------------ 
   It     Res. Norm  Remark
------------------------------------
                       Guess.
    1     1.175e+01  
    2     2.175e+01  
    3     3.071e+00  
    4     1.337e+00  
    5     3.902e-01  
    6     1.804e-01  
    7     5.090e-02  
    8     8.892e-03  
    9     3.662e-03  
   10     6.333e-04  
   11     2.159e-04  
   12     3.869e-05  
   13     1.338e-05  
   14     6.819e-06  
   15     2.327e-06  
   16     1.942e-06  
   17     7.078e-07  Converged.
   ... Converged in 17 steps (norm: 7.07847e-07)
------------------------------------
  Starting TPA DIIS iterations ... 
------------------------------------ 
   It     Res. Norm  Remark
------------------------------------
                       Guess.
    1     8.755e-01  
    2     8.317e-01  
    3     3.991e-01  
    4     3.821e-01  
    5     6.270e-02  
    6     2.968e-02  
    7     7.533e-03  
    8     1.984e-03  
    9     8.406e-04  
   10     9.242e-05  
   11     3.097e-05  
   12     1.517e-05  
   13     1.552e-05  
   14     3.162e-06  
   15     1.179e-06  
   16     7.335e-07  Converged.
   ... Converged in 16 steps (norm: 7.33465e-07)
------------------------------------
  Two-photon absorbption ...  CPU 128.96 s  wall 30.45 s
  Transition density matrix of state singlet_A_1 printed to ASCII file 'State_singlet_A_1_Transition.txt'
  Transition density matrix of state singlet_A_2 printed to ASCII file 'State_singlet_A_2_Transition.txt'
  Transition density matrix of state singlet_A_3 printed to ASCII file 'State_singlet_A_3_Transition.txt'
  Transition density matrix of state singlet_A_4 printed to ASCII file 'State_singlet_A_4_Transition.txt'
  Transition density matrix of state singlet_A_5 printed to ASCII file 'State_singlet_A_5_Transition.txt'
  Transition density matrix of state singlet_A_6 printed to ASCII file 'State_singlet_A_6_Transition.txt'
  Transition density matrix of state singlet_A_7 printed to ASCII file 'State_singlet_A_7_Transition.txt'
  Transition density matrix of state singlet_A_8 printed to ASCII file 'State_singlet_A_8_Transition.txt'
  Transition density matrix of state singlet_A_9 printed to ASCII file 'State_singlet_A_9_Transition.txt'
  Transition density matrix of state singlet_A_10 printed to ASCII file 'State_singlet_A_10_Transition.txt'
  Transition properties ...  CPU 0.14 s  wall 0.32 s
  Difference density matrix of state singlet_A_1 printed to ASCII file 'State_singlet_A_1_Difference.txt'
  Total density matrix of state singlet_A_1 printed to ASCII file 'State_singlet_A_1_Total.txt'
  Difference density matrix of state singlet_A_2 printed to ASCII file 'State_singlet_A_2_Difference.txt'
  Total density matrix of state singlet_A_2 printed to ASCII file 'State_singlet_A_2_Total.txt'
  Difference density matrix of state singlet_A_3 printed to ASCII file 'State_singlet_A_3_Difference.txt'
  Total density matrix of state singlet_A_3 printed to ASCII file 'State_singlet_A_3_Total.txt'
  Difference density matrix of state singlet_A_4 printed to ASCII file 'State_singlet_A_4_Difference.txt'
  Total density matrix of state singlet_A_4 printed to ASCII file 'State_singlet_A_4_Total.txt'
  Difference density matrix of state singlet_A_5 printed to ASCII file 'State_singlet_A_5_Difference.txt'
  Total density matrix of state singlet_A_5 printed to ASCII file 'State_singlet_A_5_Total.txt'
  Difference density matrix of state singlet_A_6 printed to ASCII file 'State_singlet_A_6_Difference.txt'
  Total density matrix of state singlet_A_6 printed to ASCII file 'State_singlet_A_6_Total.txt'
  Difference density matrix of state singlet_A_7 printed to ASCII file 'State_singlet_A_7_Difference.txt'
  Total density matrix of state singlet_A_7 printed to ASCII file 'State_singlet_A_7_Total.txt'
  Difference density matrix of state singlet_A_8 printed to ASCII file 'State_singlet_A_8_Difference.txt'
  Total density matrix of state singlet_A_8 printed to ASCII file 'State_singlet_A_8_Total.txt'
  Difference density matrix of state singlet_A_9 printed to ASCII file 'State_singlet_A_9_Difference.txt'
  Total density matrix of state singlet_A_9 printed to ASCII file 'State_singlet_A_9_Total.txt'
  Difference density matrix of state singlet_A_10 printed to ASCII file 'State_singlet_A_10_Difference.txt'
  Total density matrix of state singlet_A_10 printed to ASCII file 'State_singlet_A_10_Total.txt'
  Properties ...  CPU 0.67 s  wall 0.63 s
  ISR TDMS ...  CPU 22.17 s  wall 5.94 s
  ISR transition properties ...  CPU 0.20 s  wall 0.10 s
  Sum-over-states TPA ...  CPU 0.00 s  wall 0.00 s

--------------------------------------------------------------------------------
                   State-averaged natural transition orbitals
--------------------------------------------------------------------------------
--------------------------------------------------------------------------------
  SA-NTO decomposition ...  CPU 0.01 s  wall 0.02 s

--------------------------------------------------------------------------------
                             Excited State Summary
--------------------------------------------------------------------------------
--------------------------------------------------------------------------------

  Excited state 1 (singlet, A)                                     [converged]
  ----------------------------------------------------------------------------
  Term symbol:  2 (1) A                                     R^2 =  3.29229e-14

  Total energy:                                            -77.9985475883 a.u.
  Excitation energy:                                               8.737514 eV

  Osc. strength:                                                      0.445701
  Trans. dip. moment [a.u.]:           [  -1.046133,    0.993781,    0.009202]
  <i|r^2|0> [a.u.]:                    [  -6.167915,    0.246906,    0.000323]
  Two-photon absorption cross-section (SoS) [a.u.]:                   0.001137
  Two-photon absorption matrix (SoS) [a.u.]:
                                       |   -0.004568    0.003862    0.000680 |
                                       |    0.003862   -0.004733    0.000163 |
                                       |    0.000680    0.000163   -0.007893 |
  Two-photon absorption cross-section [a.u.]:                         0.000614
  Two-photon absorption matrix [a.u.]:
                                       |    0.004795    0.005221   -0.000632 |
                                       |    0.005221    0.004468   -0.001862 |
                                       |   -0.000632   -0.001862   -0.006702 |

  Dip. moment [a.u.]:                  [  -0.000919,    0.000766,    0.000459]
  Total dipole [Debye]:                                               0.003257
  <r^2> [a.u.]:                        [ 176.124311,   35.638960,   11.868862]
  Total <r^2> [a.u.]:                                               223.632134

  V1^2 = 0.9715, V2^2 = 0.0285

  Important amplitudes:
      occ i     occ j     vir a      vir b          v   
    -----------------------------------------------------
     8 (A) A              9 (A) A                -0.6811
     6 (A) A             14 (A) A                -0.0623
     4 (A) A             10 (A) A                 0.0608
     7 (A) A             16 (A) A                -0.0569
     5 (A) A             13 (A) A                 0.0513
     6 (A) A             23 (A) A                -0.0487
     8 (A) A             20 (A) A                -0.0350
     6 (A) A             19 (A) A                -0.0308
     3 (A) A             12 (A) A                -0.0281
     5 (A) A             22 (A) A                 0.0215
     7 (A) A             11 (A) A                -0.0211
     4 (A) A             24 (A) A                 0.0188
     3 (A) A             26 (A) A                -0.0185
     8 (A) A   8 (A) B   17 (A) A   20 (A) B      0.0184
     8 (A) A   8 (A) B    9 (A) A   28 (A) B      0.0168
     6 (A) A             26 (A) A                 0.0163
     7 (A) A             21 (A) A                -0.0149
     3 (A) A             14 (A) A                 0.0139
     6 (A) A             12 (A) A                -0.0133
     3 (A) A   4 (A) B    9 (A) A    9 (A) B     -0.0129
     3 (A) A             19 (A) A                 0.0119
     8 (A) A   8 (A) B   18 (A) A   19 (A) B     -0.0113
     7 (A) A             32 (A) A                -0.0095
     7 (A) A             36 (A) A                -0.0086
     3 (A) A             23 (A) A                 0.0081
     8 (A) A   8 (A) B   25 (A) A   29 (A) B     -0.0076
     6 (A) A             35 (A) A                -0.0071
     6 (A) A             40 (A) A                -0.0068
     3 (A) A   6 (A) B    9 (A) A   28 (A) B     -0.0065
     6 (A) A   8 (A) A   19 (A) A   28 (A) A     -0.0061
     5 (A) A   7 (A) B    9 (A) A    9 (A) B      0.0060
     5 (A) A   8 (A) B   11 (A) A   20 (A) B      0.0059
     7 (A) A   8 (A) B   13 (A) A   20 (A) B     -0.0059
     5 (A) A   8 (A) B   16 (A) A    9 (A) B      0.0059
     5 (A) A   8 (A) B   11 (A) A    9 (A) B     -0.0059
     3 (A) A   5 (A) B    9 (A) A   25 (A) B      0.0058
     3 (A) A             40 (A) A                 0.0057
     7 (A) A   8 (A) B   22 (A) A   20 (A) B     -0.0057
     6 (A) A   8 (A) A    9 (A) A   18 (A) A     -0.0057
     8 (A) A   8 (A) B   19 (A) A   30 (A) B     -0.0056
    -----------------------------------------------------

  Density matrix analysis:
  ------------------------
  NOs
    Occupation of frontier NOs:
       0.9495   1.0217
    Number of electrons: 16.000000
    Number of unpaired electrons: n_u =  2.31346, n_u,nl =  2.03266
    NO participation ratio (PR_NO):  2.864311
  
  
  Mulliken Population Analysis
  Atom      Charge (e)              h+              e-           Del q
  --------------------------------------------------------------------
   1 H        0.058967        0.020259       -0.012568        0.007691
   2 C       -0.116142        0.490939       -0.506029       -0.015090
   3 H        0.058300        0.020158       -0.012607        0.007551
   4 C       -0.117101        0.490685       -0.506274       -0.015589
   5 H        0.057733        0.020212       -0.012558        0.007654
   6 H        0.058245        0.020307       -0.012523        0.007784
  --------------------------------------------------------------------
  Sum:       -0.000000        1.062559       -1.062559        0.000000
  
  Multipole moment analysis of the density matrix
    Molecular charge:                      -0.000000
    Number of electrons:                   16.000000
      Center of electronic charge [Ang]: [ -1.560546,  -0.065315,   0.001963]
    Total nuclear charge:                  16.000000
      Center of nuclear charge [Ang]:    [ -1.560576,  -0.065290,   0.001978]
    Dipole moment [D]:                     0.003257
      Cartesian components [D]:          [ -0.002335,   0.001947,   0.001168]
    RMS size of the density [Ang]:         1.214244
      Cartesian components [Ang]:        [  0.804479,   0.787070,   0.455766]
  
  Exciton analysis of the difference density matrix
    <r_h> [Ang]:                  [ -1.560176,  -0.065696,   0.001774]
    <r_e> [Ang]:                  [ -1.560289,  -0.065598,   0.001731]
    |<r_e - r_h>| [Ang]:            0.000156
    Hole size [Ang]:                1.285432
      Cartesian components [Ang]: [  0.728492,   0.712589,   0.783488]
    Electron size [Ang]:            1.463189
      Cartesian components [Ang]: [  0.854013,   0.830507,   0.849612]

  Transition density matrix analysis:
  -----------------------------------
  
  CT numbers (Mulliken)
    omega =     0.9535
    <Phe> =    -0.1606
  
  Exciton analysis of the transition density matrix
    Trans. dipole moment [D]:             1.833795
      Cartesian components [D]:         [ -1.329502,   1.262970,   0.011694]
    <r_h> [Ang]:                        [ -1.559987,  -0.065896,   0.001808]
    <r_e> [Ang]:                        [ -1.560306,  -0.065573,   0.001703]
    |<r_e - r_h>| [Ang]:                  0.000466
    Hole size [Ang]:                      1.214160
      Cartesian components [Ang]:       [  0.649623,   0.636421,   0.804452]
    Electron size [Ang]:                  1.486023
      Cartesian components [Ang]:       [  0.864457,   0.839385,   0.869718]
    RMS electron-hole separation [Ang]:   1.936621
      Cartesian components [Ang]:       [  1.106664,   1.075094,   1.170457]
    Covariance(r_h, r_e) [Ang^2]:        -0.034027
    Correlation coefficient:             -0.018859
    Center-of-mass size [Ang]:            0.950578
      Cartesian components [Ang]:       [  0.527704,   0.515599,   0.599404]

  Decomposition into state-averaged NTOs
    H- 0 -> L+ 0:  0.6699 ( 89.8%)
    H- 2 -> L+ 5: -0.0837 (  1.4%)
                   omega =  95.4%
  ----------------------------------------------------------------------------


  Excited state 2 (singlet, A)                                     [converged]
  ----------------------------------------------------------------------------
  Term symbol:  3 (1) A                                     R^2 =  8.07689e-14

  Total energy:                                            -77.9868063307 a.u.
  Excitation energy:                                               9.057010 eV

  Osc. strength:                                                      0.000008
  Trans. dip. moment [a.u.]:           [  -0.004254,    0.004278,    0.001209]
  <i|r^2|0> [a.u.]:                    [   0.039681,    0.086647,   -0.150351]
  Two-photon absorption cross-section (SoS) [a.u.]:                   4.949655
  Two-photon absorption matrix (SoS) [a.u.]:
                                       |    0.053037    0.059014   -0.543814 |
                                       |    0.059014    0.065179   -0.555854 |
                                       |   -0.543814   -0.555854   -0.118198 |
  Two-photon absorption cross-section [a.u.]:                         0.075348
  Two-photon absorption matrix [a.u.]:
                                       |   -0.002208   -0.006963    0.062109 |
                                       |   -0.006963   -0.012438    0.072980 |
                                       |    0.062109    0.072980    0.014603 |

  Dip. moment [a.u.]:                  [  -0.011155,    0.007873,    0.000782]
  Total dipole [Debye]:                                               0.034759
  <r^2> [a.u.]:                        [ 174.470075,   33.980653,   13.173052]
  Total <r^2> [a.u.]:                                               221.623781

  V1^2 = 0.9542, V2^2 = 0.0458

  Important amplitudes:
      occ i     occ j     vir a      vir b          v   
    -----------------------------------------------------
     7 (A) A              9 (A) A                -0.6691
     8 (A) A             11 (A) A                -0.1491
     7 (A) A             20 (A) A                -0.0759
     5 (A) A   8 (A) B    9 (A) A    9 (A) B      0.0316
     8 (A) A             16 (A) A                 0.0274
     8 (A) A             21 (A) A                -0.0176
     5 (A) A             28 (A) A                 0.0151
     4 (A) A   7 (A) B    9 (A) A   19 (A) B      0.0135
     5 (A) A   7 (A) B    9 (A) A   16 (A) B     -0.0134
     7 (A) A   8 (A) B   20 (A) A   17 (A) B      0.0105
     7 (A) A   8 (A) A    9 (A) A   28 (A) A     -0.0098
     5 (A) A   8 (A) B    9 (A) A   20 (A) B      0.0096
     4 (A) A   6 (A) B    9 (A) A   16 (A) B      0.0091
     5 (A) A   6 (A) A    9 (A) A   23 (A) A     -0.0091
     5 (A) A   6 (A) A    9 (A) A   14 (A) A     -0.0089
     5 (A) A   6 (A) B    9 (A) A   19 (A) B     -0.0087
     8 (A) A   7 (A) B    9 (A) A   28 (A) B      0.0085
     4 (A) A   5 (A) A    9 (A) A   10 (A) A     -0.0085
     6 (A) A   7 (A) B    9 (A) A   18 (A) B     -0.0083
     5 (A) A   6 (A) B    9 (A) A   23 (A) B     -0.0080
     3 (A) A   7 (A) B    9 (A) A   18 (A) B     -0.0079
     5 (A) A   7 (A) A    9 (A) A   16 (A) A     -0.0079
     4 (A) A   8 (A) B    9 (A) A   25 (A) B     -0.0077
     7 (A) A   8 (A) B   17 (A) A   20 (A) B      0.0074
     4 (A) A   7 (A) B   19 (A) A    9 (A) B      0.0074
     5 (A) A   5 (A) B    9 (A) A   13 (A) B      0.0072
     7 (A) A   8 (A) B   19 (A) A   18 (A) B     -0.0072
     5 (A) A   8 (A) A    9 (A) A   20 (A) A      0.0069
     4 (A) A   5 (A) B    9 (A) A   18 (A) B      0.0067
     7 (A) A   7 (A) B   20 (A) A   22 (A) B     -0.0065
     7 (A) A   8 (A) B   17 (A) A    9 (A) B      0.0065
     5 (A) A   6 (A) B    9 (A) A   14 (A) B     -0.0063
     4 (A) A   7 (A) A    9 (A) A   19 (A) A      0.0061
     4 (A) A   5 (A) B   10 (A) A    9 (A) B      0.0061
     5 (A) A   7 (A) B   11 (A) A   20 (A) B      0.0060
     4 (A) A   7 (A) B    9 (A) A   14 (A) B     -0.0060
     5 (A) A             38 (A) A                 0.0058
     4 (A) A   8 (A) A    9 (A) A   25 (A) A     -0.0057
     6 (A) A   7 (A) A   19 (A) A   28 (A) A     -0.0057
     5 (A) A   7 (A) A   11 (A) A   20 (A) A      0.0053
    -----------------------------------------------------

  Density matrix analysis:
  ------------------------
  NOs
    Occupation of frontier NOs:
       0.9575   1.0542
    Number of electrons: 16.000000
    Number of unpaired electrons: n_u =  2.35540, n_u,nl =  2.06310
    NO participation ratio (PR_NO):  3.030317
  
  
  Mulliken Population Analysis
  Atom      Charge (e)              h+              e-           Del q
  --------------------------------------------------------------------
   1 H        0.148679        0.122468       -0.025065        0.097403
   2 C       -0.301913        0.270349       -0.471210       -0.200861
   3 H        0.152044        0.125603       -0.024308        0.101295
   4 C       -0.302297        0.273517       -0.474301       -0.200785
   5 H        0.152970        0.127760       -0.024868        0.102891
   6 H        0.150517        0.124112       -0.024056        0.100056
  --------------------------------------------------------------------
  Sum:       -0.000000        1.043808       -1.043808        0.000000
  
  Multipole moment analysis of the density matrix
    Molecular charge:                      0.000000
    Number of electrons:                   16.000000
      Center of electronic charge [Ang]: [ -1.560207,  -0.065550,   0.001952]
    Total nuclear charge:                  16.000000
      Center of nuclear charge [Ang]:    [ -1.560576,  -0.065290,   0.001978]
    Dipole moment [D]:                     0.034759
      Cartesian components [D]:          [ -0.028353,   0.020010,   0.001987]
    RMS size of the density [Ang]:         1.200110
      Cartesian components [Ang]:        [  0.786950,   0.768391,   0.480154]
  
  Exciton analysis of the difference density matrix
    <r_h> [Ang]:                  [ -1.565321,  -0.060047,   0.002111]
    <r_e> [Ang]:                  [ -1.560246,  -0.063549,   0.001903]
    |<r_e - r_h>| [Ang]:            0.006170
    Hole size [Ang]:                1.486263
      Cartesian components [Ang]: [  1.001784,   0.999347,   0.454658]
    Electron size [Ang]:            1.477607
      Cartesian components [Ang]: [  0.882159,   0.859414,   0.816410]

  Transition density matrix analysis:
  -----------------------------------
  
  CT numbers (Mulliken)
    omega =     0.9218
    <Phe> =    -0.0121
  
  Exciton analysis of the transition density matrix
    Trans. dipole moment [D]:             0.007820
      Cartesian components [D]:         [ -0.005406,   0.005437,   0.001537]
    <r_h> [Ang]:                        [ -1.566237,  -0.059193,   0.002168]
    <r_e> [Ang]:                        [ -1.559460,  -0.064173,   0.001847]
    |<r_e - r_h>| [Ang]:                  0.008417
    Hole size [Ang]:                      1.514799
      Cartesian components [Ang]:       [  1.024608,   1.023429,   0.444283]
    Electron size [Ang]:                  1.474678
      Cartesian components [Ang]:       [  0.872731,   0.848821,   0.832178]
    RMS electron-hole separation [Ang]:   2.094288
      Cartesian components [Ang]:       [  1.330045,   1.314734,   0.942602]
    Covariance(r_h, r_e) [Ang^2]:         0.041660
    Correlation coefficient:              0.018649
    Center-of-mass size [Ang]:            1.066843
      Cartesian components [Ang]:       [  0.680806,   0.672181,   0.472048]

  Decomposition into state-averaged NTOs
    H- 1 -> L+ 0:  0.6614 ( 87.5%)
    H- 0 -> L+ 2:  0.1490 (  4.4%)
                   omega =  92.2%
  ----------------------------------------------------------------------------


  Excited state 3 (singlet, A)                                     [converged]
  ----------------------------------------------------------------------------
  Term symbol:  4 (1) A                                     R^2 =  5.90210e-14

  Total energy:                                            -77.9827929887 a.u.
  Excitation energy:                                               9.166219 eV

  Osc. strength:                                                      0.025062
  Trans. dip. moment [a.u.]:           [  -0.015117,   -0.020394,    0.333102]
  <i|r^2|0> [a.u.]:                    [  -0.091335,   -0.002755,   -0.002174]
  Two-photon absorption cross-section (SoS) [a.u.]:                   0.002192
  Two-photon absorption matrix (SoS) [a.u.]:
                                       |   -0.015715   -0.000663    0.001768 |
                                       |   -0.000663    0.015359   -0.004191 |
                                       |    0.001768   -0.004191   -0.003788 |
  Two-photon absorption cross-section [a.u.]:                         0.002239
  Two-photon absorption matrix [a.u.]:
                                       |   -0.013131    0.000074    0.005806 |
                                       |    0.000074    0.010666   -0.009626 |
                                       |    0.005806   -0.009626   -0.002729 |

  Dip. moment [a.u.]:                  [  -0.013271,    0.007120,   -0.000700]
  Total dipole [Debye]:                                               0.038320
  <r^2> [a.u.]:                        [ 180.784106,   40.589086,   11.026910]
  Total <r^2> [a.u.]:                                               232.400102

  V1^2 = 0.9587, V2^2 = 0.0413

  Important amplitudes:
      occ i     occ j     vir a      vir b          v   
    -----------------------------------------------------
     8 (A) A             10 (A) A                -0.6891
     8 (A) A             24 (A) A                -0.0507
     8 (A) A             18 (A) A                 0.0313
     4 (A) A              9 (A) A                 0.0238
     8 (A) A   8 (A) B    9 (A) A   12 (A) B     -0.0219
     8 (A) A   8 (A) B   10 (A) A   17 (A) B     -0.0173
     8 (A) A             15 (A) A                -0.0171
     5 (A) A   8 (A) B   11 (A) A   10 (A) B     -0.0165
     7 (A) A   8 (A) B   13 (A) A   10 (A) B      0.0141
     4 (A) A   8 (A) B   12 (A) A   10 (A) B      0.0111
     6 (A) A   8 (A) A   10 (A) A   15 (A) A     -0.0110
     7 (A) A   8 (A) B   22 (A) A   10 (A) B      0.0108
     6 (A) A   8 (A) B   15 (A) A   10 (A) B      0.0107
     4 (A) A   8 (A) A   10 (A) A   12 (A) A     -0.0106
     7 (A) A   8 (A) A   10 (A) A   22 (A) A     -0.0099
     7 (A) A   8 (A) A   10 (A) A   13 (A) A     -0.0097
     5 (A) A   8 (A) B   21 (A) A   10 (A) B     -0.0094
     5 (A) A   8 (A) A   10 (A) A   11 (A) A      0.0094
     6 (A) A   8 (A) A   10 (A) A   18 (A) A     -0.0088
     6 (A) A   8 (A) B   10 (A) A   10 (A) B     -0.0087
     7 (A) A   8 (A) A   12 (A) A   16 (A) A     -0.0082
     5 (A) A   8 (A) A   10 (A) A   21 (A) A      0.0079
     3 (A) A   4 (A) B   10 (A) A    9 (A) B     -0.0079
     4 (A) A   8 (A) B   19 (A) A   10 (A) B     -0.0075
     8 (A) A   8 (A) B    9 (A) A   23 (A) B     -0.0075
     8 (A) A   8 (A) B   10 (A) A   28 (A) B      0.0073
     3 (A) A   8 (A) B   10 (A) A   10 (A) B     -0.0072
     5 (A) A   8 (A) B   10 (A) A   11 (A) B     -0.0071
     3 (A) A   8 (A) A   10 (A) A   24 (A) A      0.0071
     7 (A) A   8 (A) B   16 (A) A   12 (A) B      0.0070
     3 (A) A   8 (A) B   10 (A) A   18 (A) B      0.0069
     8 (A) A   8 (A) B    9 (A) A   19 (A) B      0.0068
     6 (A) A   8 (A) B   18 (A) A   10 (A) B      0.0067
     3 (A) A   6 (A) B   10 (A) A   28 (A) B     -0.0062
     7 (A) A   8 (A) B   12 (A) A   11 (A) B     -0.0058
     6 (A) A             28 (A) A                 0.0057
     3 (A) A   5 (A) B   10 (A) A   25 (A) B      0.0056
     5 (A) A   8 (A) A   10 (A) A   16 (A) A     -0.0056
     3 (A) A   8 (A) A   10 (A) A   18 (A) A      0.0056
     4 (A) A   8 (A) A   10 (A) A   23 (A) A     -0.0055
    -----------------------------------------------------

  Density matrix analysis:
  ------------------------
  NOs
    Occupation of frontier NOs:
       0.9814   0.9850
    Number of electrons: 16.000000
    Number of unpaired electrons: n_u =  2.28530, n_u,nl =  2.02441
    NO participation ratio (PR_NO):  2.692029
  
  
  Mulliken Population Analysis
  Atom      Charge (e)              h+              e-           Del q
  --------------------------------------------------------------------
   1 H       -0.164392        0.053758       -0.269426       -0.215668
   2 C        0.326860        0.539401       -0.111489        0.427912
   3 H       -0.164681        0.053771       -0.269201       -0.215430
   4 C        0.325620        0.537004       -0.109871        0.427133
   5 H       -0.162636        0.053885       -0.266600       -0.212715
   6 H       -0.160770        0.053991       -0.265222       -0.211231
  --------------------------------------------------------------------
  Sum:       -0.000000        1.291810       -1.291810        0.000000
  
  Multipole moment analysis of the density matrix
    Molecular charge:                      -0.000000
    Number of electrons:                   16.000000
      Center of electronic charge [Ang]: [ -1.560137,  -0.065525,   0.002001]
    Total nuclear charge:                  16.000000
      Center of nuclear charge [Ang]:    [ -1.560576,  -0.065290,   0.001978]
    Dipole moment [D]:                     0.038320
      Cartesian components [D]:          [ -0.033731,   0.018096,  -0.001780]
    RMS size of the density [Ang]:         1.276358
      Cartesian components [Ang]:        [  0.854410,   0.840290,   0.439302]
  
  Exciton analysis of the difference density matrix
    <r_h> [Ang]:                  [ -1.559679,  -0.066154,   0.001855]
    <r_e> [Ang]:                  [ -1.554711,  -0.068676,   0.002294]
    |<r_e - r_h>| [Ang]:            0.005588
    Hole size [Ang]:                1.410118
      Cartesian components [Ang]: [  0.833940,   0.819625,   0.788158]
    Electron size [Ang]:            2.075180
      Cartesian components [Ang]: [  1.372849,   1.376283,   0.726294]

  Transition density matrix analysis:
  -----------------------------------
  
  CT numbers (Mulliken)
    omega =     0.9259
    <Phe> =    -0.0109
  
  Exciton analysis of the transition density matrix
    Trans. dipole moment [D]:             0.424558
      Cartesian components [D]:         [ -0.019212,  -0.025918,   0.423331]
    <r_h> [Ang]:                        [ -1.559965,  -0.066144,   0.001741]
    <r_e> [Ang]:                        [ -1.552652,  -0.069930,   0.002411]
    |<r_e - r_h>| [Ang]:                  0.008262
    Hole size [Ang]:                      1.212926
      Cartesian components [Ang]:       [  0.636419,   0.623516,   0.823036]
    Electron size [Ang]:                  2.295386
      Cartesian components [Ang]:       [  1.517409,   1.523676,   0.802920]
    RMS electron-hole separation [Ang]:   2.586255
      Cartesian components [Ang]:       [  1.637988,   1.639335,   1.148169]
    Covariance(r_h, r_e) [Ang^2]:         0.025669
    Correlation coefficient:              0.009220
    Center-of-mass size [Ang]:            1.303009
      Cartesian components [Ang]:       [  0.826463,   0.826637,   0.575727]

  Decomposition into state-averaged NTOs
    H- 0 -> L+ 1: -0.6798 ( 92.4%)
                   omega =  92.6%
  ----------------------------------------------------------------------------


  Excited state 4 (singlet, A)                                     [converged]
  ----------------------------------------------------------------------------
  Term symbol:  5 (1) A                                     R^2 =  3.75947e-13

  Total energy:                                            -77.9583434364 a.u.
  Excitation energy:                                               9.831525 eV

  Osc. strength:                                                      0.000001
  Trans. dip. moment [a.u.]:           [   0.001684,   -0.001564,   -0.000834]
  <i|r^2|0> [a.u.]:                    [   0.027227,    0.018502,   -0.036170]
  Two-photon absorption cross-section (SoS) [a.u.]:                 149.278741
  Two-photon absorption matrix (SoS) [a.u.]:
                                       |    0.290410    0.323992   -3.003350 |
                                       |    0.323992    0.358319   -3.036133 |
                                       |   -3.003350   -3.036133   -0.648530 |
  Two-photon absorption cross-section [a.u.]:                        91.832104
  Two-photon absorption matrix [a.u.]:
                                       |    0.230335    0.254261   -2.353303 |
                                       |    0.254261    0.278604   -2.383610 |
                                       |   -2.353303   -2.383610   -0.508719 |

  Dip. moment [a.u.]:                  [  -0.000487,    0.010335,    0.000064]
  Total dipole [Debye]:                                               0.026299
  <r^2> [a.u.]:                        [ 181.302093,   40.520168,   10.768536]
  Total <r^2> [a.u.]:                                               232.590798

  V1^2 = 0.9635, V2^2 = 0.0365

  Important amplitudes:
      occ i     occ j     vir a      vir b          v   
    -----------------------------------------------------
     8 (A) A             11 (A) A                -0.6695
     7 (A) A              9 (A) A                 0.1511
     8 (A) A             21 (A) A                -0.0780
     8 (A) A             16 (A) A                 0.0645
     8 (A) A   8 (A) B    9 (A) A   13 (A) B      0.0167
     5 (A) A   8 (A) B   11 (A) A   11 (A) B     -0.0155
     8 (A) A   8 (A) B   11 (A) A   17 (A) B     -0.0140
     7 (A) A             20 (A) A                 0.0138
     7 (A) A   8 (A) B   13 (A) A   11 (A) B      0.0127
     5 (A) A   8 (A) A   11 (A) A   21 (A) A      0.0110
     4 (A) A   8 (A) B   12 (A) A   11 (A) B      0.0110
     8 (A) A   8 (A) B    9 (A) A   22 (A) B      0.0107
     8 (A) A             12 (A) A                -0.0101
     7 (A) A   8 (A) A   11 (A) A   22 (A) A     -0.0097
     6 (A) A   8 (A) B   15 (A) A   11 (A) B      0.0090
     6 (A) A   8 (A) B   10 (A) A   11 (A) B     -0.0090
     7 (A) A   8 (A) B   22 (A) A   11 (A) B      0.0089
     3 (A) A   4 (A) B   11 (A) A    9 (A) B     -0.0083
     3 (A) A   8 (A) B   11 (A) A   18 (A) B      0.0081
     6 (A) A   8 (A) A   11 (A) A   15 (A) A     -0.0080
     7 (A) A   8 (A) A   13 (A) A   16 (A) A      0.0078
     7 (A) A   8 (A) A   11 (A) A   13 (A) A     -0.0077
     5 (A) A   8 (A) B   21 (A) A   11 (A) B     -0.0071
     4 (A) A   8 (A) B   19 (A) A   11 (A) B     -0.0070
     5 (A) A   8 (A) B    9 (A) A    9 (A) B     -0.0068
     6 (A) A              9 (A) A                 0.0065
     4 (A) A   8 (A) A   11 (A) A   12 (A) A     -0.0063
     6 (A) A   8 (A) A   11 (A) A   18 (A) A     -0.0062
     3 (A) A   6 (A) B   11 (A) A   28 (A) B     -0.0060
     6 (A) A   8 (A) B   18 (A) A   11 (A) B      0.0060
     7 (A) A   8 (A) B   16 (A) A   13 (A) B     -0.0057
     3 (A) A   8 (A) A   11 (A) A   18 (A) A      0.0056
     5 (A) A   8 (A) B   10 (A) A   10 (A) B     -0.0056
     3 (A) A   8 (A) B   11 (A) A   30 (A) B      0.0055
     3 (A) A   5 (A) B   11 (A) A   25 (A) B      0.0055
     6 (A) A   8 (A) B   11 (A) A   10 (A) B     -0.0054
     7 (A) A   8 (A) B   12 (A) A   10 (A) B     -0.0054
     8 (A) A   8 (A) B   20 (A) A   22 (A) B      0.0053
     3 (A) A   8 (A) A   11 (A) A   24 (A) A      0.0053
     5 (A) A   8 (A) A   11 (A) A   16 (A) A     -0.0049
    -----------------------------------------------------

  Density matrix analysis:
  ------------------------
  NOs
    Occupation of frontier NOs:
       0.9402   1.0283
    Number of electrons: 16.000000
    Number of unpaired electrons: n_u =  2.31927, n_u,nl =  2.04946
    NO participation ratio (PR_NO):  2.917474
  
  
  Mulliken Population Analysis
  Atom      Charge (e)              h+              e-           Del q
  --------------------------------------------------------------------
   1 H       -0.143995        0.045910       -0.241181       -0.195271
   2 C        0.274784        0.497009       -0.121173        0.375836
   3 H       -0.131482        0.046931       -0.229162       -0.182231
   4 C        0.272759        0.496393       -0.122121        0.374272
   5 H       -0.127747        0.047067       -0.224893       -0.177826
   6 H       -0.144319        0.046070       -0.240850       -0.194780
  --------------------------------------------------------------------
  Sum:       -0.000000        1.179380       -1.179380        0.000000
  
  Multipole moment analysis of the density matrix
    Molecular charge:                      -0.000000
    Number of electrons:                   16.000000
      Center of electronic charge [Ang]: [ -1.560560,  -0.065632,   0.001976]
    Total nuclear charge:                  16.000000
      Center of nuclear charge [Ang]:    [ -1.560576,  -0.065290,   0.001978]
    Dipole moment [D]:                     0.026299
      Cartesian components [D]:          [ -0.001237,   0.026269,   0.000163]
    RMS size of the density [Ang]:         1.277143
      Cartesian components [Ang]:        [  0.858931,   0.839564,   0.434125]
  
  Exciton analysis of the difference density matrix
    <r_h> [Ang]:                  [ -1.560444,  -0.065703,   0.001829]
    <r_e> [Ang]:                  [ -1.560740,  -0.069908,   0.001967]
    |<r_e - r_h>| [Ang]:            0.004218
    Hole size [Ang]:                1.395057
      Cartesian components [Ang]: [  0.818836,   0.806744,   0.790479]
    Electron size [Ang]:            2.124219
      Cartesian components [Ang]: [  1.441612,   1.404696,   0.678889]

  Transition density matrix analysis:
  -----------------------------------
  
  CT numbers (Mulliken)
    omega =     0.9298
    <Phe> =    -0.0135
  
  Exciton analysis of the transition density matrix
    Trans. dipole moment [D]:             0.003108
      Cartesian components [D]:         [  0.002141,  -0.001988,  -0.001060]
    <r_h> [Ang]:                        [ -1.560451,  -0.065425,   0.001776]
    <r_e> [Ang]:                        [ -1.560936,  -0.070620,   0.001971]
    |<r_e - r_h>| [Ang]:                  0.005222
    Hole size [Ang]:                      1.228141
      Cartesian components [Ang]:       [  0.658565,   0.650097,   0.807463]
    Electron size [Ang]:                  2.262114
      Cartesian components [Ang]:       [  1.535812,   1.496117,   0.721163]
    RMS electron-hole separation [Ang]:   2.563331
      Cartesian components [Ang]:       [  1.662496,   1.623488,   1.082155]
    Covariance(r_h, r_e) [Ang^2]:         0.027426
    Correlation coefficient:              0.009872
    Center-of-mass size [Ang]:            1.292318
      Cartesian components [Ang]:       [  0.839786,   0.819496,   0.541546]

  Decomposition into state-averaged NTOs
    H- 0 -> L+ 2:  0.6648 ( 88.4%)
    H- 1 -> L+ 0: -0.1491 (  4.4%)
                   omega =  93.0%
  ----------------------------------------------------------------------------


  Excited state 5 (singlet, A)                                     [converged]
  ----------------------------------------------------------------------------
  Term symbol:  6 (1) A                                     R^2 =  2.84446e-13

  Total energy:                                            -77.9444874815 a.u.
  Excitation energy:                                              10.208564 eV

  Osc. strength:                                                      0.000000
  Trans. dip. moment [a.u.]:           [  -0.000198,   -0.000231,   -0.000183]
  <i|r^2|0> [a.u.]:                    [  -0.088894,    0.104172,   -0.016766]
  Two-photon absorption cross-section (SoS) [a.u.]:                 172.455873
  Two-photon absorption matrix (SoS) [a.u.]:
                                       |   -0.315526   -0.039946    3.296224 |
                                       |   -0.039946    0.382883   -3.250293 |
                                       |    3.296224   -3.250293   -0.074843 |
  Two-photon absorption cross-section [a.u.]:                        75.622439
  Two-photon absorption matrix [a.u.]:
                                       |   -0.210243   -0.026688    2.170873 |
                                       |   -0.026688    0.252351   -2.164281 |
                                       |    2.170873   -2.164281   -0.051516 |

  Dip. moment [a.u.]:                  [   0.015265,   -0.014942,    0.000019]
  Total dipole [Debye]:                                               0.054294
  <r^2> [a.u.]:                        [ 178.396706,   38.195991,   11.955756]
[...]
    16   -1.461511590648e-03
    17   -1.762013279598e-03
    18    9.943360740773e-06
    19   -3.387475508320e-03
    20    1.101363579737e-02
    21    9.323120660435e-01
    22   -3.772642367948e-04
    23    1.398138150110e-02
    24    8.113933779641e-04
    25    7.016872676893e-02
    26   -5.222755228009e-02
    27   -1.396034708092e+00
    28    9.742066984800e-02
    29   -9.307158676048e-02
    30   -1.125045659332e-03
    31    3.833721273380e-01
    32   -3.645970200624e-01
    33   -4.340901865237e-03
    34    1.559640815874e-02
    35   -1.459876511828e-03
    36   -1.789153005488e-03
    37   -4.391071089221e-05
    38   -3.085288742019e-03
    39    1.009376460173e-02
    40    9.343672546742e-01
    41    2.389378734767e-04
    42   -1.394911963556e-02
    43   -8.332377691576e-04
    44    9.822638066227e-03
    45    9.351808590929e-01
    46    1.404939161822e-02
    47    3.490729495437e-04
    48    6.784561363272e-04
Sym=X
Ene= 0.232863
Spin=Alpha
Occup=0
     1    2.614366565921e-02
     2    1.229497598713e+00
     3   -1.424396454776e-02
     4   -3.800222748257e-03
     5   -8.886370810329e-04
     6    2.661096679161e-03
     7   -3.009295663212e-03
     8   -4.038067539840e-02
     9   -1.544266512736e-01
    10   -1.592054434921e-01
    11   -1.661816949824e-02
    12   -5.546041553030e-01
    13   -5.636774536854e-01
    14   -5.912561368007e-02
    15    4.680207700664e-04
    16   -5.204767473818e-05
    17   -4.847387952045e-05
    18   -2.069160774977e-04
    19   -3.111242572642e-04
    20   -2.488027117991e-02
    21   -1.167530521464e+00
    22   -2.555899959794e-03
    23   -1.364669913249e-02
    24   -9.262172139825e-04
    25   -2.780043683828e-03
    26    3.064962261098e-03
    27    4.402879368181e-02
    28   -1.541378184124e-01
    29   -1.585526059069e-01
    30   -1.684755712987e-02
    31   -5.472094499356e-01
    32   -5.538936172247e-01
    33   -5.936145484607e-02
    34   -5.272099883592e-04
    35    7.431133441349e-05
    36    1.928335092080e-05
    37    4.532274849111e-04
    38    3.499557195167e-04
    39    2.501601414537e-02
    40    1.155041142984e+00
    41   -2.470594327448e-03
    42   -1.358522570764e-02
    43   -9.357036179728e-04
    44   -2.613884723450e-02
    45   -1.221534941170e+00
    46   -1.427756157033e-02
    47   -3.748269006625e-03
    48   -9.016028753825e-04
Sym=X
Ene= 0.239476
Spin=Alpha
Occup=0
     1   -1.618820226988e-02
     2   -1.049064001125e+00
     3    1.644293362548e-02
     4    9.075786244850e-03
     5    1.319199693714e-03
     6   -8.652641677314e-02
     7    7.984163398397e-02
     8    1.592323280176e+00
     9    5.342379008895e-02
    10   -6.023904969790e-02
    11   -9.629281990710e-04
    12    2.087069853261e-01
    13   -2.339653857022e-01
    14   -3.587887426250e-03
    15   -2.249706617365e-02
    16    2.600997485917e-03
    17    2.965140207407e-03
    18   -6.760867741690e-04
    19    1.292410766993e-02
    20   -1.722806163298e-02
    21   -1.124194834208e+00
    22   -8.423478902680e-03
    23   -1.780045912236e-02
    24   -1.448219725929e-03
    25    8.650001933102e-02
    26   -7.923410672620e-02
    27   -1.599576419569e+00
    28    5.400778954551e-02
    29   -6.085211248791e-02
    30   -1.283923017542e-03
    31    2.136894619822e-01
    32   -2.376220721549e-01
    33   -4.883483910436e-03
    34    2.264917793193e-02
    35   -2.591812209080e-03
    36   -3.016749353028e-03
    37    6.594672087235e-04
    38   -1.283984582233e-02
    39    1.669046207479e-02
    40    1.127386246074e+00
    41   -8.629152665826e-03
    42   -1.785670057648e-02
    43   -1.487744434511e-03
    44    1.572224323333e-02
    45    1.054305157777e+00
    46    1.653390536117e-02
    47    9.276122724097e-03
    48    1.320004156623e-03
Sym=X
Ene= 0.303233
Spin=Alpha
Occup=0
     1   -2.061861888686e-02
     2    1.689094125290e+00
     3   -2.290458886514e-02
     4    1.630023747343e-04
     5   -1.076552705987e-03
     6   -4.342755481969e-05
     7    1.814773269647e-04
     8   -1.347374193260e-03
     9   -1.335326188646e-01
    10   -1.394418621162e-01
    11   -1.451576697879e-02
    12   -1.140960130230e+00
    13   -1.197065077106e+00
    14   -1.247928279299e-01
    15   -4.804530411774e-05
    16   -1.641388752498e-03
    17    1.842743583109e-03
    18   -3.254054302342e-02
    19   -1.627541452768e-03
    20    2.028577248660e-02
    21   -1.687569440356e+00
    22    1.351908913484e-03
    23   -2.281367571406e-02
    24   -1.276199515241e-03
    25   -6.765120138934e-05
    26    1.822092253522e-04
    27   -1.466841708652e-03
    28    1.346633514756e-01
    29    1.406781458556e-01
    30    1.481048651225e-02
    31    1.141797158782e+00
    32    1.197000759061e+00
    33    1.253951737759e-01
    34   -3.716799973346e-05
    35   -1.590440384854e-03
    36    1.893303192230e-03
    37   -3.235944821431e-02
    38   -1.632263000460e-03
    39    1.952721032643e-02
    40   -1.696054846657e+00
    41   -1.578786866419e-03
    42    2.287552585934e-02
    43    1.296809557687e-03
    44   -1.997185580369e-02
    45    1.698302378355e+00
    46    2.296345191409e-02
    47   -3.789536106994e-04
    48    1.063281007877e-03
Sym=X
Ene= 0.461762
Spin=Alpha
Occup=0
     1   -1.187498749632e-01
     2   -7.071341465856e-01
     3   -1.577157081130e-02
     4   -1.023457021427e-02
     5   -1.343061398091e-03
     6    6.063776690896e-02
     7    1.791320610498e-02
     8   -3.588938074603e+00
     9    1.028447675234e-01
    10   -9.824785342110e-02
    11   -1.007215651628e-03
    12    2.423599442688e+00
    13   -2.300521225339e+00
    14   -2.110832759997e-02
    15    5.403844374964e-02
    16   -3.396881431365e-03
    17   -4.688941470494e-03
    18   -7.777495895509e-04
    19    1.766225626907e-02
    20   -1.222058459495e-01
    21   -7.016485836232e-01
    22    8.917227029781e-03
    23    1.646383187154e-02
    24    1.391626954496e-03
    25   -6.083541933216e-02
    26   -1.626424239775e-02
    27    3.587019752789e+00
    28    1.055382371288e-01
    29   -1.009003399129e-01
    30   -1.219322046103e-03
    31    2.418131806005e+00
    32   -2.294244811015e+00
    33   -2.182280958857e-02
    34   -5.255670086547e-02
    35    3.254922215652e-03
    36    4.496471494210e-03
    37    8.441906537351e-04
    38   -1.920904404597e-02
    39    1.139812767369e-01
    40    7.093019826857e-01
    41    8.503992788505e-03
    42    1.618903215531e-02
    43    1.367502296270e-03
    44    1.102944176098e-01
    45    7.169491875164e-01
    46   -1.552064632117e-02
    47   -9.832037725268e-03
    48   -1.333033059160e-03
Sym=X
Ene= 0.577268
Spin=Alpha
Occup=0
     1    2.510187523342e-01
     2    3.094336442260e-02
     3   -1.799840418331e-02
     4    2.549319547344e-02
     5    6.589387121606e-04
     6   -4.062512595521e-03
     7   -1.560755065691e-01
     8   -4.797192760732e-01
     9    2.996273917830e-01
    10   -2.870708054201e-01
    11   -2.833565274478e-03
    12   -7.098783358941e-01
    13    6.830765636812e-01
    14    7.075630806268e-03
    15   -6.369071125957e-03
    16    3.952999415709e-03
    17    3.754803952706e-03
    18   -3.769412888201e-03
    19    6.040386435701e-02
    20    2.544979603110e-01
    21    2.590511954004e-02
    22   -2.644363464992e-02
    23    1.635158852588e-02
    24   -2.807244954615e-04
    25   -5.851630027958e-03
    26   -1.570812638206e-01
    27   -3.945294950682e-01
    28   -2.963744859901e-01
    29    2.840671653937e-01
    30    2.775979562945e-03
    31    7.724071067350e-01
    32   -7.422355817346e-01
    33   -7.807031439066e-03
    34   -6.307558962184e-03
    35    3.938050896529e-03
    36    3.756409648733e-03
    37   -3.860368103488e-03
    38    6.029108746583e-02
    39    2.529475192701e-01
    40    5.289971013125e-02
    41    2.712318799343e-02
    42   -1.668557191654e-02
    43    2.790519720188e-04
    44    2.487605004248e-01
    45    5.943845293774e-02
    46    1.838771355409e-02
    47   -2.617339848949e-02
    48   -7.015635794655e-04
Sym=X
Ene= 0.615661
Spin=Alpha
Occup=0
     1   -5.190735204805e-01
     2    2.025266543573e-01
     3   -6.147665271292e-02
     4    3.816869369332e-02
     5   -6.629722264906e-04
     6   -4.063370498263e-04
     7    6.755090418855e-04
     8   -1.646958449724e-02
     9   -3.862768578646e-02
    10   -3.889391050959e-02
    11   -4.181997537619e-03
    12    2.938664673256e-01
    13    2.851654725381e-01
    14    3.048875700907e-02
    15    1.444199494607e-03
    16   -7.541251878569e-03
    17    8.289463190577e-03
    18   -1.480226756508e-01
    19   -6.767864438794e-03
    20    5.101819654854e-01
    21   -2.025642406842e-01
    22    4.176351187221e-02
    23   -5.864178042335e-02
    24   -1.504933941155e-03
    25    3.942912145526e-04
    26   -6.452760583836e-04
    27    1.489235410210e-02
    28   -4.026348831647e-02
    29   -3.986249822610e-02
    30   -4.234998562011e-03
    31    3.035315507759e-01
    32    2.931758752260e-01
    33    3.213200480543e-02
    34   -1.324066060392e-03
    35    7.486381707576e-03
    36   -8.557603162550e-03
    37    1.496541105742e-01
    38    6.791010226202e-03
    39   -5.150672011600e-01
    40    2.066531037233e-01
    41    4.109491402215e-02
    42   -5.886462657106e-02
    43   -1.577878475979e-03
    44    5.234127221655e-01
    45   -2.047626345645e-01
    46   -6.154375461888e-02
    47    3.745296445767e-02
    48   -6.425772317247e-04
Sym=X
Ene= 0.689152
Spin=Alpha
Occup=0
     1    3.615205748863e-04
     2    2.368130120918e-04
     3    1.026150483611e-03
     4    1.252036637059e-03
     5   -2.076560107957e-02
     6    2.674832826591e-05
     7    2.211970318090e-04
     8    7.632756668043e-05
     9    3.146989217004e-02
    10    3.976168592701e-02
    11   -6.704723852038e-01
    12   -2.927703348406e-02
    13   -3.581085774973e-02
    14    6.136411576903e-01
    15   -1.369443615218e-03
    16    8.261207028425e-02
    17   -7.829033275703e-02
    18   -8.615642658971e-03
    19   -1.102585220263e-03
    20    4.221698542226e-04
    21   -4.427598674083e-05
    22    9.236976390900e-04
    23    1.167603233094e-03
    24   -2.093392384465e-02
    25    6.457790112318e-06
    26    4.112041434261e-04
    27   -4.674732475655e-04
    28    3.188701408936e-02
    29    3.991671254683e-02
    30   -6.700590485452e-01
    31   -2.978422724135e-02
    32   -3.607937823659e-02
    33    6.131485896372e-01
    34    1.158900842532e-03
    35   -8.277850588178e-02
    36    7.848537752748e-02
    37    8.526608869894e-03
    38    1.178578097340e-03
    39    9.708256045803e-05
    40   -6.102651035161e-04
    41    1.017439057450e-03
    42    1.369672268564e-03
    43   -2.106546278504e-02
    44    3.303496715882e-05
    45   -3.254475686294e-04
    46    9.086133491465e-04
    47    1.274903974737e-03
    48   -2.104996323634e-02
Sym=X
Ene= 0.708547
Spin=Alpha
Occup=0
     1   -4.780042193115e-01
     2    1.657588546986e-01
     3   -8.092161236633e-02
     4   -4.439542935484e-02
     5   -6.480186023665e-03
     6   -4.818559184647e-02
     7   -3.190870795848e-01
     8    5.182371408289e-01
     9    2.050985678143e-01
    10   -1.926430949770e-01
    11   -2.118198309992e-03
    12   -1.102244165765e-01
    13    9.362648852542e-02
    14    3.861268727139e-04
    15    1.942688387625e-01
    16   -2.046810666952e-02
    17   -2.393048458064e-02
    18    3.095073078143e-03
    19   -7.795827133527e-02
    20   -4.779709104358e-01
    21    1.550703086414e-01
    22    4.077642980242e-02
    23    8.197761445165e-02
    24    6.740240599007e-03
    25   -4.630742302993e-02
    26   -3.216205666221e-01
    27    4.460513833181e-01
    28   -2.049858729194e-01
    29    1.932921305861e-01
    30    1.398108675894e-03
    31    5.821003953211e-02
    32   -4.658038944618e-02
    33    8.362346692901e-04
    34    1.931378223823e-01
    35   -2.031602307709e-02
    36   -2.378059860134e-02
    37    2.860058758177e-03
    38   -7.496925255753e-02
    39   -4.705328286510e-01
    40    1.331195779767e-01
    41   -4.039474492078e-02
    42   -8.099290697476e-02
    43   -6.737962419022e-03
    44   -4.712052079654e-01
    45    1.416710639530e-01
    46    8.004238032597e-02
    47    4.382087865521e-02
    48    6.416073774702e-03
Sym=X
Ene= 0.784462
Spin=Alpha
Occup=0
     1    5.257395106979e-01
     2   -4.754059611152e-01
     3    1.102059392283e-01
     4    2.612713173100e-02
     5    6.749650021089e-03
     6    9.078676528643e-02
     7   -2.177869980619e-01
     8   -6.447141486856e-01
     9    1.097385571491e-01
    10   -1.062082086108e-01
    11   -4.030303141095e-04
    12    3.276439866971e-01
    13   -3.010260454326e-01
    14   -3.563831128247e-03
    15   -2.053709984756e-01
    16    1.741160271279e-02
    17    2.163425606055e-02
    18   -1.037876024983e-03
    19    9.982695166228e-03
    20    5.330459097263e-01
    21   -4.710046659016e-01
    22   -1.992907537753e-02
    23   -1.120582039029e-01
    24   -7.546341767167e-03
    25   -9.160043702456e-02
    26    2.114235655695e-01
    27    6.701644689773e-01
    28    1.103196580229e-01
    29   -1.057652874491e-01
    30   -1.578661999119e-03
    31    3.164052799374e-01
    32   -2.926298725810e-01
    33   -1.168777867042e-03
    34    2.081595938365e-01
    35   -1.765430740526e-02
    36   -2.230279759436e-02
    37    1.071983831239e-03
    38   -9.671859605000e-03
    39   -5.426769589213e-01
    40    4.673912388394e-01
    41   -2.081897220673e-02
    42   -1.126817529790e-01
    43   -7.727019817641e-03
    44   -5.344497893549e-01
    45    4.690533455680e-01
    46    1.106447369003e-01
    47    2.698759803880e-02
    48    6.856402875063e-03
Sym=X
Ene= 0.807977
Spin=Alpha
Occup=0
     1    3.934401160665e-04
     2   -8.216075955573e-04
     3    1.737517951062e-03
     4    2.031553893141e-03
     5   -3.382869369476e-02
     6    8.082664719632e-05
     7   -3.168672604306e-04
     8   -4.665035872688e-05
     9    3.609727808968e-02
    10    4.479475369553e-02
    11   -7.629788519620e-01
    12   -5.282971581303e-02
    13   -6.651922822673e-02
    14    1.126945811704e+00
    15    7.872835655024e-04
    16   -6.524221941293e-02
    17    6.188726462944e-02
    18    6.868894121833e-03
    19    8.763534851827e-04
    20    3.848889432648e-04
    21   -3.086226666626e-05
    22    1.668728238652e-03
    23    1.985736120679e-03
    24   -3.446274889637e-02
    25   -6.661988621780e-05
    26   -6.052559799048e-06
    27    2.322675714699e-04
    28   -3.615062502335e-02
    29   -4.581402385576e-02
    30    7.632992866700e-01
    31    5.392293383243e-02
    32    6.722836792864e-02
    33   -1.127064452514e+00
    34    1.232447429140e-03
    35   -6.524528677952e-02
    36    6.182739877474e-02
    37    6.655556811511e-03
    38    9.602366642760e-04
    39   -3.840516630787e-04
    40    1.193280641825e-04
    41   -1.556613917854e-03
    42   -2.173379899553e-03
    43    3.425613850511e-02
    44   -3.924060941383e-04
    45    9.002794122707e-04
    46   -1.381760394674e-03
    47   -2.006170872975e-03
    48    3.376127827514e-02
Sym=X
Ene= 0.862227
Spin=Alpha
Occup=0
     1    1.333565909723e-02
     2   -1.097002513384e+00
     3    1.482037710626e-01
     4    5.746873021128e-02
     5    1.037523718449e-02
     6   -7.438343726076e-05
     7   -1.258640424387e-03
     8    1.489840631728e-03
     9   -4.079349164194e-01
    10   -4.293117072356e-01
    11   -4.436360954222e-02
    12    9.484560396482e-01
    13    1.000355828613e+00
    14    1.033145566006e-01
    15    1.201437051927e-04
    16    1.167137121556e-02
    17   -1.349056139429e-02
    18    2.345738496745e-01
    19    1.057438116723e-02
    20   -1.484621890305e-02
    21    1.103393767454e+00
    22    5.060923663717e-02
    23    1.514827542752e-01
    24    1.137648519925e-02
    25    2.388973496424e-05
    26    2.063684823157e-04
    27   -7.061783523812e-04
    28   -4.070698128979e-01
    29   -4.285129532334e-01
    30   -4.514268318441e-02
    31    9.489050405818e-01
    32    1.000764463577e+00
    33    1.053011773859e-01
    34    1.334148965922e-04
    35   -1.174884882996e-02
    36    1.358559913111e-02
    37   -2.361658652701e-01
    38   -1.064163491360e-02
    39    1.107341948461e-02
    40   -1.100529698015e+00
    41    4.899426061114e-02
    42    1.515415135686e-01
    43    1.141808016095e-02
    44   -9.788815819655e-03
    45    1.093991253101e+00
    46    1.483834433346e-01
    47    5.577560493998e-02
    48    1.029693662636e-02
Sym=X
Ene= 0.935836
Spin=Alpha
Occup=0
     1    1.137593109948e-01
     2   -1.283341878607e+00
     3    1.817035152287e-01
     4   -3.865054742044e-03
     5    8.389560780924e-03
     6   -1.664875210035e-04
     7   -1.103305826798e-03
     8    1.986437074374e-03
     9   -4.746889113720e-01
    10   -4.972625179316e-01
    11   -5.184756262324e-02
    12    1.471324597151e+00
    13    1.536434253514e+00
    14    1.604533995110e-01
    15    1.066301970522e-03
    16    5.865443819918e-03
    17   -6.794396438249e-03
    18    1.191229499310e-01
    19    4.777541782263e-03
    20   -1.160658014328e-01
    21    1.279838636005e+00
    22   -1.202670378643e-02
    23    1.818293711703e-01
    24    1.012043459160e-02
    25    3.291748420914e-05
    26   -4.330098867712e-04
    27    3.944096805195e-03
    28    4.733564912482e-01
    29    4.993730722759e-01
    30    5.219609339505e-02
    31   -1.465493735777e+00
    32   -1.539323738027e+00
    33   -1.611609313114e-01
    34    5.247389111093e-04
    35    5.891634742949e-03
    36   -7.179572926484e-03
    37    1.207284916656e-01
    38    3.826162188205e-03
    39   -1.171244528654e-01
    40    1.286470993839e+00
    41    1.314981140973e-02
    42   -1.822241096789e-01
    43   -1.026241960790e-02
    44    1.151469868325e-01
    45   -1.285218672174e+00
    46   -1.818595037365e-01
    47    5.631707275493e-03
    48   -8.294314078326e-03
Sym=X
Ene= 0.972261
Spin=Alpha
Occup=0
     1   -6.409287993296e-02
     2    9.194521649554e-01
     3   -8.981310651588e-02
     4   -9.904565503682e-02
     5   -1.011502912738e-02
     6    2.551215047690e-02
     7    2.588221223962e-01
     8    5.099239411411e-01
     9    4.801698541901e-01
    10   -4.573425599783e-01
    11   -4.262025427529e-03
    12   -1.486448907562e+00
    13    1.416852690705e+00
    14    1.324430032226e-02
    15   -5.482980446371e-02
    16   -1.277138353646e-02
    17   -9.719149807203e-03
    18    1.497693532251e-02
    19   -3.028607598912e-01
    20   -6.198694231533e-02
    21    9.203957499775e-01
    22    9.531707505413e-02
    23    9.433278725210e-02
    24    1.010473018103e-02
    25   -2.518043517238e-02
    26   -2.297106653572e-01
    27   -5.581725205814e-01
    28    4.789081063608e-01
    29   -4.528815996480e-01
    30   -4.511781452890e-03
    31   -1.488977471140e+00
    32    1.406466813721e+00
    33    1.376026519118e-02
    34    5.302796447466e-02
    35    1.266033712864e-02
    36    9.674475985229e-03
    37   -1.426374238325e-02
    38    2.985009534365e-01
    39    6.261338821122e-02
    40   -8.998036431301e-01
    41    9.388252346954e-02
    42    9.141364072657e-02
    43    9.975044072216e-03
    44    6.464507506183e-02
    45   -9.098032963855e-01
    46   -8.834165714121e-02
    47   -9.748547215888e-02
    48   -9.886559787134e-03
[5D]

======= END OF MOLDEN-FORMATTED INPUT FILE =======


        *************************************************************
        *                                                           *
        *  Thank you very much for using Q-Chem.  Have a nice day.  *
        *                                                           *
        *************************************************************


