                  Welcome to Q-Chem
     A Quantum Leap Into The Future Of Chemistry


 Q-Chem 5.4 (devel), Q-Chem, Inc., Pleasanton, CA (2021)

 E. Epifanovsky,  A. T. B. Gilbert,  Xintian Feng,  Joonho Lee,  Yuezhi Mao,  
 N. Mardirossian,  P. Pokhilko,  A. White,  M. Wormit,  M. P. Coons,  
 A. L. Dempwolff,  Zhengting Gan,  D. Hait,  P. R. Horn,  L. D. Jacobson,  
 I. Kaliman,  J. Kussmann,  A. W. Lange,  Ka Un Lao,  D. S. Levine,  Jie Liu,  
 S. C. McKenzie,  A. F. Morrison,  K. Nanda,  F. Plasser,  D. R. Rehn,  
 M. L. Vidal,  Zhi-Qiang You,  Ying Zhu,  B. Alam,  B. Albrecht,  
 A. Aldossary,  E. Alguire,  J. H. Andersen,  D. Barton,  K. Begam,  A. Behn,  
 Y. A. Bernard,  E. J. Berquist,  H. Burton,  A. Carreras,  K. Carter-Fenk,  
 R. Chakraborty,  A. D. Chien,  K. D. Closser,  V. Cofer-Shabica,  
 S. Dasgupta,  Jia Deng,  M. de Wergifosse,  M. Diedenhofen,  Hainam Do,  
 S. Ehlert,  Po-Tung Fang,  S. Fatehi,  Qingguo Feng,  T. Friedhoff,  
 J. Gayvert,  Qinghui Ge,  G. Gidofalvi,  M. Goldey,  J. Gomes,  
 C. Gonzalez-Espinoza,  S. Gulania,  A. Gunina,  M. W. D. Hanson-Heine,  
 P. H. P. Harbach,  A. W. Hauser,  M. F. Herbst,  M. Hernandez Vera,  
 M. Hodecker,  Z. C. Holden,  S. Houck,  Xunkun Huang,  Kerwin Hui,  
 B. C. Huynh,  M. Ivanov,  Hyunjun Ji,  Hanjie Jiang,  B. Kaduk,  S. Kaehler,  
 K. Khistyaev,  Jaehoon Kim,  P. Klunzinger,  Z. Koczor-Benda,  
 Joong Hoon Koh,  D. Kosenkov,  L. Koulias,  T. Kowalczyk,  C. M. Krauter,  
 K. Kue,  A. Kunitsa,  T. Kus,  A. Landau,  K. V. Lawler,  D. Lefrancois,  
 S. Lehtola,  Rain Li,  Yi-Pei Li,  Jiashu Liang,  M. Liebenthal,  
 Hung-Hsuan Lin,  You-Sheng Lin,  Fenglai Liu,  Kuan-Yu Liu,  
 M. Loipersberger,  A. Luenser,  A. Manjanath,  P. Manohar,  E. Mansoor,  
 S. F. Manzer,  Shan-Ping Mao,  A. V. Marenich,  T. Markovich,  S. Mason,  
 S. A. Maurer,  P. F. McLaughlin,  M. F. S. J. Menger,  J.-M. Mewes,  
 S. A. Mewes,  P. Morgante,  J. W. Mullinax,  K. J. Oosterbaan,  G. Paran,  
 Alexander C. Paul,  Suranjan K. Paul,  F. Pavosevic,  Zheng Pei,  S. Prager,  
 E. I. Proynov,  E. Ramos,  B. Rana,  A. E. Rask,  A. Rettig,  R. M. Richard,  
 F. Rob,  E. Rossomme,  T. Scheele,  M. Scheurer,  M. Schneider,  
 N. Sergueev,  S. M. Sharada,  W. Skomorowski,  D. W. Small,  C. J. Stein,  
 Yu-Chuan Su,  E. J. Sundstrom,  Zhen Tao,  J. Thirman,  T. Tsuchimochi,  
 N. M. Tubman,  S. P. Veccham,  O. Vydrov,  J. Wenzel,  J. Witte,  A. Yamada,  
 Kun Yao,  S. Yeganeh,  S. R. Yost,  A. Zech,  Igor Ying Zhang,  Xing Zhang,  
 Yu Zhang,  D. Zuev,  A. Aspuru-Guzik,  A. T. Bell,  N. A. Besley,  
 K. B. Bravaya,  B. R. Brooks,  D. Casanova,  Jeng-Da Chai,  S. Coriani,  
 C. J. Cramer,  A. E. DePrince, III,  R. A. DiStasio Jr.,  A. Dreuw,  
 B. D. Dunietz,  T. R. Furlani,  W. A. Goddard III,  S. Grimme,  
 S. Hammes-Schiffer,  T. Head-Gordon,  W. J. Hehre,  Chao-Ping Hsu,  
 T.-C. Jagau,  Yousung Jung,  A. Klamt,  Jing Kong,  D. S. Lambrecht,  
 WanZhen Liang,  N. J. Mayhall,  C. W. McCurdy,  J. B. Neaton,  
 C. Ochsenfeld,  J. A. Parkhill,  R. Peverati,  V. A. Rassolov,  Yihan Shao,  
 L. V. Slipchenko,  T. Stauch,  R. P. Steele,  J. E. Subotnik,  
 A. J. W. Thom,  A. Tkatchenko,  D. G. Truhlar,  T. Van Voorhis,  
 T. A. Wesolowski,  K. B. Whaley,  H. L. Woodcock III,  P. M. Zimmerman,  
 S. Faraji,  P. M. W. Gill,  M. Head-Gordon,  J. M. Herbert,  A. I. Krylov

 Additional authors for Version 5.4.1: 
 S. Kotaru,  Shaozhi Li,  Xiangyuan Li,  F. Matz,  A. Molle,  Haisheng Ren,  
 Yingli Su,  Hung-Yi Tsai,  C. Utku,  Fang Wang

 Contributors to earlier versions of Q-Chem not listed above: 
 R. D. Adamson,  B. Austin,  R. Baer,  J. Baker,  G. J. O. Beran,  
 K. Brandhorst,  S. T. Brown,  E. F. C. Byrd,  A. K. Chakraborty,  
 G. K. L. Chan,  Chun-Min Chang,  Yunqing Chen,  C.-L. Cheng,  
 Siu Hung Chien,  D. M. Chipman,  D. L. Crittenden,  H. Dachsel,  
 R. J. Doerksen,  A. D. Dutoi,  R. G. Edgar,  J. Fosso-Tande,  
 L. Fusti-Molnar,  D. Ghosh,  A. Ghysels,  A. Golubeva-Zadorozhnaya,  
 J. Gonthier,  M. S. Gordon,  S. R. Gwaltney,  G. Hawkins,  J. E. Herr,  
 A. Heyden,  S. Hirata,  E. G. Hohenstein,  G. Kedziora,  F. J. Keil,  
 C. Kelley,  Jihan Kim,  R. A. King,  R. Z. Khaliullin,  P. P. Korambath,  
 W. Kurlancheek,  A. Laurent,  A. M. Lee,  M. S. Lee,  S. V. Levchenko,  
 Ching Yeh Lin,  D. Liotard,  E. Livshits,  R. C. Lochan,  I. Lotan,  
 L. A. Martinez-Martinez,  P. E. Maslen,  N. Nair,  D. P. O'Neill,  
 D. Neuhauser,  E. Neuscamman,  C. M. Oana,  R. Olivares-Amaya,  R. Olson,  
 T. M. Perrine,  B. Peters,  P. A. Pieniazek,  A. Prociuk,  Y. M. Rhee,  
 J. Ritchie,  M. A. Rohrdanz,  E. Rosta,  N. J. Russ,  H. F. Schaefer III,  
 M. W. Schmidt,  N. E. Schultz,  S. Sharma,  N. Shenvi,  C. D. Sherrill,  
 A. C. Simmonett,  A. Sodt,  T. Stein,  D. Stuck,  K. S. Thanthiriwatte,  
 V. Vanovschi,  L. Vogt,  Tao Wang,  A. Warshel,  M. A. Watson,  
 C. F. Williams,  Q. Wu,  X. Xu,  Jun Yang,  W. Zhang,  Yan Zhao

 Please cite Q-Chem as follows:
 Y. Shao et al., Mol. Phys. 113, 184-215 (2015)
 DOI: 10.1080/00268976.2014.952696

 Q-Chem 5.4.1 for Intel X86 EM64T Linux

 Parts of Q-Chem use Armadillo 9.800.1 (Horizon Scraper).
 http://arma.sourceforge.net/

 Q-Chem begins on Mon Mar 20 18:19:34 2023  

 Host: cpu186.baobab
0

     Scratch files written to /scratch/fum/qchem73483//
 Processing $rem in /home/share/wesolowski/qc5.aug2021.FDE/config/preferences:
 Processing $rem in /home/fum/.qchemrc:

 Checking the input file for inconsistencies... 	...done.

--------------------------------------------------------------
User input:
--------------------------------------------------------------
$comment
generated from CCJob.Templates
$end

$rem
sym_ignore = true
method = adc(2)
ee_states = 10
basis = cc-pVDZ
mem_static = 1024
mem_total = 40000
adc_davidson_maxiter = 900
adc_davidson_conv = 6
adc_print = 3
adc_prop_es = true
adc_prop_es2es = true
adc_prop_tpa = true
molden_format = True
state_analysis = true
print_orbitals = 15
gen_scfman = false
fde_export_density = true
fde_details = 3
$end

$molecule
0 1
H -0.05906740472820177 -0.25778362276861444 0.06267106601159529
C -1.0696188292027988 -0.5323194530107392 -0.002439260377908974
H -1.2922991032797588 -1.5549698832316046 -0.07497705928781281
C -2.036459643205001 0.38593552069120796 0.0065331599222532896
H -1.8126003304810339 1.500573830261441 0.08464236321195538
H -3.138679624221062 0.1055982385333327 -0.06325614728872923                     
$end
--------------------------------------------------------------
 ----------------------------------------------------------------
             Standard Nuclear Orientation (Angstroms)
    I     Atom           X                Y                Z
 ----------------------------------------------------------------
    1      H      -0.0590674047    -0.2577836228     0.0626710660
    2      C      -1.0696188292    -0.5323194530    -0.0024392604
    3      H      -1.2922991033    -1.5549698832    -0.0749770593
    4      C      -2.0364596432     0.3859355207     0.0065331599
    5      H      -1.8126003305     1.5005738303     0.0846423632
    6      H      -3.1386796242     0.1055982385    -0.0632561473
 ----------------------------------------------------------------
 Nuclear Repulsion Energy =          33.23215433 hartrees
 There are        8 alpha and        8 beta electrons
 Requested basis set is cc-pVDZ
 There are 24 shells and 48 basis functions
 Total memory of 40000 MB is distributed as follows: 
   MEM_STATIC is set to 1024 MB
   QALLOC/CCMAN JOB total memory use is  38976 MB
 Warning: actual memory use might exceed 40000 MB

 Total QAlloc Memory Limit  40000 MB
 Mega-Array Size      1001 MB
 MEM_STATIC part      1024 MB

                       Distance Matrix (Angstroms)
             H (  1)   C (  2)   H (  3)   C (  4)   H (  5)
   C (  2)  1.049201
   H (  3)  1.795132  1.049124
   C (  4)  2.080290  1.333437  2.080272
   H (  5)  2.483381  2.166162  3.103633  1.139576
   H (  6)  3.103533  2.166022  2.483293  1.139451  1.930367

 A cutoff of  1.0D-11 yielded    300 shell pairs
 There are      1220 function pairs (      1329 Cartesian)
 Smallest overlap matrix eigenvalue = 4.81E-03

 Scale SEOQF with 1.000000e-01/1.000000e-01/1.000000e+00

 Standard Electronic Orientation quadrupole field applied
 Nucleus-field energy     =     0.0000000022 hartrees
 Guess from superposition of atomic densities
 Warning:  Energy on first SCF cycle will be non-variational
 SAD guess density has 16.000000 electrons
 A restricted Hartree-Fock SCF calculation will be
 performed using Pulay DIIS extrapolation
 SCF converges when DIIS error is below 1.0E-08
 using 10 threads for integral computing
 -------------------------------------------------------
 OpenMP Integral computing Module                
 Release: version 1.0, May 2013, Q-Chem Inc. Pittsburgh 
 -------------------------------------------------------
 ---------------------------------------
  Cycle       Energy         DIIS Error
 ---------------------------------------
    1     -78.3990801720      9.97E-02
    2     -78.0115529137      7.24E-03
    3     -78.0324267984      1.99E-03
    4     -78.0340065094      7.42E-04
    5     -78.0342034085      1.33E-04
    6     -78.0342094396      3.46E-05
    7     -78.0342103532      1.43E-05
    8     -78.0342104998      4.37E-06
    9     -78.0342105180      7.52E-07
   10     -78.0342105185      6.66E-08
   11     -78.0342105185      5.60E-09 Convergence criterion met
 ---------------------------------------
 SCF time:  CPU 2.12 s  wall 2.96 s
 SCF   energy in the final basis set = -78.03421052
 Total energy in the final basis set = -78.03421052
Exporting Density Matrix to file 'Densmat_SCF.txt'.
Export successful
================================================================================
|                                                                              |
|                                 A D C  M A N                                 |
|                                                                              |
 ------------------------------------------------------------------------------ 
|                                                                              |
| Components:                                                                  |
|                                                                              |
| - libvmm - 1.3-trunk                                                         |
|   Authors:                                                                   |
|   Evgeny Epifanovsky, Ilya Kaliman                                           |
|                                                                              |
| - libtensor - 2.5-trunk                                                      |
|   Authors:                                                                   |
|   Evgeny Epifanovsky, Michael Wormit, Dmitry Zuev, Sam Manzer,               |
|   Ilya Kaliman                                                               |
|                                                                              |
| - libwfa - 1.1-trunk                                                         |
|   Authors:                                                                   |
|   Felix Plasser, Stefanie Mewes (Baeppler), Benjamin Thomitzni,              |
|   Michael Wormit, Feng Chen, Anna I. Krylov, Pavel Pokhilko                  |
|                                                                              |
| - libadc - 1.1-trunk                                                         |
|   Authors:                                                                   |
|   Michael Wormit, Adrian L. Dempwolff, Philipp H. P. Harbach,                |
|   Caroline Krauter, Dirk Rehn, Matthias Schneider, Jan Wenzel                |
|                                                                              |
| - adcman - 2.6-trunk                                                         |
|   Authors:                                                                   |
|   Michael Wormit, Adrian L. Dempwolff, Philipp H. P. Harbach,                |
|   Caroline Krauter, Daniel Lefrancois, Jan-Michael Mewes, Dirk Rehn,         |
|   Matthias Schneider, Jan Wenzel, Andreas Dreuw                              |
|                                                                              |
| Authors of earlier versions of ADCMAN:                                       |
| Andreas Dreuw, Jan Hendrik Starcke, Dirk Rehn, Michael Wormit                |
|                                                                              |
================================================================================

 Created directory /scratch/fum/qchem73483/plots
  Import QC data ...  CPU 0.00 s  wall 0.00 s

 Alpha MOs, Restricted
 -- Occupied --                  
-11.247 -11.229  -1.031  -0.786  -0.638  -0.582  -0.498  -0.375
  1 A     2 A     3 A     4 A     5 A     6 A     7 A     8 A                  
 -- Virtual --                   
  0.168   0.201   0.231   0.237   0.302   0.463   0.580   0.609
  9 A    10 A    11 A    12 A    13 A    14 A    15 A    16 A                  
  0.688   0.701   0.780   0.807   0.856   0.933   0.968   1.010
 17 A    18 A    19 A    20 A    21 A    22 A    23 A    24 A                  
  1.130   1.236   1.240   1.263   1.292   1.591   1.706   1.769
 25 A    26 A    27 A    28 A    29 A    30 A    31 A    32 A                  
  1.808   1.847   1.861   1.900   1.960   1.976   2.224   2.243
 33 A    34 A    35 A    36 A    37 A    38 A    39 A    40 A                  
  2.360   2.416   2.480   2.608   2.706   2.811   3.133   3.384
 41 A    42 A    43 A    44 A    45 A    46 A    47 A    48 A                  

 Beta MOs, Restricted
 -- Occupied --                  
-11.247 -11.229  -1.031  -0.786  -0.638  -0.582  -0.498  -0.375
  1 A     2 A     3 A     4 A     5 A     6 A     7 A     8 A                  
 -- Virtual --                   
  0.168   0.201   0.231   0.237   0.302   0.463   0.580   0.609
  9 A    10 A    11 A    12 A    13 A    14 A    15 A    16 A                  
  0.688   0.701   0.780   0.807   0.856   0.933   0.968   1.010
 17 A    18 A    19 A    20 A    21 A    22 A    23 A    24 A                  
  1.130   1.236   1.240   1.263   1.292   1.591   1.706   1.769
 25 A    26 A    27 A    28 A    29 A    30 A    31 A    32 A                  
  1.808   1.847   1.861   1.900   1.960   1.976   2.224   2.243
 33 A    34 A    35 A    36 A    37 A    38 A    39 A    40 A                  
  2.360   2.416   2.480   2.608   2.706   2.811   3.133   3.384
 41 A    42 A    43 A    44 A    45 A    46 A    47 A    48 A                  
  Import AO data ...  CPU 0.00 s  wall 0.00 s
  Using point group: C1
  Irreducible representations in point group: A
  Molecular orbitals: 
  Occupied MOs:
  Block   0:   1 (  A) A   2 (  A) A   3 (  A) A   4 (  A) A   5 (  A) A
                  -11.25      -11.23      -1.031     -0.7862     -0.6377
               6 (  A) A   7 (  A) A   8 (  A) A
                 -0.5817     -0.4979     -0.3746
  Block   1:   1 (  A) B   2 (  A) B   3 (  A) B   4 (  A) B   5 (  A) B
                  -11.25      -11.23      -1.031     -0.7862     -0.6377
               6 (  A) B   7 (  A) B   8 (  A) B
                 -0.5817     -0.4979     -0.3746
  Virtual MOs:
  Block   0:   9 (  A) A  10 (  A) A  11 (  A) A  12 (  A) A  13 (  A) A
                  0.1678      0.2015      0.2308      0.2365      0.3024
              14 (  A) A  15 (  A) A  16 (  A) A  17 (  A) A  18 (  A) A
                  0.4627      0.5799      0.6087      0.6883      0.7006
              19 (  A) A  20 (  A) A  21 (  A) A  22 (  A) A
                  0.7801       0.807      0.8561      0.9329
  Block   1:  23 (  A) A  24 (  A) A  25 (  A) A  26 (  A) A  27 (  A) A
                  0.9682        1.01        1.13       1.236        1.24
              28 (  A) A  29 (  A) A  30 (  A) A  31 (  A) A  32 (  A) A
                   1.263       1.292       1.591       1.706       1.769
              33 (  A) A  34 (  A) A  35 (  A) A  36 (  A) A
                   1.808       1.847       1.861         1.9
  Block   2:  37 (  A) A  38 (  A) A  39 (  A) A  40 (  A) A  41 (  A) A
                    1.96       1.976       2.224       2.243        2.36
              42 (  A) A  43 (  A) A  44 (  A) A  45 (  A) A  46 (  A) A
                   2.416        2.48       2.608       2.706       2.811
              47 (  A) A  48 (  A) A
                   3.133       3.384
  Block   3:   9 (  A) B  10 (  A) B  11 (  A) B  12 (  A) B  13 (  A) B
                  0.1678      0.2015      0.2308      0.2365      0.3024
              14 (  A) B  15 (  A) B  16 (  A) B  17 (  A) B  18 (  A) B
                  0.4627      0.5799      0.6087      0.6883      0.7006
              19 (  A) B  20 (  A) B  21 (  A) B  22 (  A) B
                  0.7801       0.807      0.8561      0.9329
  Block   4:  23 (  A) B  24 (  A) B  25 (  A) B  26 (  A) B  27 (  A) B
                  0.9682        1.01        1.13       1.236        1.24
              28 (  A) B  29 (  A) B  30 (  A) B  31 (  A) B  32 (  A) B
                   1.263       1.292       1.591       1.706       1.769
              33 (  A) B  34 (  A) B  35 (  A) B  36 (  A) B
                   1.808       1.847       1.861         1.9
  Block   5:  37 (  A) B  38 (  A) B  39 (  A) B  40 (  A) B  41 (  A) B
                    1.96       1.976       2.224       2.243        2.36
              42 (  A) B  43 (  A) B  44 (  A) B  45 (  A) B  46 (  A) B
                   2.416        2.48       2.608       2.706       2.811
              47 (  A) B  48 (  A) B
                   3.133       3.384
  Import MO data ...  CPU 0.05 s  wall 0.01 s
  Import HF data ...  CPU 0.31 s  wall 0.12 s
  Import 2e integrals ...  CPU 2.03 s  wall 0.33 s

--------------------------------------------------------------------------------
                                   HF Summary                                   
--------------------------------------------------------------------------------
  Energy:                                                  -78.0342105185 a.u.
  Dip. moment [a.u.]:                  [   0.015182,   -0.014460,   -0.000135]
  Total dipole [Debye]:                                               0.053292
  <r^2> [a.u.]:                        [ 175.455921,   35.327611,   11.679240]
  Total <r^2> [a.u.]:                                               222.462773
--------------------------------------------------------------------------------
  HF properties ...  CPU 0.03 s  wall 0.02 s
  MP(1) calculation ...  CPU 0.01 s  wall 0.01 s
  N^6 prerequesite intermediates ...  CPU 0.59 s  wall 0.09 s
  Difference density matrix of state mp2_gs printed to ASCII file 'State_mp2_gs_Difference.txt'
Exporting MP density matrix to file 'Densmat_MP.txt'.
Export successful
  Total density matrix of state mp2_gs printed to ASCII file 'State_mp2_gs_Total.txt'
Exporting MP density matrix to file 'Densmat_MP.txt'.
Export successful

--------------------------------------------------------------------------------
                                 MP(2) Summary                                  
--------------------------------------------------------------------------------
  MP energy contribution:                                   -0.2805071115 a.u.
  Total energy:                                            -78.3147176300 a.u.
  Dip. moment [a.u.]:                  [   0.014729,   -0.014023,   -0.000131]
  Total dipole [Debye]:                                               0.051692
  <r^2> [a.u.]:                        [ 175.492410,   35.362445,   11.506175]
  Total <r^2> [a.u.]:                                               222.361031

  Density matrix analysis:
  ------------------------
  NOs
    Occupation of frontier NOs:
       0.0455   1.9380
    Number of electrons: 16.000000
    Number of unpaired electrons: n_u =  0.40761, n_u,nl =  0.04593
    NO participation ratio (PR_NO): 13.881597
  
  
  Mulliken Population Analysis
  Atom      Charge (e)              h+              e-           Del q
  --------------------------------------------------------------------
   1 H        0.042425        0.014724       -0.011002        0.003722
   2 C       -0.051545        0.087879       -0.096965       -0.009086
   3 H        0.042405        0.014725       -0.011001        0.003723
   4 C       -0.162231        0.101494       -0.103053       -0.001559
   5 H        0.064483        0.013247       -0.011648        0.001599
   6 H        0.064462        0.013248       -0.011648        0.001601
  --------------------------------------------------------------------
  Sum:        0.000000        0.245317       -0.245317        0.000000
  
  Multipole moment analysis of the density matrix
    Molecular charge:                      0.000000
    Number of electrons:                   16.000000
      Center of electronic charge [Ang]: [ -1.559182,  -0.067342,   0.002107]
    Total nuclear charge:                  16.000000
      Center of nuclear charge [Ang]:    [ -1.558695,  -0.067805,   0.002103]
    Dipole moment [D]:                     0.051692
      Cartesian components [D]:          [  0.037438,  -0.035643,  -0.000332]
    RMS size of the density [Ang]:         1.206701
      Cartesian components [Ang]:        [  0.800238,   0.783818,   0.448747]
  
  Exciton analysis of the difference density matrix
    <r_h> [Ang]:                  [ -1.577884,  -0.049555,   0.002281]
    <r_e> [Ang]:                  [ -1.576908,  -0.050499,   0.002271]
    |<r_e - r_h>| [Ang]:            0.001358
    Hole size [Ang]:                1.402900
      Cartesian components [Ang]: [  0.853918,   0.841213,   0.728911]
    Electron size [Ang]:            1.361975
      Cartesian components [Ang]: [  0.879720,   0.864470,   0.577718]
--------------------------------------------------------------------------------
  MP(2) calculation ...  CPU 0.33 s  wall 0.31 s
  Start ADC(2)-s ...  CPU 0.02 s  wall 0.01 s
  ADC(2) intermediates ...  CPU 0.04 s  wall 0.01 s
  Starting Davidson for singlet states of irrep A ... 
--------------------------------------------------------------------------------
   It NVec Conv  Avg. Norm  Max. Norm  Conv. states           Remark
--------------------------------------------------------------------------------
        10    0  1.328e-01  4.685e-01  0.4108 n n n n n n n n Guess.
    1   20    0  2.374e-02  1.211e-01  0.3262 n n n n n n n n 
    2   30    0  6.034e-03  2.758e-02  0.3214 n n n n n n n n 
    3   40    0  2.342e-03  1.586e-02  0.3210 n n n n n n n n 
    4   50    0  8.880e-04  7.473e-03  0.3210 n n n n n n n n 
    5   20    0  4.604e-04  3.383e-03  0.3210 n n n n n n n n Subspace collapsed.
    6   30    0  3.171e-04  2.684e-03  0.3210 n n n n n n n n 
    7   40    0  2.716e-04  2.562e-03  0.3210 n n n n n n n n 
    8   50    0  1.176e-04  9.947e-04  0.3210 n n n n n n n n 
    9   20    1  9.199e-05  8.624e-04  0.3210 n n n y n n n n Subspace collapsed.
   10   30    2  8.564e-05  7.872e-04  0.3210 n n y y n n n n 
   11   40    5  4.670e-05  4.034e-04  0.3210 n y y y y y n n 
   12   50    6  1.995e-05  1.648e-04  0.3210 y y y y y y n n 
   13   20    6  9.780e-06  8.043e-05  0.3210 y y y y y y n n Subspace collapsed.
   14   30    6  7.608e-06  6.482e-05  0.3210 y y y y y y n n 
   15   40    7  4.236e-06  3.794e-05  0.3210 y y y y y y n y 
   16   50    7  2.830e-06  2.562e-05  0.3210 y y y y y y n y 
   17   20    8  1.636e-06  1.539e-05  0.3210 y y y y y y n y Subspace collapsed.
   18   30    7  1.539e-06  1.413e-05  0.3210 y y y y y y n y 
   19   40    7  1.119e-06  1.083e-05  0.3210 y y y y y y n y 
   20   50    8  9.421e-07  9.262e-06  0.3210 y y y y y y n y 
   21   20    9  5.280e-07  5.221e-06  0.3210 y y y y y y y y Subspace collapsed.
   22   30    9  4.113e-07  4.070e-06  0.3210 y y y y y y y y 
   23   39    9  2.633e-07  2.608e-06  0.3210 y y y y y y y y 
   24   47    9  2.302e-07  2.288e-06  0.3210 y y y y y y y y 
   25   50    9  2.283e-07  2.270e-06  0.3210 y y y y y y y y 
   26   15    9  1.499e-07  1.490e-06  0.3210 y y y y y y y y Subspace collapsed.
   27   20    9  1.836e-07  1.827e-06  0.3210 y y y y y y y y 
   28   24    9  1.593e-07  1.586e-06  0.3210 y y y y y y y y 
   29   28    9  1.806e-07  1.802e-06  0.3210 y y y y y y y y 
   30   32    9  1.236e-07  1.234e-06  0.3210 y y y y y y y y 
   31   36   10  9.670e-08  9.654e-07  0.3210 y y y y y y y y Converged.
--------------------------------------------------------------------------------
  Davidson Summary: 
 ------------------------------------------------------------
  State  0: excitation energy =   0.3210 a.u.   (converged)
  State  1: excitation energy =   0.3282 a.u.   (converged)
  State  2: excitation energy =   0.3344 a.u.   (converged)
  State  3: excitation energy =   0.3572 a.u.   (converged)
  State  4: excitation energy =   0.3738 a.u.   (converged)
  State  5: excitation energy =   0.3865 a.u.   (converged)
  State  6: excitation energy =   0.4179 a.u.   (converged)
  State  7: excitation energy =   0.4444 a.u.   (converged)
  State  8: excitation energy =   0.4540 a.u.   (converged)
  State  9: excitation energy =   0.4576 a.u.   (converged)
 ------------------------------------------------------------

  Singlet states of irrep A ...  CPU 206.79 s  wall 64.18 s
  TDMs ...  CPU 2.64 s  wall 0.94 s
  SDMs ...  CPU 5.28 s  wall 1.74 s
  Starting TPA DIIS iterations ... 
------------------------------------ 
   It     Res. Norm  Remark
------------------------------------
                       Guess.
    1     4.395e+00  
    2     5.832e+00  
    3     1.087e+00  
    4     2.649e-01  
    5     6.515e-02  
    6     2.816e-02  
    7     8.513e-03  
    8     1.607e-03  
    9     6.172e-04  
   10     9.865e-05  
   11     3.549e-05  
   12     5.825e-06  
   13     2.073e-06  
   14     6.043e-07  Converged.
   ... Converged in 14 steps (norm: 6.04318e-07)
------------------------------------
  Starting TPA DIIS iterations ... 
------------------------------------ 
   It     Res. Norm  Remark
------------------------------------
                       Guess.
    1     4.186e+00  
    2     5.544e+00  
    3     1.038e+00  
    4     2.627e-01  
    5     6.483e-02  
    6     2.817e-02  
    7     8.374e-03  
    8     1.631e-03  
    9     6.269e-04  
   10     9.797e-05  
   11     3.577e-05  
   12     5.828e-06  
   13     2.140e-06  
   14     6.078e-07  Converged.
   ... Converged in 14 steps (norm: 6.07812e-07)
------------------------------------
  Starting TPA DIIS iterations ... 
------------------------------------ 
   It     Res. Norm  Remark
------------------------------------
                       Guess.
    1     6.863e-01  
    2     4.812e-01  
    3     1.693e-01  
    4     6.361e-02  
    5     1.919e-02  
    6     7.143e-03  
    7     1.325e-03  
    8     4.820e-04  
    9     1.885e-04  
   10     3.635e-05  
   11     1.414e-05  
   12     4.857e-06  
   13     2.394e-06  
   14     8.742e-07  Converged.
   ... Converged in 14 steps (norm: 8.74236e-07)
------------------------------------
  Starting TPA DIIS iterations ... 
------------------------------------ 
   It     Res. Norm  Remark
------------------------------------
                       Guess.
    1     4.570e+00  
    2     6.145e+00  
    3     1.137e+00  
    4     2.828e-01  
    5     7.018e-02  
    6     3.052e-02  
    7     9.215e-03  
    8     1.740e-03  
    9     6.717e-04  
   10     1.077e-04  
   11     3.901e-05  
   12     6.447e-06  
   13     2.306e-06  
   14     6.734e-07  Converged.
   ... Converged in 14 steps (norm: 6.73355e-07)
------------------------------------
  Starting TPA DIIS iterations ... 
------------------------------------ 
   It     Res. Norm  Remark
------------------------------------
                       Guess.
    1     4.352e+00  
    2     5.841e+00  
    3     1.085e+00  
    4     2.803e-01  
    5     6.983e-02  
    6     3.054e-02  
    7     9.066e-03  
    8     1.768e-03  
    9     6.825e-04  
   10     1.070e-04  
   11     3.931e-05  
   12     6.451e-06  
   13     2.383e-06  
   14     6.778e-07  Converged.
   ... Converged in 14 steps (norm: 6.77788e-07)
------------------------------------
  Starting TPA DIIS iterations ... 
------------------------------------ 
   It     Res. Norm  Remark
------------------------------------
                       Guess.
    1     6.938e-01  
    2     4.918e-01  
    3     1.752e-01  
    4     6.862e-02  
    5     2.012e-02  
    6     7.530e-03  
    7     1.424e-03  
    8     5.167e-04  
    9     2.040e-04  
   10     4.013e-05  
   11     1.569e-05  
   12     5.374e-06  
   13     2.738e-06  
   14     1.011e-06  
   15     3.290e-07  Converged.
   ... Converged in 15 steps (norm: 3.28962e-07)
------------------------------------
  Starting TPA DIIS iterations ... 
------------------------------------ 
   It     Res. Norm  Remark
------------------------------------
                       Guess.
    1     4.727e+00  
    2     6.429e+00  
    3     1.182e+00  
    4     2.993e-01  
    5     7.480e-02  
    6     3.271e-02  
    7     9.862e-03  
    8     1.864e-03  
    9     7.221e-04  
   10     1.160e-04  
   11     4.230e-05  
   12     7.031e-06  
   13     2.527e-06  
   14     7.387e-07  Converged.
   ... Converged in 14 steps (norm: 7.3867e-07)
------------------------------------
  Starting TPA DIIS iterations ... 
------------------------------------ 
   It     Res. Norm  Remark
------------------------------------
                       Guess.
    1     4.501e+00  
    2     6.111e+00  
    3     1.128e+00  
    4     2.965e-01  
    5     7.444e-02  
    6     3.274e-02  
    7     9.703e-03  
    8     1.894e-03  
    9     7.340e-04  
   10     1.153e-04  
   11     4.262e-05  
   12     7.035e-06  
   13     2.612e-06  
   14     7.441e-07  Converged.
   ... Converged in 14 steps (norm: 7.44096e-07)
------------------------------------
  Starting TPA DIIS iterations ... 
------------------------------------ 
   It     Res. Norm  Remark
------------------------------------
                       Guess.
    1     7.003e-01  
    2     5.011e-01  
    3     1.805e-01  
    4     7.328e-02  
    5     2.095e-02  
    6     7.882e-03  
    7     1.515e-03  
    8     5.483e-04  
    9     2.181e-04  
   10     4.371e-05  
   11     1.715e-05  
   12     5.858e-06  
   13     3.072e-06  
   14     1.147e-06  
   15     3.726e-07  Converged.
   ... Converged in 15 steps (norm: 3.72593e-07)
------------------------------------
  Starting TPA DIIS iterations ... 
------------------------------------ 
   It     Res. Norm  Remark
------------------------------------
                       Guess.
    1     5.397e+00  
    2     7.673e+00  
    3     1.371e+00  
    4     3.741e-01  
    5     9.571e-02  
    6     4.271e-02  
    7     1.280e-02  
    8     2.423e-03  
    9     9.540e-04  
   10     1.544e-04  
   11     5.773e-05  
   12     9.777e-06  
   13     3.592e-06  
   14     1.055e-06  
   15     3.262e-07  Converged.
   ... Converged in 15 steps (norm: 3.26219e-07)
------------------------------------
  Starting TPA DIIS iterations ... 
------------------------------------ 
   It     Res. Norm  Remark
------------------------------------
                       Guess.
    1     5.136e+00  
    2     7.292e+00  
    3     1.308e+00  
    4     3.699e-01  
    5     9.528e-02  
    6     4.280e-02  
    7     1.260e-02  
    8     2.468e-03  
    9     9.707e-04  
   10     1.536e-04  
   11     5.813e-05  
   12     9.784e-06  
   13     3.724e-06  
   14     1.066e-06  
   15     3.346e-07  Converged.
   ... Converged in 15 steps (norm: 3.34605e-07)
------------------------------------
  Starting TPA DIIS iterations ... 
------------------------------------ 
   It     Res. Norm  Remark
------------------------------------
                       Guess.
    1     7.256e-01  
    2     5.388e-01  
    3     2.025e-01  
    4     9.495e-02  
    5     2.442e-02  
    6     9.438e-03  
    7     1.927e-03  
    8     6.873e-04  
    9     2.823e-04  
   10     6.094e-05  
   11     2.420e-05  
   12     8.145e-06  
   13     4.776e-06  
   14     1.876e-06  
   15     5.741e-07  Converged.
   ... Converged in 15 steps (norm: 5.74129e-07)
------------------------------------
  Starting TPA DIIS iterations ... 
------------------------------------ 
   It     Res. Norm  Remark
------------------------------------
                       Guess.
    1     5.986e+00  
    2     8.806e+00  
    3     1.537e+00  
    4     4.452e-01  
    5     1.156e-01  
    6     5.234e-02  
    7     1.559e-02  
    8     2.956e-03  
    9     1.178e-03  
   10     1.916e-04  
   11     7.300e-05  
   12     1.250e-05  
   13     4.687e-06  
   14     1.385e-06  
   15     4.358e-07  Converged.
   ... Converged in 15 steps (norm: 4.35762e-07)
------------------------------------
  Starting TPA DIIS iterations ... 
------------------------------------ 
   It     Res. Norm  Remark
------------------------------------
                       Guess.
    1     5.695e+00  
    2     8.368e+00  
    3     1.466e+00  
    4     4.395e-01  
    5     1.151e-01  
    6     5.251e-02  
    7     1.535e-02  
    8     3.017e-03  
    9     1.200e-03  
   10     1.907e-04  
   11     7.346e-05  
   12     1.251e-05  
   13     4.867e-06  
   14     1.405e-06  
   15     4.480e-07  Converged.
   ... Converged in 15 steps (norm: 4.47987e-07)
------------------------------------
  Starting TPA DIIS iterations ... 
------------------------------------ 
   It     Res. Norm  Remark
------------------------------------
                       Guess.
    1     7.451e-01  
    2     5.697e-01  
    3     2.211e-01  
    4     1.161e-01  
    5     2.746e-02  
    6     1.087e-02  
    7     2.319e-03  
    8     8.138e-04  
    9     3.431e-04  
   10     7.858e-05  
   11     3.144e-05  
   12     1.043e-05  
   13     6.655e-06  
   14     2.695e-06  
   15     7.564e-07  Converged.
   ... Converged in 15 steps (norm: 7.56422e-07)
------------------------------------
  Starting TPA DIIS iterations ... 
------------------------------------ 
   It     Res. Norm  Remark
------------------------------------
                       Guess.
    1     6.513e+00  
    2     9.849e+00  
    3     1.684e+00  
    4     5.127e-01  
    5     1.344e-01  
    6     6.157e-02  
    7     1.824e-02  
    8     3.464e-03  
    9     1.394e-03  
   10     2.273e-04  
   11     8.783e-05  
   12     1.516e-05  
   13     5.780e-06  
   14     1.725e-06  
   15     5.481e-07  Converged.
   ... Converged in 15 steps (norm: 5.48109e-07)
------------------------------------
  Starting TPA DIIS iterations ... 
------------------------------------ 
   It     Res. Norm  Remark
------------------------------------
                       Guess.
    1     6.195e+00  
    2     9.358e+00  
    3     1.606e+00  
    4     5.054e-01  
    5     1.338e-01  
    6     6.182e-02  
    7     1.796e-02  
    8     3.540e-03  
    9     1.420e-03  
   10     2.263e-04  
   11     8.834e-05  
   12     1.518e-05  
   13     6.008e-06  
   14     1.754e-06  
   15     5.644e-07  Converged.
   ... Converged in 15 steps (norm: 5.64426e-07)
------------------------------------
  Starting TPA DIIS iterations ... 
------------------------------------ 
   It     Res. Norm  Remark
------------------------------------
                       Guess.
    1     7.609e-01  
    2     5.957e-01  
    3     2.373e-01  
    4     1.365e-01  
    5     3.022e-02  
    6     1.221e-02  
    7     2.693e-03  
    8     9.293e-04  
    9     4.006e-04  
   10     9.611e-05  
   11     3.871e-05  
   12     1.267e-05  
   13     8.649e-06  
   14     3.548e-06  
   15     9.236e-07  Converged.
   ... Converged in 15 steps (norm: 9.23639e-07)
------------------------------------
  Starting TPA DIIS iterations ... 
------------------------------------ 
   It     Res. Norm  Remark
------------------------------------
                       Guess.
    1     8.184e+00  
    2     1.332e+01  
    3     2.144e+00  
    4     7.472e-01  
    5     1.998e-01  
    6     9.431e-02  
    7     2.746e-02  
    8     5.245e-03  
    9     2.164e-03  
   10     3.540e-04  
   11     1.404e-04  
   12     2.476e-05  
   13     9.776e-06  
   14     3.099e-06  
   15     9.976e-07  Converged.
   ... Converged in 15 steps (norm: 9.97624e-07)
------------------------------------
  Starting TPA DIIS iterations ... 
------------------------------------ 
   It     Res. Norm  Remark
------------------------------------
                       Guess.
    1     7.781e+00  
    2     1.265e+01  
    3     2.043e+00  
    4     7.340e-01  
    5     1.990e-01  
    6     9.487e-02  
    7     2.707e-02  
    8     5.378e-03  
    9     2.206e-03  
   10     3.528e-04  
   11     1.410e-04  
   12     2.482e-05  
   13     1.019e-05  
   14     3.171e-06  
   15     1.031e-06  
   16     3.358e-07  Converged.
   ... Converged in 16 steps (norm: 3.35813e-07)
------------------------------------
  Starting TPA DIIS iterations ... 
------------------------------------ 
   It     Res. Norm  Remark
------------------------------------
                       Guess.
    1     8.029e-01  
    2     6.709e-01  
    3     2.859e-01  
    4     2.075e-01  
    5     3.938e-02  
    6     1.664e-02  
    7     4.003e-03  
    8     1.304e-03  
    9     6.012e-04  
   10     1.603e-04  
   11     6.619e-05  
   12     2.055e-05  
   13     1.677e-05  
   14     6.841e-06  
   15     1.610e-06  
   16     8.078e-07  Converged.
   ... Converged in 16 steps (norm: 8.07785e-07)
------------------------------------
  Starting TPA DIIS iterations ... 
------------------------------------ 
   It     Res. Norm  Remark
------------------------------------
                       Guess.
    1     1.021e+01  
    2     1.782e+01  
    3     2.687e+00  
    4     1.064e+00  
    5     2.889e-01  
    6     1.401e-01  
    7     4.006e-02  
    8     7.702e-03  
    9     3.246e-03  
   10     5.304e-04  
   11     2.108e-04  
   12     3.875e-05  
   13     1.528e-05  
   14     5.346e-06  
   15     1.809e-06  
   16     5.634e-07  Converged.
   ... Converged in 16 steps (norm: 5.63358e-07)
------------------------------------
  Starting TPA DIIS iterations ... 
------------------------------------ 
   It     Res. Norm  Remark
------------------------------------
                       Guess.
    1     9.702e+00  
    2     1.693e+01  
    3     2.558e+00  
    4     1.042e+00  
    5     2.878e-01  
    6     1.411e-01  
    7     3.951e-02  
    8     7.920e-03  
    9     3.309e-03  
   10     5.292e-04  
   11     2.121e-04  
   12     3.891e-05  
   13     1.596e-05  
   14     5.495e-06  
   15     1.867e-06  
   16     5.999e-07  Converged.
   ... Converged in 16 steps (norm: 5.99921e-07)
------------------------------------
  Starting TPA DIIS iterations ... 
------------------------------------ 
   It     Res. Norm  Remark
------------------------------------
                       Guess.
    1     8.427e-01  
    2     7.511e-01  
    3     3.405e-01  
    4     2.972e-01  
    5     5.129e-02  
    6     2.220e-02  
    7     5.800e-03  
    8     1.772e-03  
    9     8.761e-04  
   10     2.482e-04  
   11     1.067e-04  
   12     3.026e-05  
   13     2.807e-05  
   14     1.182e-05  
   15     3.018e-06  
   16     1.600e-06  
   17     5.028e-07  Converged.
   ... Converged in 17 steps (norm: 5.02806e-07)
------------------------------------
  Starting TPA DIIS iterations ... 
------------------------------------ 
   It     Res. Norm  Remark
------------------------------------
                       Guess.
    1     1.114e+01  
    2     2.000e+01  
    3     2.933e+00  
    4     1.219e+00  
    5     3.331e-01  
    6     1.631e-01  
    7     4.631e-02  
    8     8.933e-03  
    9     3.794e-03  
   10     6.189e-04  
   11     2.451e-04  
   12     4.620e-05  
   13     1.805e-05  
   14     6.563e-06  
   15     2.325e-06  
   16     7.071e-07  Converged.
   ... Converged in 16 steps (norm: 7.07109e-07)
------------------------------------
  Starting TPA DIIS iterations ... 
------------------------------------ 
   It     Res. Norm  Remark
------------------------------------
                       Guess.
    1     1.059e+01  
    2     1.900e+01  
    3     2.792e+00  
    4     1.192e+00  
    5     3.319e-01  
    6     1.644e-01  
    7     4.570e-02  
    8     9.195e-03  
    9     3.868e-03  
   10     6.178e-04  
   11     2.467e-04  
   12     4.642e-05  
   13     1.885e-05  
   14     6.757e-06  
   15     2.391e-06  
   16     7.513e-07  Converged.
   ... Converged in 16 steps (norm: 7.51295e-07)
------------------------------------
  Starting TPA DIIS iterations ... 
------------------------------------ 
   It     Res. Norm  Remark
------------------------------------
                       Guess.
    1     8.584e-01  
    2     7.852e-01  
    3     3.644e-01  
    4     3.369e-01  
    5     5.702e-02  
    6     2.473e-02  
    7     6.690e-03  
    8     1.996e-03  
    9     1.013e-03  
   10     2.899e-04  
   11     1.273e-04  
   12     3.425e-05  
   13     3.258e-05  
   14     1.446e-05  
   15     3.890e-06  
   16     2.085e-06  
   17     6.403e-07  Converged.
   ... Converged in 17 steps (norm: 6.40317e-07)
------------------------------------
  Starting TPA DIIS iterations ... 
------------------------------------ 
   It     Res. Norm  Remark
------------------------------------
                       Guess.
    1     1.153e+01  
    2     2.093e+01  
    3     3.035e+00  
    4     1.286e+00  
    5     3.521e-01  
    6     1.731e-01  
    7     4.901e-02  
    8     9.465e-03  
    9     4.032e-03  
   10     6.571e-04  
   11     2.598e-04  
   12     4.953e-05  
   13     1.927e-05  
   14     7.101e-06  
   15     2.570e-06  
   16     7.731e-07  Converged.
   ... Converged in 16 steps (norm: 7.73109e-07)
------------------------------------
  Starting TPA DIIS iterations ... 
------------------------------------ 
   It     Res. Norm  Remark
------------------------------------
                       Guess.
    1     1.096e+01  
    2     1.988e+01  
    3     2.889e+00  
    4     1.256e+00  
    5     3.509e-01  
    6     1.746e-01  
    7     4.836e-02  
    8     9.746e-03  
    9     4.109e-03  
   10     6.560e-04  
   11     2.616e-04  
   12     4.976e-05  
   13     2.012e-05  
   14     7.315e-06  
   15     2.638e-06  
   16     8.204e-07  Converged.
   ... Converged in 16 steps (norm: 8.20374e-07)
------------------------------------
  Starting TPA DIIS iterations ... 
------------------------------------ 
   It     Res. Norm  Remark
------------------------------------
                       Guess.
    1     8.645e-01  
    2     7.991e-01  
    3     3.742e-01  
    4     3.529e-01  
    5     5.945e-02  
    6     2.578e-02  
    7     7.072e-03  
    8     2.091e-03  
    9     1.073e-03  
   10     3.072e-04  
   11     1.363e-04  
   12     3.577e-05  
   13     3.417e-05  
   14     1.562e-05  
   15     4.294e-06  
   16     2.315e-06  
   17     7.047e-07  Converged.
   ... Converged in 17 steps (norm: 7.0473e-07)
------------------------------------
  Two-photon absorbption ...  CPU 172.95 s  wall 46.09 s
  Transition density matrix of state singlet_A_1 printed to ASCII file 'State_singlet_A_1_Transition.txt'
  Transition density matrix of state singlet_A_2 printed to ASCII file 'State_singlet_A_2_Transition.txt'
  Transition density matrix of state singlet_A_3 printed to ASCII file 'State_singlet_A_3_Transition.txt'
  Transition density matrix of state singlet_A_4 printed to ASCII file 'State_singlet_A_4_Transition.txt'
  Transition density matrix of state singlet_A_5 printed to ASCII file 'State_singlet_A_5_Transition.txt'
  Transition density matrix of state singlet_A_6 printed to ASCII file 'State_singlet_A_6_Transition.txt'
  Transition density matrix of state singlet_A_7 printed to ASCII file 'State_singlet_A_7_Transition.txt'
  Transition density matrix of state singlet_A_8 printed to ASCII file 'State_singlet_A_8_Transition.txt'
  Transition density matrix of state singlet_A_9 printed to ASCII file 'State_singlet_A_9_Transition.txt'
  Transition density matrix of state singlet_A_10 printed to ASCII file 'State_singlet_A_10_Transition.txt'
  Transition properties ...  CPU 0.35 s  wall 0.52 s
  Difference density matrix of state singlet_A_1 printed to ASCII file 'State_singlet_A_1_Difference.txt'
  Total density matrix of state singlet_A_1 printed to ASCII file 'State_singlet_A_1_Total.txt'
  Difference density matrix of state singlet_A_2 printed to ASCII file 'State_singlet_A_2_Difference.txt'
  Total density matrix of state singlet_A_2 printed to ASCII file 'State_singlet_A_2_Total.txt'
  Difference density matrix of state singlet_A_3 printed to ASCII file 'State_singlet_A_3_Difference.txt'
  Total density matrix of state singlet_A_3 printed to ASCII file 'State_singlet_A_3_Total.txt'
  Difference density matrix of state singlet_A_4 printed to ASCII file 'State_singlet_A_4_Difference.txt'
  Total density matrix of state singlet_A_4 printed to ASCII file 'State_singlet_A_4_Total.txt'
  Difference density matrix of state singlet_A_5 printed to ASCII file 'State_singlet_A_5_Difference.txt'
  Total density matrix of state singlet_A_5 printed to ASCII file 'State_singlet_A_5_Total.txt'
  Difference density matrix of state singlet_A_6 printed to ASCII file 'State_singlet_A_6_Difference.txt'
  Total density matrix of state singlet_A_6 printed to ASCII file 'State_singlet_A_6_Total.txt'
  Difference density matrix of state singlet_A_7 printed to ASCII file 'State_singlet_A_7_Difference.txt'
  Total density matrix of state singlet_A_7 printed to ASCII file 'State_singlet_A_7_Total.txt'
  Difference density matrix of state singlet_A_8 printed to ASCII file 'State_singlet_A_8_Difference.txt'
  Total density matrix of state singlet_A_8 printed to ASCII file 'State_singlet_A_8_Total.txt'
  Difference density matrix of state singlet_A_9 printed to ASCII file 'State_singlet_A_9_Difference.txt'
  Total density matrix of state singlet_A_9 printed to ASCII file 'State_singlet_A_9_Total.txt'
  Difference density matrix of state singlet_A_10 printed to ASCII file 'State_singlet_A_10_Difference.txt'
  Total density matrix of state singlet_A_10 printed to ASCII file 'State_singlet_A_10_Total.txt'
  Properties ...  CPU 0.79 s  wall 1.05 s
  ISR TDMS ...  CPU 30.89 s  wall 9.82 s
  ISR transition properties ...  CPU 0.52 s  wall 0.26 s
  Sum-over-states TPA ...  CPU 0.00 s  wall 0.00 s

--------------------------------------------------------------------------------
                   State-averaged natural transition orbitals
--------------------------------------------------------------------------------
--------------------------------------------------------------------------------
  SA-NTO decomposition ...  CPU 0.02 s  wall 0.08 s

--------------------------------------------------------------------------------
                             Excited State Summary
--------------------------------------------------------------------------------
--------------------------------------------------------------------------------

  Excited state 1 (singlet, A)                                     [converged]
  ----------------------------------------------------------------------------
  Term symbol:  2 (1) A                                     R^2 =  4.92492e-13

  Total energy:                                            -77.9937595965 a.u.
  Excitation energy:                                               8.733712 eV

  Osc. strength:                                                      0.446584
  Trans. dip. moment [a.u.]:           [   1.047505,   -0.994863,   -0.009720]
  <i|r^2|0> [a.u.]:                    [   6.212174,   -0.209642,    0.004248]
  Two-photon absorption cross-section (SoS) [a.u.]:                   0.653732
  Two-photon absorption matrix (SoS) [a.u.]:
                                       |    0.079290    0.229567    0.027205 |
                                       |    0.229567    0.102518    0.029318 |
                                       |    0.027205    0.029318   -0.194810 |
  Two-photon absorption cross-section [a.u.]:                         0.493861
  Two-photon absorption matrix [a.u.]:
                                       |   -0.022672    0.140802    0.017880 |
                                       |    0.140802   -0.008314    0.019581 |
                                       |    0.017880    0.019581   -0.222773 |

  Dip. moment [a.u.]:                  [   0.014224,   -0.013538,   -0.000125]
  Total dipole [Debye]:                                               0.049912
  <r^2> [a.u.]:                        [ 176.235985,   36.048809,   11.916690]
  Total <r^2> [a.u.]:                                               224.201484

  V1^2 = 0.9713, V2^2 = 0.0287

  Important amplitudes:
      occ i     occ j     vir a      vir b          v   
    -----------------------------------------------------
     8 (A) A              9 (A) A                 0.6808
     6 (A) A             14 (A) A                -0.0615
     4 (A) A             10 (A) A                 0.0613
     7 (A) A             16 (A) A                 0.0567
     5 (A) A             13 (A) A                 0.0526
     6 (A) A             23 (A) A                -0.0479
     8 (A) A             20 (A) A                -0.0349
     6 (A) A             19 (A) A                 0.0289
     3 (A) A             12 (A) A                -0.0283
     5 (A) A             22 (A) A                 0.0210
     7 (A) A             11 (A) A                 0.0194
     4 (A) A             24 (A) A                 0.0187
     3 (A) A             26 (A) A                -0.0186
     8 (A) A   8 (A) B   17 (A) A   20 (A) B      0.0184
     8 (A) A   8 (A) B    9 (A) A   28 (A) B     -0.0168
     6 (A) A             26 (A) A                -0.0163
     7 (A) A             21 (A) A                 0.0161
     3 (A) A             14 (A) A                -0.0142
     3 (A) A   4 (A) B    9 (A) A    9 (A) B     -0.0129
     6 (A) A             12 (A) A                 0.0127
     3 (A) A             19 (A) A                 0.0115
     8 (A) A   8 (A) B   18 (A) A   19 (A) B     -0.0095
     7 (A) A             36 (A) A                 0.0083
     3 (A) A             23 (A) A                -0.0083
     6 (A) A             24 (A) A                 0.0082
     6 (A) A             10 (A) A                -0.0080
     6 (A) A             18 (A) A                -0.0079
     8 (A) A   8 (A) B   25 (A) A   29 (A) B     -0.0076
     5 (A) A             16 (A) A                -0.0074
     7 (A) A             32 (A) A                 0.0073
     6 (A) A             40 (A) A                -0.0065
     3 (A) A   6 (A) B    9 (A) A   28 (A) B     -0.0064
     7 (A) A             31 (A) A                 0.0063
     5 (A) A   8 (A) B   11 (A) A    9 (A) B      0.0061
     8 (A) A   8 (A) B   19 (A) A   19 (A) B     -0.0061
     5 (A) A             27 (A) A                 0.0060
     7 (A) A   8 (A) B   13 (A) A   20 (A) B      0.0059
     5 (A) A   8 (A) B   11 (A) A   20 (A) B      0.0059
     5 (A) A   8 (A) B   16 (A) A    9 (A) B     -0.0058
     5 (A) A   7 (A) B    9 (A) A    9 (A) B     -0.0058
    -----------------------------------------------------

  Density matrix analysis:
  ------------------------
  NOs
    Occupation of frontier NOs:
       0.9488   1.0222
    Number of electrons: 16.000000
    Number of unpaired electrons: n_u =  2.31693, n_u,nl =  2.03343
    NO participation ratio (PR_NO):  2.875686
  
  
  Mulliken Population Analysis
  Atom      Charge (e)              h+              e-           Del q
  --------------------------------------------------------------------
   1 H        0.050198        0.020440       -0.012667        0.007773
   2 C       -0.065373        0.490302       -0.504130       -0.013828
   3 H        0.050179        0.020440       -0.012667        0.007773
   4 C       -0.180272        0.490871       -0.508913       -0.018042
   5 H        0.072646        0.020408       -0.012245        0.008163
   6 H        0.072623        0.020405       -0.012245        0.008160
  --------------------------------------------------------------------
  Sum:        0.000000        1.062866       -1.062866        0.000000
  
  Multipole moment analysis of the density matrix
    Molecular charge:                      0.000000
    Number of electrons:                   16.000000
      Center of electronic charge [Ang]: [ -1.559165,  -0.067358,   0.002107]
    Total nuclear charge:                  16.000000
      Center of nuclear charge [Ang]:    [ -1.558695,  -0.067805,   0.002103]
    Dipole moment [D]:                     0.049912
      Cartesian components [D]:          [  0.036153,  -0.034410,  -0.000318]
    RMS size of the density [Ang]:         1.219995
      Cartesian components [Ang]:        [  0.808361,   0.791443,   0.456682]
  
  Exciton analysis of the difference density matrix
    <r_h> [Ang]:                  [ -1.555399,  -0.070945,   0.002069]
    <r_e> [Ang]:                  [ -1.555147,  -0.071186,   0.002066]
    |<r_e - r_h>| [Ang]:            0.000349
    Hole size [Ang]:                1.287141
      Cartesian components [Ang]: [  0.730140,   0.714744,   0.782796]
    Electron size [Ang]:            1.463686
      Cartesian components [Ang]: [  0.854279,   0.831660,   0.849073]

  Transition density matrix analysis:
  -----------------------------------
  
  CT numbers (Mulliken)
    omega =     0.9531
    <Phe> =    -0.1602
  
  Exciton analysis of the transition density matrix
    Trans. dipole moment [D]:             1.836011
      Cartesian components [D]:         [  1.331246,  -1.264344,  -0.012353]
    <r_h> [Ang]:                        [ -1.552286,  -0.073906,   0.002043]
    <r_e> [Ang]:                        [ -1.555701,  -0.070659,   0.002069]
    |<r_e - r_h>| [Ang]:                  0.004712
    Hole size [Ang]:                      1.214256
      Cartesian components [Ang]:       [  0.649922,   0.637057,   0.803853]
    Electron size [Ang]:                  1.486503
      Cartesian components [Ang]:       [  0.864717,   0.840506,   0.869198]
    RMS electron-hole separation [Ang]:   1.936748
      Cartesian components [Ang]:       [  1.106570,   1.076085,   1.169846]
    Covariance(r_h, r_e) [Ang^2]:        -0.033431
    Correlation coefficient:             -0.018521
    Center-of-mass size [Ang]:            0.950953
      Cartesian components [Ang]:       [  0.528153,   0.516391,   0.598922]

  Decomposition into state-averaged NTOs
    H- 0 -> L+ 0: -0.6696 ( 89.7%)
    H- 2 -> L+ 5:  0.0830 (  1.4%)
                   omega =  95.3%
  ----------------------------------------------------------------------------


  Excited state 2 (singlet, A)                                     [converged]
  ----------------------------------------------------------------------------
  Term symbol:  3 (1) A                                     R^2 =  7.76012e-13

  Total energy:                                            -77.9864916525 a.u.
  Excitation energy:                                               8.931483 eV

  Osc. strength:                                                      0.000000
  Trans. dip. moment [a.u.]:           [  -0.000712,    0.000668,   -0.000211]
  <i|r^2|0> [a.u.]:                    [  -0.069844,   -0.086256,    0.151999]
  Two-photon absorption cross-section (SoS) [a.u.]:                   4.487393
  Two-photon absorption matrix (SoS) [a.u.]:
                                       |   -0.049672   -0.057037    0.510139 |
                                       |   -0.057037   -0.065012    0.536206 |
                                       |    0.510139    0.536206    0.114591 |
  Two-photon absorption cross-section [a.u.]:                         0.237597
  Two-photon absorption matrix [a.u.]:
                                       |    0.010533    0.012996   -0.117376 |
                                       |    0.012996    0.015736   -0.123416 |
                                       |   -0.117376   -0.123416   -0.026184 |

  Dip. moment [a.u.]:                  [  -0.175737,    0.166466,    0.001632]
  Total dipole [Debye]:                                               0.615276
  <r^2> [a.u.]:                        [ 173.437358,   34.424926,   13.208273]
  Total <r^2> [a.u.]:                                               221.070557

  V1^2 = 0.9540, V2^2 = 0.0460

  Important amplitudes:
      occ i     occ j     vir a      vir b          v   
    -----------------------------------------------------
     7 (A) A              9 (A) A                 0.6681
     8 (A) A             11 (A) A                 0.1518
     7 (A) A             20 (A) A                -0.0753
     5 (A) A   8 (A) B    9 (A) A    9 (A) B     -0.0307
     8 (A) A             16 (A) A                -0.0282
     5 (A) A              9 (A) A                -0.0195
     8 (A) A             21 (A) A                 0.0178
     5 (A) A             28 (A) A                -0.0146
     5 (A) A   7 (A) B    9 (A) A   16 (A) B      0.0129
     4 (A) A   7 (A) B    9 (A) A   19 (A) B     -0.0126
     7 (A) A   8 (A) B   20 (A) A   17 (A) B      0.0106
     7 (A) A   8 (A) A    9 (A) A   28 (A) A      0.0098
     5 (A) A   8 (A) B    9 (A) A   20 (A) B      0.0092
     4 (A) A   6 (A) B    9 (A) A   16 (A) B     -0.0090
     6 (A) A   7 (A) B    9 (A) A   18 (A) B     -0.0089
     5 (A) A   6 (A) A    9 (A) A   23 (A) A     -0.0086
     5 (A) A   6 (A) A    9 (A) A   14 (A) A     -0.0086
     8 (A) A   7 (A) B    9 (A) A   28 (A) B     -0.0086
     8 (A) A             13 (A) A                 0.0084
     4 (A) A   5 (A) A    9 (A) A   10 (A) A     -0.0082
     5 (A) A   6 (A) B    9 (A) A   19 (A) B      0.0080
     5 (A) A   6 (A) B    9 (A) A   23 (A) B     -0.0077
     5 (A) A   7 (A) A    9 (A) A   16 (A) A      0.0077
     3 (A) A   7 (A) B    9 (A) A   18 (A) B      0.0076
     4 (A) A   8 (A) B    9 (A) A   25 (A) B     -0.0076
     7 (A) A   8 (A) B   17 (A) A   20 (A) B      0.0074
     5 (A) A   5 (A) B    9 (A) A   13 (A) B      0.0071
     7 (A) A   8 (A) B    9 (A) A    9 (A) B     -0.0070
     4 (A) A   7 (A) B   19 (A) A    9 (A) B     -0.0068
     5 (A) A   8 (A) A    9 (A) A   20 (A) A      0.0067
     7 (A) A   8 (A) B   17 (A) A    9 (A) B     -0.0065
     6 (A) A   7 (A) B   18 (A) A    9 (A) B     -0.0064
     4 (A) A   5 (A) B    9 (A) A   18 (A) B      0.0063
     7 (A) A   8 (A) B   19 (A) A   18 (A) B     -0.0063
     7 (A) A   7 (A) B   20 (A) A   22 (A) B      0.0062
     5 (A) A   6 (A) B    9 (A) A   14 (A) B     -0.0061
     5 (A) A   7 (A) B   11 (A) A   20 (A) B      0.0060
     4 (A) A   7 (A) A    9 (A) A   19 (A) A     -0.0058
     5 (A) A             38 (A) A                -0.0058
     4 (A) A   8 (A) A    9 (A) A   25 (A) A     -0.0056
    -----------------------------------------------------

  Density matrix analysis:
  ------------------------
  NOs
    Occupation of frontier NOs:
       0.9553   1.0551
    Number of electrons: 16.000000
    Number of unpaired electrons: n_u =  2.35749, n_u,nl =  2.06489
    NO participation ratio (PR_NO):  3.044370
  
  
  Mulliken Population Analysis
  Atom      Charge (e)              h+              e-           Del q
  --------------------------------------------------------------------
   1 H        0.119223        0.102110       -0.025312        0.076798
   2 C       -0.261099        0.238545       -0.448100       -0.209554
   3 H        0.119259        0.102057       -0.025204        0.076854
   4 C       -0.352383        0.310667       -0.500819       -0.190153
   5 H        0.187450        0.148420       -0.025453        0.122967
   6 H        0.187550        0.148377       -0.025289        0.123088
  --------------------------------------------------------------------
  Sum:        0.000000        1.050177       -1.050177        0.000000
  
  Multipole moment analysis of the density matrix
    Molecular charge:                      0.000000
    Number of electrons:                   16.000000
      Center of electronic charge [Ang]: [ -1.552883,  -0.073311,   0.002049]
    Total nuclear charge:                  16.000000
      Center of nuclear charge [Ang]:    [ -1.558695,  -0.067805,   0.002103]
    Dipole moment [D]:                     0.615276
      Cartesian components [D]:          [ -0.446678,   0.423114,   0.004148]
    RMS size of the density [Ang]:         1.205116
      Cartesian components [Ang]:        [  0.789948,   0.772737,   0.480795]
  
  Exciton analysis of the difference density matrix
    <r_h> [Ang]:                  [ -1.675522,   0.043309,   0.003204]
    <r_e> [Ang]:                  [ -1.579548,  -0.047638,   0.002316]
    |<r_e - r_h>| [Ang]:            0.132224
    Hole size [Ang]:                1.491467
      Cartesian components [Ang]: [  1.009489,   0.997676,   0.458309]
    Electron size [Ang]:            1.480671
      Cartesian components [Ang]: [  0.885153,   0.863120,   0.814810]

  Transition density matrix analysis:
  -----------------------------------
  
  CT numbers (Mulliken)
    omega =     0.9212
    <Phe> =    -0.0113
  
  Exciton analysis of the transition density matrix
    Trans. dipole moment [D]:             0.001270
      Cartesian components [D]:         [ -0.000905,   0.000849,  -0.000269]
    <r_h> [Ang]:                        [ -1.694422,   0.061270,   0.003383]
    <r_e> [Ang]:                        [ -1.565732,  -0.060731,   0.002188]
    |<r_e - r_h>| [Ang]:                  0.177333
    Hole size [Ang]:                      1.519680
      Cartesian components [Ang]:       [  1.032365,   1.020676,   0.449299]
    Electron size [Ang]:                  1.475471
      Cartesian components [Ang]:       [  0.873321,   0.850417,   0.831335]
    RMS electron-hole separation [Ang]:   2.107142
      Cartesian components [Ang]:       [  1.343585,   1.320344,   0.944202]
    Covariance(r_h, r_e) [Ang^2]:         0.038920
    Correlation coefficient:              0.017358
    Center-of-mass size [Ang]:            1.068209
      Cartesian components [Ang]:       [  0.683424,   0.671109,   0.472879]

  Decomposition into state-averaged NTOs
    H- 1 -> L+ 0:  0.6605 ( 87.3%)
    H- 0 -> L+ 2: -0.1519 (  4.6%)
                   omega =  92.1%
  ----------------------------------------------------------------------------


  Excited state 3 (singlet, A)                                     [converged]
  ----------------------------------------------------------------------------
  Term symbol:  4 (1) A                                     R^2 =  1.06314e-12

  Total energy:                                            -77.9803532574 a.u.
  Excitation energy:                                               9.098517 eV

  Osc. strength:                                                      0.021650
  Trans. dip. moment [a.u.]:           [  -0.014734,   -0.018922,    0.310725]
  <i|r^2|0> [a.u.]:                    [  -0.091842,    0.001130,   -0.003414]
  Two-photon absorption cross-section (SoS) [a.u.]:                   0.296829
  Two-photon absorption matrix (SoS) [a.u.]:
                                       |   -0.012005   -0.001747    0.138965 |
                                       |   -0.001747    0.014099   -0.132717 |
                                       |    0.138965   -0.132717   -0.002804 |
  Two-photon absorption cross-section [a.u.]:                         0.053986
  Two-photon absorption matrix [a.u.]:
                                       |   -0.004854   -0.000622    0.058961 |
                                       |   -0.000622    0.005295   -0.056961 |
                                       |    0.058961   -0.056961   -0.001285 |

  Dip. moment [a.u.]:                  [   0.541316,   -0.515920,   -0.005191]
  Total dipole [Debye]:                                               1.900749
  <r^2> [a.u.]:                        [ 184.132118,   40.916052,   11.025088]
  Total <r^2> [a.u.]:                                               236.073258

  V1^2 = 0.9575, V2^2 = 0.0425

  Important amplitudes:
      occ i     occ j     vir a      vir b          v   
    -----------------------------------------------------
     8 (A) A             10 (A) A                -0.6877
     8 (A) A             24 (A) A                -0.0463
     8 (A) A             18 (A) A                 0.0367
     6 (A) A              9 (A) A                 0.0264
     4 (A) A              9 (A) A                -0.0242
     8 (A) A   8 (A) B    9 (A) A   12 (A) B      0.0212
     8 (A) A             23 (A) A                -0.0184
     8 (A) A             12 (A) A                 0.0170
     8 (A) A   8 (A) B   10 (A) A   17 (A) B     -0.0169
     5 (A) A   8 (A) B   11 (A) A   10 (A) B     -0.0163
     7 (A) A   8 (A) B   13 (A) A   10 (A) B     -0.0142
     8 (A) A             15 (A) A                -0.0137
     6 (A) A   8 (A) A   10 (A) A   15 (A) A      0.0113
     4 (A) A   8 (A) B   12 (A) A   10 (A) B      0.0110
     6 (A) A   8 (A) B   15 (A) A   10 (A) B     -0.0110
     4 (A) A   8 (A) A   10 (A) A   12 (A) A     -0.0105
     7 (A) A   8 (A) B   22 (A) A   10 (A) B     -0.0101
     7 (A) A   8 (A) A   10 (A) A   13 (A) A      0.0095
     5 (A) A   8 (A) A   10 (A) A   11 (A) A      0.0094
     6 (A) A   8 (A) B   10 (A) A   10 (A) B      0.0092
     7 (A) A   8 (A) A   10 (A) A   22 (A) A      0.0091
     6 (A) A   8 (A) A   10 (A) A   18 (A) A      0.0089
     5 (A) A   8 (A) B   21 (A) A   10 (A) B     -0.0086
     8 (A) A   8 (A) B    9 (A) A   10 (A) B     -0.0085
     8 (A) A             19 (A) A                -0.0081
     7 (A) A   8 (A) A   12 (A) A   16 (A) A      0.0079
     3 (A) A   4 (A) B   10 (A) A    9 (A) B      0.0079
     8 (A) A   8 (A) B    9 (A) A   23 (A) B     -0.0075
     8 (A) A   8 (A) B   10 (A) A   28 (A) B      0.0074
     5 (A) A   8 (A) A   10 (A) A   21 (A) A      0.0073
     4 (A) A   8 (A) B   19 (A) A   10 (A) B     -0.0070
     5 (A) A   8 (A) B   10 (A) A   11 (A) B     -0.0069
     7 (A) A   8 (A) B   16 (A) A   12 (A) B     -0.0069
     6 (A) A   8 (A) B   18 (A) A   10 (A) B     -0.0068
     3 (A) A   8 (A) B   10 (A) A   10 (A) B     -0.0068
     3 (A) A   8 (A) A   10 (A) A   24 (A) A      0.0067
     8 (A) A   8 (A) B    9 (A) A   19 (A) B     -0.0063
     3 (A) A   8 (A) B   10 (A) A   18 (A) B      0.0063
     3 (A) A   6 (A) B   10 (A) A   28 (A) B      0.0062
     6 (A) A             28 (A) A                -0.0060
    -----------------------------------------------------

  Density matrix analysis:
  ------------------------
  NOs
    Occupation of frontier NOs:
       0.9829   0.9840
    Number of electrons: 16.000000
    Number of unpaired electrons: n_u =  2.29119, n_u,nl =  2.02560
    NO participation ratio (PR_NO):  2.704100
  
  
  Mulliken Population Analysis
  Atom      Charge (e)              h+              e-           Del q
  --------------------------------------------------------------------
   1 H       -0.087515        0.055350       -0.185290       -0.129940
   2 C        0.325506        0.493413       -0.116362        0.377051
   3 H       -0.087316        0.055352       -0.185074       -0.129722
   4 C        0.281100        0.582024       -0.138693        0.443331
   5 H       -0.216059        0.053780       -0.334322       -0.280542
   6 H       -0.215715        0.053804       -0.333981       -0.280177
  --------------------------------------------------------------------
  Sum:        0.000000        1.293721       -1.293721        0.000000
  
  Multipole moment analysis of the density matrix
    Molecular charge:                      0.000000
    Number of electrons:                   16.000000
      Center of electronic charge [Ang]: [ -1.576598,  -0.050742,   0.002274]
    Total nuclear charge:                  16.000000
      Center of nuclear charge [Ang]:    [ -1.558695,  -0.067805,   0.002103]
    Dipole moment [D]:                     1.900749
      Cartesian components [D]:          [  1.375887,  -1.311338,  -0.013195]
    RMS size of the density [Ang]:         1.281976
      Cartesian components [Ang]:        [  0.858475,   0.844707,   0.439265]
  
  Exciton analysis of the difference density matrix
    <r_h> [Ang]:                  [ -1.591441,  -0.036699,   0.002406]
    <r_e> [Ang]:                  [ -1.806833,   0.168594,   0.004476]
    |<r_e - r_h>| [Ang]:            0.297563
    Hole size [Ang]:                1.410905
      Cartesian components [Ang]: [  0.835451,   0.821610,   0.785896]
    Electron size [Ang]:            2.049302
      Cartesian components [Ang]: [  1.355027,   1.360167,   0.716580]

  Transition density matrix analysis:
  -----------------------------------
  
  CT numbers (Mulliken)
    omega =     0.9243
    <Phe> =    -0.0111
  
  Exciton analysis of the transition density matrix
    Trans. dipole moment [D]:             0.396067
      Cartesian components [D]:         [ -0.018725,  -0.024047,   0.394892]
    <r_h> [Ang]:                        [ -1.556952,  -0.069527,   0.002076]
    <r_e> [Ang]:                        [ -1.889434,   0.247290,   0.005268]
    |<r_e - r_h>| [Ang]:                  0.459268
    Hole size [Ang]:                      1.212821
      Cartesian components [Ang]:       [  0.636836,   0.624207,   0.822033]
    Electron size [Ang]:                  2.253838
      Cartesian components [Ang]:       [  1.487655,   1.496702,   0.791549]
    RMS electron-hole separation [Ang]:   2.591537
      Cartesian components [Ang]:       [  1.645473,   1.646115,   1.139644]
    Covariance(r_h, r_e) [Ang^2]:         0.022791
    Correlation coefficient:              0.008338
    Center-of-mass size [Ang]:            1.284163
      Cartesian components [Ang]:       [  0.812453,   0.813969,   0.571358]

  Decomposition into state-averaged NTOs
    H- 0 -> L+ 1:  0.6786 ( 92.1%)
                   omega =  92.4%
  ----------------------------------------------------------------------------


  Excited state 4 (singlet, A)                                     [converged]
  ----------------------------------------------------------------------------
  Term symbol:  5 (1) A                                     R^2 =  2.24313e-13

  Total energy:                                            -77.9574977710 a.u.
  Excitation energy:                                               9.720447 eV

  Osc. strength:                                                      0.000000
  Trans. dip. moment [a.u.]:           [   0.000186,   -0.000205,    0.000242]
  <i|r^2|0> [a.u.]:                    [  -0.012112,   -0.017518,    0.030742]
  Two-photon absorption cross-section (SoS) [a.u.]:                 129.761592
  Two-photon absorption matrix (SoS) [a.u.]:
                                       |   -0.265623   -0.305860    2.743162 |
                                       |   -0.305860   -0.349537    2.883729 |
                                       |    2.743162    2.883729    0.615551 |
  Two-photon absorption cross-section [a.u.]:                        77.351584
  Two-photon absorption matrix [a.u.]:
                                       |   -0.205649   -0.236147    2.117834 |
                                       |   -0.236147   -0.269295    2.226574 |
                                       |    2.117834    2.226574    0.475237 |

  Dip. moment [a.u.]:                  [   0.221422,   -0.207515,   -0.001916]
  Total dipole [Debye]:                                               0.771343
  <r^2> [a.u.]:                        [ 182.319328,   40.960895,   10.777488]
  Total <r^2> [a.u.]:                                               234.057710

  V1^2 = 0.9632, V2^2 = 0.0368

  Important amplitudes:
      occ i     occ j     vir a      vir b          v   
    -----------------------------------------------------
     8 (A) A             11 (A) A                 0.6680
     7 (A) A              9 (A) A                -0.1541
     8 (A) A             21 (A) A                 0.0776
     8 (A) A             16 (A) A                -0.0682
     8 (A) A             13 (A) A                 0.0248
     8 (A) A   8 (A) B    9 (A) A   13 (A) B      0.0166
     5 (A) A   8 (A) B   11 (A) A   11 (A) B      0.0152
     7 (A) A             20 (A) A                 0.0141
     8 (A) A   8 (A) B   11 (A) A   17 (A) B      0.0136
     7 (A) A   8 (A) B   13 (A) A   11 (A) B      0.0125
     4 (A) A   8 (A) B   12 (A) A   11 (A) B     -0.0108
     8 (A) A   8 (A) B    9 (A) A   22 (A) B      0.0105
     5 (A) A   8 (A) A   11 (A) A   21 (A) A     -0.0104
     6 (A) A   8 (A) B   10 (A) A   11 (A) B     -0.0093
     6 (A) A   8 (A) B   15 (A) A   11 (A) B      0.0089
     7 (A) A   8 (A) A   11 (A) A   22 (A) A     -0.0088
     3 (A) A   4 (A) B   11 (A) A    9 (A) B     -0.0083
     7 (A) A   8 (A) B   22 (A) A   11 (A) B      0.0083
     6 (A) A   8 (A) A   11 (A) A   15 (A) A     -0.0079
     7 (A) A   8 (A) A   13 (A) A   16 (A) A      0.0079
     3 (A) A   8 (A) B   11 (A) A   18 (A) B     -0.0075
     8 (A) A             22 (A) A                -0.0074
     7 (A) A   8 (A) A   11 (A) A   13 (A) A     -0.0074
     5 (A) A   8 (A) B    9 (A) A    9 (A) B      0.0068
     4 (A) A   8 (A) B   19 (A) A   11 (A) B      0.0066
     5 (A) A   8 (A) B   21 (A) A   11 (A) B      0.0064
     4 (A) A   8 (A) A   11 (A) A   12 (A) A      0.0060
     3 (A) A   6 (A) B   11 (A) A   28 (A) B     -0.0060
     6 (A) A   8 (A) B   18 (A) A   11 (A) B      0.0059
     6 (A) A   8 (A) A   11 (A) A   18 (A) A     -0.0059
     7 (A) A   8 (A) B   16 (A) A   13 (A) B     -0.0056
     3 (A) A   8 (A) B   11 (A) A   30 (A) B     -0.0056
     6 (A) A   8 (A) B   11 (A) A   10 (A) B     -0.0055
     5 (A) A              9 (A) A                 0.0055
     3 (A) A   5 (A) B   11 (A) A   25 (A) B     -0.0054
     5 (A) A   8 (A) B   10 (A) A   10 (A) B      0.0053
     7 (A) A   8 (A) B   12 (A) A   10 (A) B     -0.0053
     8 (A) A   8 (A) B   20 (A) A   22 (A) B     -0.0052
     3 (A) A   8 (A) A   11 (A) A   18 (A) A     -0.0052
     3 (A) A   8 (A) A   11 (A) A   24 (A) A     -0.0050
    -----------------------------------------------------

  Density matrix analysis:
  ------------------------
  NOs
    Occupation of frontier NOs:
       0.9383   1.0299
    Number of electrons: 16.000000
    Number of unpaired electrons: n_u =  2.32233, n_u,nl =  2.05144
    NO participation ratio (PR_NO):  2.935023
  
  
  Mulliken Population Analysis
  Atom      Charge (e)              h+              e-           Del q
  --------------------------------------------------------------------
   1 H       -0.113451        0.045430       -0.201306       -0.155876
   2 C        0.304128        0.477506       -0.121833        0.355673
   3 H       -0.114120        0.045427       -0.201952       -0.156525
   4 C        0.195994        0.513193       -0.154968        0.358225
   5 H       -0.136047        0.046005       -0.246535       -0.200531
   6 H       -0.136504        0.046018       -0.246984       -0.200966
  --------------------------------------------------------------------
  Sum:        0.000000        1.173579       -1.173579        0.000000
  
  Multipole moment analysis of the density matrix
    Molecular charge:                      0.000000
    Number of electrons:                   16.000000
      Center of electronic charge [Ang]: [ -1.566018,  -0.060942,   0.002166]
    Total nuclear charge:                  16.000000
      Center of nuclear charge [Ang]:    [ -1.558695,  -0.067805,   0.002103]
    Dipole moment [D]:                     0.771343
      Cartesian components [D]:          [  0.562799,  -0.527451,  -0.004870]
    RMS size of the density [Ang]:         1.280740
      Cartesian components [Ang]:        [  0.859361,   0.844497,   0.434305]
  
  Exciton analysis of the difference density matrix
    <r_h> [Ang]:                  [ -1.572529,  -0.054752,   0.002224]
    <r_e> [Ang]:                  [ -1.665729,   0.032495,   0.003029]
    |<r_e - r_h>| [Ang]:            0.127667
    Hole size [Ang]:                1.393052
      Cartesian components [Ang]: [  0.818207,   0.804983,   0.789387]
    Electron size [Ang]:            2.105155
      Cartesian components [Ang]: [  1.413023,   1.409181,   0.670264]

  Transition density matrix analysis:
  -----------------------------------
  
  CT numbers (Mulliken)
    omega =     0.9290
    <Phe> =    -0.0148
  
  Exciton analysis of the transition density matrix
    Trans. dipole moment [D]:             0.000467
      Cartesian components [D]:         [  0.000237,  -0.000260,   0.000307]
    <r_h> [Ang]:                        [ -1.559584,  -0.066968,   0.002107]
    <r_e> [Ang]:                        [ -1.691254,   0.056491,   0.003254]
    |<r_e - r_h>| [Ang]:                  0.180500
    Hole size [Ang]:                      1.229384
      Cartesian components [Ang]:       [  0.662365,   0.649954,   0.806360]
    Electron size [Ang]:                  2.235521
      Cartesian components [Ang]:       [  1.500195,   1.497549,   0.710151]
    RMS electron-hole separation [Ang]:   2.547347
      Cartesian components [Ang]:       [  1.637037,   1.629605,   1.073998]
    Covariance(r_h, r_e) [Ang^2]:         0.026273
    Correlation coefficient:              0.009560
    Center-of-mass size [Ang]:            1.280770
      Cartesian components [Ang]:       [  0.824026,   0.820033,   0.537493]

  Decomposition into state-averaged NTOs
    H- 0 -> L+ 2: -0.6638 ( 88.1%)
    H- 1 -> L+ 0: -0.1521 (  4.6%)
                   omega =  92.9%
  ----------------------------------------------------------------------------


  Excited state 5 (singlet, A)                                     [converged]
  ----------------------------------------------------------------------------
  Term symbol:  6 (1) A                                     R^2 =  5.81464e-13

  Total energy:                                            -77.9409216464 a.u.
  Excitation energy:                                              10.171506 eV

  Osc. strength:                                                      0.001623
  Trans. dip. moment [a.u.]:           [   0.003904,    0.004880,   -0.080450]
  <i|r^2|0> [a.u.]:                    [  -0.059548,    0.099761,   -0.015393]
  Two-photon absorption cross-section (SoS) [a.u.]:                 218.999039
  Two-photon absorption matrix (SoS) [a.u.]:
                                       |   -0.364413   -0.055497    3.784943 |
                                       |   -0.055497    0.433344   -3.589322 |
                                       |    3.784943   -3.589322   -0.070394 |
  Two-photon absorption cross-section [a.u.]:                       110.388545
  Two-photon absorption matrix [a.u.]:
                                       |   -0.259281   -0.039737    2.687191 |
                                       |   -0.039737    0.307133   -2.548327 |
                                       |    2.687191   -2.548327   -0.049855 |

  Dip. moment [a.u.]:                  [  -0.426612,    0.404770,    0.003982]
  Total dipole [Debye]:                                               1.494782
  <r^2> [a.u.]:                        [ 177.180563,   39.681881,   11.674580]
  Total <r^2> [a.u.]:                                               228.537023

  V1^2 = 0.9559, V2^2 = 0.0441

  Important amplitudes:
[...]
    16   -1.217461557499e-03
    17   -1.524120031025e-03
    18    2.370908905455e-05
    19   -5.770692053792e-04
    20    3.591084589550e-03
    21    7.944025568144e-01
    22   -1.031666604162e-03
    23    1.255533475866e-02
    24    7.107822816701e-04
    25    8.451282647146e-02
    26   -7.126557336809e-02
    27   -1.482966259083e+00
    28    1.109364209930e-01
    29   -1.054521205688e-01
    30   -1.078817121103e-03
    31    4.272336100390e-01
    32   -4.059834083282e-01
    33   -4.135740081898e-03
    34    1.455011137914e-02
    35   -1.496084599169e-03
    36   -1.780939870618e-03
    37    2.292987230006e-04
    38   -4.832801088493e-03
    39    2.287441098844e-02
    40    1.027761819096e+00
    41    2.497279518081e-04
    42   -1.378316096714e-02
    43   -8.220037016873e-04
    44    2.284201813850e-02
    45    1.027349829296e+00
    46    1.378428346953e-02
    47    4.525351806093e-04
    48    6.870963468396e-04
Sym=X
Ene= 0.230795
Spin=Alpha
Occup=0
     1    3.247763833373e-02
     2    1.178905933472e+00
     3   -1.321314791656e-02
     4   -3.483658797196e-03
     5   -8.454513813218e-04
     6   -6.933468475675e-05
     7    6.596008893551e-05
     8    1.386838492332e-03
     9   -1.395036967242e-01
    10   -1.468384671307e-01
    11   -1.558702685188e-02
    12   -5.087225314392e-01
    13   -5.356910970476e-01
    14   -5.686063877100e-02
    15   -2.325089302536e-05
    16    2.454549026339e-04
    17   -2.678686187404e-04
    18    4.725351265555e-03
    19    2.509197796726e-04
    20   -3.247847806110e-02
    21   -1.180816398380e+00
    22   -2.819133698235e-03
    23   -1.339734415302e-02
    24   -9.462007761133e-04
    25    2.666832778115e-05
    26   -3.805103242812e-05
    27   -1.823203931560e-04
    28   -1.693381903783e-01
    29   -1.781382309155e-01
    30   -1.887709477757e-02
    31   -5.497282355304e-01
    32   -5.782806419316e-01
    33   -6.127020597919e-02
    34   -2.413113070238e-06
    35    5.279981359042e-05
    36   -6.478099166385e-05
    37    1.091091590817e-03
    38    5.516196660303e-05
    39    2.852427258880e-02
    40    1.153082170194e+00
    41   -2.826068976048e-03
    42   -1.222381160750e-02
    43   -8.737504246069e-04
    44   -2.847184803740e-02
    45   -1.152688791620e+00
    46   -1.207289777358e-02
    47   -3.438486201390e-03
    48   -7.861577467815e-04
Sym=X
Ene= 0.236546
Spin=Alpha
Occup=0
     1    1.098248748484e-02
     2    1.247603447072e+00
     3   -1.998792306252e-02
     4   -1.013149800653e-02
     5   -1.571876519433e-03
     6    9.538714257693e-02
     7   -8.853766771685e-02
     8   -1.830412687289e+00
     9   -6.486632570693e-02
    10    6.141039131951e-02
    11    5.996212064198e-04
    12   -2.932937619499e-01
    13    2.778822669024e-01
    14    2.722260728849e-03
    15    2.669232951690e-02
    16   -3.045105146448e-03
    17   -3.523796350892e-03
    18    6.876629644548e-04
    19   -1.389156482067e-02
    20    1.096071051102e-02
    21    1.246237258907e+00
    22    9.098889949747e-03
    23    2.045392077297e-02
    24    1.673624478923e-03
    25   -7.599109362505e-02
    26    7.335185049038e-02
    27    1.254710271409e+00
    28   -5.120972613980e-02
    29    4.845904543880e-02
    30    4.860252614652e-04
    31   -1.799144205933e-01
    32    1.702196858839e-01
    33    1.690847494347e-03
    34   -1.579833152711e-02
    35    1.931976461614e-03
    36    2.200631012640e-03
    37   -5.179126467242e-04
    38    1.046786787000e-02
    39   -2.655206211527e-02
    40   -8.834768991090e-01
    41    7.739640186951e-03
    42    1.199475947170e-02
    43    1.097440644421e-03
    44   -2.658284965599e-02
    45   -8.849136491088e-01
    46   -1.161043816218e-02
    47   -8.340803171912e-03
    48   -1.060132780111e-03
Sym=X
Ene= 0.302422
Spin=Alpha
Occup=0
     1    3.014861460907e-02
     2   -1.813404976032e+00
     3    2.420736764883e-02
     4   -1.264125846957e-03
     5    1.087391448917e-03
     6    4.455375284083e-07
     7    4.603246584811e-06
     8   -1.952759332937e-04
     9    1.397695726022e-01
    10    1.470250470527e-01
    11    1.560258961760e-02
    12    1.177118841324e+00
    13    1.238193401359e+00
    14    1.313633863428e-01
    15   -3.212076213666e-05
    16    1.932842355555e-03
    17   -2.193098699442e-03
    18    3.782283652629e-02
    19    1.930175530876e-03
    20   -3.016553679967e-02
    21    1.813617515744e+00
    22   -2.496128445799e-03
    23    2.410048113355e-02
    24    1.336095056470e-03
    25   -3.242857547121e-06
    26    3.838489964981e-07
    27    2.184162512155e-04
    28   -1.309983257409e-01
    29   -1.377999552404e-01
    30   -1.460643251715e-02
    31   -1.067857489003e+00
    32   -1.123200497291e+00
    33   -1.191108644152e-01
    34   -3.223656525999e-05
    35    1.454733621047e-03
    36   -1.649903502005e-03
    37    2.847501313348e-02
    38    1.458991718807e-03
    39   -1.101683302317e-02
    40    1.507580678064e+00
    41    8.506313658402e-04
    42   -2.188054483997e-02
    43   -1.279969154677e-03
    44    1.103493461415e-02
    45   -1.507822841428e+00
    46   -2.191078009496e-02
    47   -2.692647017934e-04
    48   -1.068274651514e-03
Sym=X
Ene= 0.462714
Spin=Alpha
Occup=0
     1   -1.131398562937e-01
     2   -7.459712836222e-01
     3   -1.616902718898e-02
     4   -1.008424445990e-02
     5   -1.387077546653e-03
     6    6.009707855577e-02
     7    2.019460761714e-02
     8   -3.528786742285e+00
     9    9.443567979820e-02
    10   -8.967721232555e-02
    11   -9.020318167421e-04
    12    2.465469388150e+00
    13   -2.341696547102e+00
    14   -2.290620339629e-02
    15    5.198897596962e-02
    16   -3.440277574687e-03
    17   -4.662948140854e-03
    18   -8.554307362533e-04
    19    1.572017321737e-02
    20   -1.130824722156e-01
    21   -7.463066740456e-01
    22    9.257571649957e-03
    23    1.665172550892e-02
    24    1.451120868943e-03
    25   -6.476393721600e-02
    26   -1.148717504791e-02
    27    3.734850815546e+00
    28    1.141312346165e-01
    29   -1.083834670893e-01
    30   -1.091007281360e-03
    31    2.394202096296e+00
    32   -2.273708299389e+00
    33   -2.223310049834e-02
    34   -5.363618257562e-02
    35    3.076554152742e-03
    36    4.391620877233e-03
    37    1.286901709259e-03
    38   -2.424652705650e-02
    39    1.156878872589e-01
    40    6.524400328850e-01
    41    9.604893272189e-03
    42    1.441112495618e-02
    43    1.330425932801e-03
    44    1.157029665105e-01
    45    6.526586123744e-01
    46   -1.391312199648e-02
    47   -1.031749205081e-02
    48   -1.290986510843e-03
Sym=X
Ene= 0.579872
Spin=Alpha
Occup=0
     1    2.428272407917e-01
     2    3.855523359454e-02
     3   -1.692325430908e-02
     4    2.154756094439e-02
     5    4.894408146890e-04
     6   -1.707224313622e-03
     7   -1.620274407310e-01
     8   -6.467740260820e-01
     9    3.116680055140e-01
    10   -2.959924240186e-01
    11   -2.899293591502e-03
    12   -6.545804299277e-01
    13    6.217438987759e-01
    14    6.144262878363e-03
    15    8.401135601982e-04
    16    3.389619970085e-03
    17    2.969904103063e-03
    18   -3.045899386547e-03
    19    5.941184291092e-02
    20    2.429503183968e-01
    21    3.866646342701e-02
    22   -2.237453861441e-02
    23    1.577296177726e-02
    24   -1.214677965804e-04
    25   -1.108688478005e-02
    26   -1.747689408575e-01
    27   -1.889576025460e-01
    28   -2.999626933005e-01
    29    2.848526420614e-01
    30    2.779638622047e-03
    31    8.419381438063e-01
    32   -7.993928360316e-01
    33   -7.859498039353e-03
    34   -4.189175982704e-03
    35    3.854767169362e-03
    36    3.535582764988e-03
    37   -3.039780306473e-03
    38    6.015591369392e-02
    39    2.297285907711e-01
    40    5.971174575900e-02
    41    3.336992174992e-02
    42   -2.536230473766e-02
    43    6.978404307839e-05
    44    2.299520499480e-01
    45    5.962778097924e-02
    46    2.701435191434e-02
    47   -3.199416016013e-02
    48   -6.359343229741e-04
Sym=X
Ene= 0.608682
Spin=Alpha
Occup=0
     1   -4.917472057758e-01
     2    7.749688834589e-02
     3   -5.642922474337e-02
     4    3.501612024714e-02
     5   -5.929640682541e-04
     6    2.602755608756e-06
     7    2.179879883210e-05
     8    1.623402955505e-04
     9   -5.644422775919e-02
    10   -5.933304198646e-02
    11   -6.288893666090e-03
    12    3.888086913601e-01
    13    4.090579742097e-01
    14    4.342279074824e-02
    15    1.272955541099e-04
    16   -6.879161578226e-03
    17    7.796014724391e-03
    18   -1.345396997645e-01
    19   -6.902260210650e-03
    20    4.916314279904e-01
    21   -7.734873927758e-02
    22    3.787486896684e-02
    23   -5.454312059280e-02
    24   -1.475408780002e-03
    25   -4.897116624958e-06
    26    6.325035258205e-05
    27   -2.690140591443e-04
    28   -1.276416947054e-02
    29   -1.349382567662e-02
    30   -1.431753319076e-03
    31    1.354184196058e-01
    32    1.428313790019e-01
    33    1.509868530164e-02
    34   -1.082729212151e-04
    35    8.214522264082e-03
    36   -9.328417336242e-03
    37    1.608584192487e-01
    38    8.204747921847e-03
    39   -5.469857598957e-01
    40    4.015689575500e-01
    41    4.187367125372e-02
    42   -6.036963371061e-02
    43   -1.638407302524e-03
    44    5.466128449552e-01
    45   -4.012909550516e-01
    46   -6.244912967738e-02
    47    3.874177398729e-02
    48   -6.582332068820e-04
Sym=X
Ene= 0.688331
Spin=Alpha
Occup=0
     1    2.179002272012e-05
     2    4.244593116196e-05
     3    1.249060771728e-03
     4    1.580324505367e-03
     5   -2.606901338256e-02
     6    8.163076519980e-07
     7   -2.074281950902e-05
     8    7.101449326026e-05
     9    3.197150878435e-02
    10    4.020214029164e-02
    11   -6.652780939003e-01
    12   -2.969356307630e-02
    13   -3.710803716168e-02
    14    6.156137586151e-01
    15   -1.353728836133e-03
    16    8.440144658000e-02
    17   -8.007856630571e-02
    18   -8.887799706527e-03
    19   -1.237343395857e-03
    20    1.855678483186e-05
    21    7.223579594655e-05
    22    1.252814741012e-03
    23    1.581747630712e-03
    24   -2.608348284016e-02
    25   -2.618774449452e-06
    26    1.766298847917e-05
    27   -6.817811091550e-05
    28    3.239335192928e-02
    29    4.075016416125e-02
    30   -6.748041868165e-01
    31   -2.938271539191e-02
    32   -3.671497415638e-02
    33    6.098680711009e-01
    34    1.305917345500e-03
    35   -8.098825277064e-02
    36    7.683597329312e-02
    37    8.539154712576e-03
    38    1.183165303968e-03
    39   -4.869030246330e-05
    40   -2.804149234421e-05
    41    5.604423399820e-04
    42    7.159607445911e-04
    43   -1.183538221017e-02
    44   -3.821631869533e-05
    45   -6.185953970840e-05
    46    5.649136428475e-04
    47    7.197725590489e-04
    48   -1.185594962036e-02
Sym=X
Ene= 0.700633
Spin=Alpha
Occup=0
     1   -3.359703438530e-01
     2   -3.690660359533e-02
     3   -5.358482793625e-02
     4   -3.955464516557e-02
     5   -4.968201451491e-03
     6   -2.657366690395e-02
     7   -3.486304453681e-01
     8    3.842704643850e-01
     9    2.036176000626e-01
    10   -1.933452583877e-01
    11   -1.881460037744e-03
    12    7.062275281587e-02
    13   -6.721428283917e-02
    14   -7.494793445515e-04
    15    1.389837339227e-01
    16   -1.569342917122e-02
    17   -1.819612360495e-02
    18    3.448192870236e-03
    19   -6.947531332068e-02
    20   -3.361419656544e-01
    21   -3.699861014391e-02
    22    3.676187298479e-02
    23    5.553553228713e-02
    24    5.118888741520e-03
    25   -6.096899271483e-02
    26   -1.963498741674e-01
    27    4.580423000303e-01
    28   -1.761571205318e-01
    29    1.674301167715e-01
    30    1.673396549788e-03
    31    1.887522148692e-01
    32   -1.797456706880e-01
    33   -1.732954151202e-03
    34    2.245342389322e-01
    35   -2.330715638891e-02
    36   -2.760263625051e-02
    37    3.740966567661e-03
    38   -7.750916364192e-02
    39   -6.206656012128e-01
    40    3.825093692251e-01
    41   -4.174312544585e-02
    42   -9.655823452153e-02
    43   -7.829966000125e-03
    44   -6.207643832294e-01
    45    3.821069754492e-01
    46    9.435746233273e-02
    47    4.657939068885e-02
    48    7.348278534675e-03
Sym=X
Ene= 0.780054
Spin=Alpha
Occup=0
     1   -6.142602191855e-01
     2    3.915276629246e-01
     3   -1.285630762446e-01
     4   -3.678270513875e-02
     5   -8.401943970347e-03
     6   -1.025964502828e-01
     7    3.375166950793e-02
     8    8.902809561502e-01
     9   -6.314375426445e-02
    10    6.007298291188e-02
    11    5.968973696809e-04
    12   -2.543251236211e-01
    13    2.413152980658e-01
    14    2.310859134586e-03
    15    2.586066408353e-01
    16   -2.320560730938e-02
    17   -2.858425414750e-02
    18    1.098875583325e-03
    19   -2.649021404578e-02
    20   -6.140600733021e-01
    21    3.911678768770e-01
    22    3.020486102834e-02
    23    1.301736481710e-01
    24    9.316718765410e-03
    25    7.169108002622e-02
    26   -3.890468759829e-01
    27   -2.763932394484e-01
    28   -1.422748670377e-01
    29    1.349469694331e-01
    30    1.280586597169e-03
    31   -2.828698620722e-01
    32    2.691043421754e-01
    33    2.702665769802e-03
    34   -1.353811103218e-01
    35    1.058036774210e-02
    36    1.358432946965e-02
    37    7.688033762757e-04
    38   -1.271151292553e-02
    39    4.214292731381e-01
    40   -4.826183574211e-01
    41    1.191756054186e-02
    42    8.256359112117e-02
    43    5.557209210655e-03
    44    4.213972192882e-01
    45   -4.822054666290e-01
    46   -8.186718304392e-02
    47   -1.609840415650e-02
    48   -4.901237131913e-03
Sym=X
Ene= 0.807006
Spin=Alpha
Occup=0
     1    1.075952349717e-05
     2   -5.500986343776e-05
     3   -1.894720043771e-03
     4   -2.396492674866e-03
     5    3.971739779104e-02
     6    5.238915837588e-07
     7    2.636154979484e-05
     8   -2.609998329839e-05
     9   -3.670006552815e-02
    10   -4.612781371644e-02
    11    7.633308568761e-01
    12    5.432072898481e-02
    13    6.825796390658e-02
    14   -1.129572696635e+00
    15   -1.051622813900e-03
    16    6.506310068542e-02
    17   -6.172563221058e-02
    18   -6.842991252186e-03
    19   -9.536488230344e-04
    20    1.129161544850e-05
    21    2.910208246188e-05
    22   -1.904344432259e-03
    23   -2.404933390554e-03
    24    3.972640002945e-02
    25   -3.062882781263e-06
    26    3.885899148802e-05
    27   -1.542127487341e-05
    28    3.665957002716e-02
    29    4.609006367453e-02
    30   -7.636952311867e-01
    31   -5.371485512082e-02
    32   -6.752375731086e-02
    33    1.119016857928e+00
    34   -1.044771023186e-03
    35    6.511368668485e-02
    36   -6.177561519753e-02
    37   -6.871080647842e-03
    38   -9.592399788905e-04
    39   -9.424077690940e-06
    40   -4.553444157398e-05
    41    1.115393527865e-03
    42    1.414016001647e-03
    43   -2.324271888023e-02
    44   -1.386455262726e-05
    45    4.429439650831e-05
    46    1.117359937920e-03
    47    1.412481127633e-03
    48   -2.327074905935e-02
Sym=X
Ene= 0.856082
Spin=Alpha
Occup=0
     1   -5.592411321311e-02
     2   -9.176624109664e-01
     3    1.104818031149e-01
     4    5.708930821095e-02
     5    8.751451335013e-03
     6    3.147083496483e-06
     7   -1.196290561094e-04
     8    1.119337351050e-04
     9   -3.033288225096e-01
    10   -3.190800700098e-01
    11   -3.388970288095e-02
    12    7.591034215489e-01
    13    7.984503238641e-01
    14    8.479356143147e-02
    15   -1.864629886524e-04
    16    1.053457517996e-02
    17   -1.193940183856e-02
    18    2.060862805395e-01
    19    1.052478455872e-02
    20    5.597337540319e-02
    21    9.175520878944e-01
    22    5.140278970937e-02
    23    1.131707468458e-01
    24    9.312718372473e-03
    25   -1.318381858319e-05
    26   -1.107597359101e-04
    27    3.410944833636e-05
    28   -5.095677738525e-01
    29   -5.360707552044e-01
    30   -5.680736174705e-02
    31    1.079550201762e+00
    32    1.135603675932e+00
    33    1.203420338961e-01
    34    2.716429120308e-04
    35   -1.181925110009e-02
    36    1.339106250544e-02
    37   -2.311774959762e-01
    38   -1.182614211995e-02
    39    7.706050048233e-02
    40   -1.178761628270e+00
    41    4.590761814691e-02
    42    1.722499685321e-01
    43    1.261429938834e-02
    44   -7.717815170061e-02
    45    1.178878673255e+00
    46    1.698096401035e-01
    47    5.461771057146e-02
    48    1.144199644553e-02
Sym=X
Ene= 0.932908
Spin=Alpha
Occup=0
     1   -1.378645377430e-01
     2    1.515187752189e+00
     3   -2.163337191522e-01
     4    7.583935625917e-05
     5   -1.039486005376e-02
     6    2.775375143222e-05
     7    7.328258903422e-05
     8    3.004549504722e-04
     9    5.284405245832e-01
    10    5.553801496584e-01
    11    5.895056639916e-02
    12   -1.590782155967e+00
    13   -1.672102096973e+00
    14   -1.774695258265e-01
    15    1.110985917995e-04
    16   -1.004090989739e-02
    17    1.136254568304e-02
    18   -1.960899412481e-01
    19   -1.016240732755e-02
    20    1.379181181675e-01
    21   -1.514607526254e+00
    22    1.120600459348e-02
    23   -2.158999893183e-01
    24   -1.250536584765e-02
    25   -2.613942762856e-05
    26   -7.801436406678e-05
    27   -3.186025272756e-04
    28   -3.957203943390e-01
    29   -4.167126703739e-01
    30   -4.417091037622e-02
    31    1.182363582800e+00
    32    1.244928758509e+00
    33    1.319674925802e-01
    34    1.283726594116e-04
    35   -2.400250484449e-03
    36    2.705545128453e-03
    37   -4.696145787550e-02
    38   -2.295713534646e-03
    39    1.148826878403e-01
    40   -9.500857399415e-01
    41   -1.805094261218e-02
    42    1.417021073188e-01
    43    7.683063792317e-03
    44   -1.149715652803e-01
    45    9.495429379209e-01
    46    1.424900730915e-01
    47   -1.084947253703e-02
    48    6.190576879981e-03
Sym=X
Ene= 0.968167
Spin=Alpha
Occup=0
     1   -3.826797269606e-02
     2    6.927436835298e-01
     3   -5.364177065427e-02
     4   -8.309670605767e-02
     5   -7.590298198690e-03
     6    2.432633317510e-02
     7   -3.472120889752e-02
     8    9.563897109459e-01
     9    4.276958719422e-01
    10   -4.066244244424e-01
    11   -4.013858255480e-03
    12   -1.315537330463e+00
    13    1.250990110452e+00
    14    1.234496368855e-02
    15   -4.945889723543e-02
    16   -1.124741919618e-02
    17   -8.435238756685e-03
    18    1.363778389888e-02
    19   -2.646137450047e-01
    20   -3.831056370469e-02
    21    6.941955596994e-01
    22    8.028045937953e-02
    23    5.796800753546e-02
    24    7.363146539527e-03
    25   -3.180619511848e-02
    26   -5.185812215709e-01
    27   -6.388342719791e-02
    28    5.186548828746e-01
    29   -4.921939831035e-01
    30   -4.829214146288e-03
    31   -1.522649000436e+00
    32    1.444654950853e+00
    33    1.414551632010e-02
    34    8.033865550772e-02
    35    1.115496965459e-02
    36    7.388563099651e-03
    37   -1.572393749289e-02
    38    3.073876022934e-01
    39    6.456633736511e-02
    40   -1.002924889840e+00
    41    9.543558572943e-02
    42    1.124347178239e-01
    43    1.138728320812e-02
    44    6.456608718413e-02
    45   -1.004127031729e+00
    46   -1.076331597625e-01
    47   -1.010211575777e-01
    48   -1.125602543604e-02
[5D]

======= END OF MOLDEN-FORMATTED INPUT FILE =======


        *************************************************************
        *                                                           *
        *  Thank you very much for using Q-Chem.  Have a nice day.  *
        *                                                           *
        *************************************************************


