                  Welcome to Q-Chem
     A Quantum Leap Into The Future Of Chemistry


 Q-Chem 5.4 (devel), Q-Chem, Inc., Pleasanton, CA (2021)

 E. Epifanovsky,  A. T. B. Gilbert,  Xintian Feng,  Joonho Lee,  Yuezhi Mao,  
 N. Mardirossian,  P. Pokhilko,  A. White,  M. Wormit,  M. P. Coons,  
 A. L. Dempwolff,  Zhengting Gan,  D. Hait,  P. R. Horn,  L. D. Jacobson,  
 I. Kaliman,  J. Kussmann,  A. W. Lange,  Ka Un Lao,  D. S. Levine,  Jie Liu,  
 S. C. McKenzie,  A. F. Morrison,  K. Nanda,  F. Plasser,  D. R. Rehn,  
 M. L. Vidal,  Zhi-Qiang You,  Ying Zhu,  B. Alam,  B. Albrecht,  
 A. Aldossary,  E. Alguire,  J. H. Andersen,  D. Barton,  K. Begam,  A. Behn,  
 Y. A. Bernard,  E. J. Berquist,  H. Burton,  A. Carreras,  K. Carter-Fenk,  
 R. Chakraborty,  A. D. Chien,  K. D. Closser,  V. Cofer-Shabica,  
 S. Dasgupta,  Jia Deng,  M. de Wergifosse,  M. Diedenhofen,  Hainam Do,  
 S. Ehlert,  Po-Tung Fang,  S. Fatehi,  Qingguo Feng,  T. Friedhoff,  
 J. Gayvert,  Qinghui Ge,  G. Gidofalvi,  M. Goldey,  J. Gomes,  
 C. Gonzalez-Espinoza,  S. Gulania,  A. Gunina,  M. W. D. Hanson-Heine,  
 P. H. P. Harbach,  A. W. Hauser,  M. F. Herbst,  M. Hernandez Vera,  
 M. Hodecker,  Z. C. Holden,  S. Houck,  Xunkun Huang,  Kerwin Hui,  
 B. C. Huynh,  M. Ivanov,  Hyunjun Ji,  Hanjie Jiang,  B. Kaduk,  S. Kaehler,  
 K. Khistyaev,  Jaehoon Kim,  P. Klunzinger,  Z. Koczor-Benda,  
 Joong Hoon Koh,  D. Kosenkov,  L. Koulias,  T. Kowalczyk,  C. M. Krauter,  
 K. Kue,  A. Kunitsa,  T. Kus,  A. Landau,  K. V. Lawler,  D. Lefrancois,  
 S. Lehtola,  Rain Li,  Yi-Pei Li,  Jiashu Liang,  M. Liebenthal,  
 Hung-Hsuan Lin,  You-Sheng Lin,  Fenglai Liu,  Kuan-Yu Liu,  
 M. Loipersberger,  A. Luenser,  A. Manjanath,  P. Manohar,  E. Mansoor,  
 S. F. Manzer,  Shan-Ping Mao,  A. V. Marenich,  T. Markovich,  S. Mason,  
 S. A. Maurer,  P. F. McLaughlin,  M. F. S. J. Menger,  J.-M. Mewes,  
 S. A. Mewes,  P. Morgante,  J. W. Mullinax,  K. J. Oosterbaan,  G. Paran,  
 Alexander C. Paul,  Suranjan K. Paul,  F. Pavosevic,  Zheng Pei,  S. Prager,  
 E. I. Proynov,  E. Ramos,  B. Rana,  A. E. Rask,  A. Rettig,  R. M. Richard,  
 F. Rob,  E. Rossomme,  T. Scheele,  M. Scheurer,  M. Schneider,  
 N. Sergueev,  S. M. Sharada,  W. Skomorowski,  D. W. Small,  C. J. Stein,  
 Yu-Chuan Su,  E. J. Sundstrom,  Zhen Tao,  J. Thirman,  T. Tsuchimochi,  
 N. M. Tubman,  S. P. Veccham,  O. Vydrov,  J. Wenzel,  J. Witte,  A. Yamada,  
 Kun Yao,  S. Yeganeh,  S. R. Yost,  A. Zech,  Igor Ying Zhang,  Xing Zhang,  
 Yu Zhang,  D. Zuev,  A. Aspuru-Guzik,  A. T. Bell,  N. A. Besley,  
 K. B. Bravaya,  B. R. Brooks,  D. Casanova,  Jeng-Da Chai,  S. Coriani,  
 C. J. Cramer,  A. E. DePrince, III,  R. A. DiStasio Jr.,  A. Dreuw,  
 B. D. Dunietz,  T. R. Furlani,  W. A. Goddard III,  S. Grimme,  
 S. Hammes-Schiffer,  T. Head-Gordon,  W. J. Hehre,  Chao-Ping Hsu,  
 T.-C. Jagau,  Yousung Jung,  A. Klamt,  Jing Kong,  D. S. Lambrecht,  
 WanZhen Liang,  N. J. Mayhall,  C. W. McCurdy,  J. B. Neaton,  
 C. Ochsenfeld,  J. A. Parkhill,  R. Peverati,  V. A. Rassolov,  Yihan Shao,  
 L. V. Slipchenko,  T. Stauch,  R. P. Steele,  J. E. Subotnik,  
 A. J. W. Thom,  A. Tkatchenko,  D. G. Truhlar,  T. Van Voorhis,  
 T. A. Wesolowski,  K. B. Whaley,  H. L. Woodcock III,  P. M. Zimmerman,  
 S. Faraji,  P. M. W. Gill,  M. Head-Gordon,  J. M. Herbert,  A. I. Krylov

 Additional authors for Version 5.4.1: 
 S. Kotaru,  Shaozhi Li,  Xiangyuan Li,  F. Matz,  A. Molle,  Haisheng Ren,  
 Yingli Su,  Hung-Yi Tsai,  C. Utku,  Fang Wang

 Contributors to earlier versions of Q-Chem not listed above: 
 R. D. Adamson,  B. Austin,  R. Baer,  J. Baker,  G. J. O. Beran,  
 K. Brandhorst,  S. T. Brown,  E. F. C. Byrd,  A. K. Chakraborty,  
 G. K. L. Chan,  Chun-Min Chang,  Yunqing Chen,  C.-L. Cheng,  
 Siu Hung Chien,  D. M. Chipman,  D. L. Crittenden,  H. Dachsel,  
 R. J. Doerksen,  A. D. Dutoi,  R. G. Edgar,  J. Fosso-Tande,  
 L. Fusti-Molnar,  D. Ghosh,  A. Ghysels,  A. Golubeva-Zadorozhnaya,  
 J. Gonthier,  M. S. Gordon,  S. R. Gwaltney,  G. Hawkins,  J. E. Herr,  
 A. Heyden,  S. Hirata,  E. G. Hohenstein,  G. Kedziora,  F. J. Keil,  
 C. Kelley,  Jihan Kim,  R. A. King,  R. Z. Khaliullin,  P. P. Korambath,  
 W. Kurlancheek,  A. Laurent,  A. M. Lee,  M. S. Lee,  S. V. Levchenko,  
 Ching Yeh Lin,  D. Liotard,  E. Livshits,  R. C. Lochan,  I. Lotan,  
 L. A. Martinez-Martinez,  P. E. Maslen,  N. Nair,  D. P. O'Neill,  
 D. Neuhauser,  E. Neuscamman,  C. M. Oana,  R. Olivares-Amaya,  R. Olson,  
 T. M. Perrine,  B. Peters,  P. A. Pieniazek,  A. Prociuk,  Y. M. Rhee,  
 J. Ritchie,  M. A. Rohrdanz,  E. Rosta,  N. J. Russ,  H. F. Schaefer III,  
 M. W. Schmidt,  N. E. Schultz,  S. Sharma,  N. Shenvi,  C. D. Sherrill,  
 A. C. Simmonett,  A. Sodt,  T. Stein,  D. Stuck,  K. S. Thanthiriwatte,  
 V. Vanovschi,  L. Vogt,  Tao Wang,  A. Warshel,  M. A. Watson,  
 C. F. Williams,  Q. Wu,  X. Xu,  Jun Yang,  W. Zhang,  Yan Zhao

 Please cite Q-Chem as follows:
 Y. Shao et al., Mol. Phys. 113, 184-215 (2015)
 DOI: 10.1080/00268976.2014.952696

 Q-Chem 5.4.1 for Intel X86 EM64T Linux

 Parts of Q-Chem use Armadillo 9.800.1 (Horizon Scraper).
 http://arma.sourceforge.net/

 Q-Chem begins on Thu Nov 17 00:23:29 2022  

 Host: cpu285.baobab
0

     Scratch files written to /scratch/fum/qchem75993//
 Processing $rem in /home/share/wesolowski/qc5.aug2021.FDE/config/preferences:
 Processing $rem in /home/fum/.qchemrc:

 Checking the input file for inconsistencies... 	...done.

--------------------------------------------------------------
User input:
--------------------------------------------------------------
$comment
generated from CCJob.Templates
$end

$rem
sym_ignore = true
method = adc(2)
ee_states = 10
basis = cc-pVDZ
mem_static = 1024
mem_total = 30000
adc_davidson_maxiter = 900
adc_davidson_conv = 6
adc_print = 3
adc_prop_es = true
adc_prop_es2es = true
adc_prop_tpa = true
molden_format = True
state_analysis = true
print_orbitals = 15
gen_scfman = false
fde_export_density = true
fde_details = 3
$end

$molecule
0 1
H -0.0348278765 -0.2442097827 0.0636489606
C -1.0765972949 -0.5242748755 -0.0023551776
H -1.313264467 -1.5767591607 -0.0757276926
C -2.043634118 0.3926884087 0.0011254932999999996
H -1.8137616575 1.4459188338 0.0804456828
H -3.085977293 0.114931858 -0.0593381042                     
$end
--------------------------------------------------------------
 ----------------------------------------------------------------
             Standard Nuclear Orientation (Angstroms)
    I     Atom           X                Y                Z
 ----------------------------------------------------------------
    1      H      -0.0348278765    -0.2442097827     0.0636489606
    2      C      -1.0765972949    -0.5242748755    -0.0023551776
    3      H      -1.3132644670    -1.5767591607    -0.0757276926
    4      C      -2.0436341180     0.3926884087     0.0011254933
    5      H      -1.8137616575     1.4459188338     0.0804456828
    6      H      -3.0859772930     0.1149318580    -0.0593381042
 ----------------------------------------------------------------
 Nuclear Repulsion Energy =          33.42375194 hartrees
 There are        8 alpha and        8 beta electrons
 Requested basis set is cc-pVDZ
 There are 24 shells and 48 basis functions
 Total memory of 30000 MB is distributed as follows: 
   MEM_STATIC is set to 1024 MB
   QALLOC/CCMAN JOB total memory use is  28976 MB
 Warning: actual memory use might exceed 30000 MB

 Total QAlloc Memory Limit  30000 MB
 Mega-Array Size      1001 MB
 MEM_STATIC part      1024 MB

                       Distance Matrix (Angstroms)
             H (  1)   C (  2)   H (  3)   C (  4)   H (  5)
   C (  2)  1.080776
   H (  3)  1.851895  1.081258
   C (  4)  2.108282  1.332664  2.101921
   H (  5)  2.453859  2.105215  3.067812  1.080938
   H (  6)  3.074674  2.109370  2.450428  1.080409  1.846510

 A cutoff of  1.0D-11 yielded    300 shell pairs
 There are      1220 function pairs (      1329 Cartesian)
 Smallest overlap matrix eigenvalue = 4.80E-03

 Scale SEOQF with 1.000000e-01/1.000000e-01/1.000000e+00

 Standard Electronic Orientation quadrupole field applied
 Nucleus-field energy     =     0.0000000022 hartrees
 Guess from superposition of atomic densities
 Warning:  Energy on first SCF cycle will be non-variational
 SAD guess density has 16.000000 electrons
 A restricted Hartree-Fock SCF calculation will be
 performed using Pulay DIIS extrapolation
 SCF converges when DIIS error is below 1.0E-08
 using 8 threads for integral computing
 -------------------------------------------------------
 OpenMP Integral computing Module                
 Release: version 1.0, May 2013, Q-Chem Inc. Pittsburgh 
 -------------------------------------------------------
 ---------------------------------------
  Cycle       Energy         DIIS Error
 ---------------------------------------
    1     -78.4388348886      1.01E-01
    2     -78.0176818015      7.21E-03
    3     -78.0383136894      1.84E-03
    4     -78.0397966280      5.73E-04
    5     -78.0399182683      5.79E-05
    6     -78.0399201441      9.33E-06
    7     -78.0399202048      2.25E-06
    8     -78.0399202076      9.12E-07
    9     -78.0399202079      9.16E-08
   10     -78.0399202079      1.11E-08
   11     -78.0399202079      2.73E-09 Convergence criterion met
 ---------------------------------------
 SCF time:  CPU 1.47 s  wall 2.04 s
 SCF   energy in the final basis set = -78.03992021
 Total energy in the final basis set = -78.03992021
Exporting Density Matrix to file 'Densmat_SCF.txt'.
Export successful
================================================================================
|                                                                              |
|                                 A D C  M A N                                 |
|                                                                              |
 ------------------------------------------------------------------------------ 
|                                                                              |
| Components:                                                                  |
|                                                                              |
| - libvmm - 1.3-trunk                                                         |
|   Authors:                                                                   |
|   Evgeny Epifanovsky, Ilya Kaliman                                           |
|                                                                              |
| - libtensor - 2.5-trunk                                                      |
|   Authors:                                                                   |
|   Evgeny Epifanovsky, Michael Wormit, Dmitry Zuev, Sam Manzer,               |
|   Ilya Kaliman                                                               |
|                                                                              |
| - libwfa - 1.1-trunk                                                         |
|   Authors:                                                                   |
|   Felix Plasser, Stefanie Mewes (Baeppler), Benjamin Thomitzni,              |
|   Michael Wormit, Feng Chen, Anna I. Krylov, Pavel Pokhilko                  |
|                                                                              |
| - libadc - 1.1-trunk                                                         |
|   Authors:                                                                   |
|   Michael Wormit, Adrian L. Dempwolff, Philipp H. P. Harbach,                |
|   Caroline Krauter, Dirk Rehn, Matthias Schneider, Jan Wenzel                |
|                                                                              |
| - adcman - 2.6-trunk                                                         |
|   Authors:                                                                   |
|   Michael Wormit, Adrian L. Dempwolff, Philipp H. P. Harbach,                |
|   Caroline Krauter, Daniel Lefrancois, Jan-Michael Mewes, Dirk Rehn,         |
|   Matthias Schneider, Jan Wenzel, Andreas Dreuw                              |
|                                                                              |
| Authors of earlier versions of ADCMAN:                                       |
| Andreas Dreuw, Jan Hendrik Starcke, Dirk Rehn, Michael Wormit                |
|                                                                              |
================================================================================

 Created directory /scratch/fum/qchem75993/plots
  Import QC data ...  CPU 0.00 s  wall 0.00 s

 Alpha MOs, Restricted
 -- Occupied --                  
-11.235 -11.233  -1.032  -0.790  -0.641  -0.582  -0.505  -0.374
  1 A     2 A     3 A     4 A     5 A     6 A     7 A     8 A                  
 -- Virtual --                   
  0.168   0.204   0.233   0.239   0.303   0.462   0.578   0.615
  9 A    10 A    11 A    12 A    13 A    14 A    15 A    16 A                  
  0.689   0.709   0.785   0.808   0.862   0.936   0.972   1.010
 17 A    18 A    19 A    20 A    21 A    22 A    23 A    24 A                  
  1.130   1.235   1.254   1.266   1.294   1.601   1.727   1.750
 25 A    26 A    27 A    28 A    29 A    30 A    31 A    32 A                  
  1.819   1.859   1.867   1.921   1.977   1.978   2.221   2.258
 33 A    34 A    35 A    36 A    37 A    38 A    39 A    40 A                  
  2.376   2.454   2.506   2.634   2.721   2.822   3.140   3.399
 41 A    42 A    43 A    44 A    45 A    46 A    47 A    48 A                  

 Beta MOs, Restricted
 -- Occupied --                  
-11.235 -11.233  -1.032  -0.790  -0.641  -0.582  -0.505  -0.374
  1 A     2 A     3 A     4 A     5 A     6 A     7 A     8 A                  
 -- Virtual --                   
  0.168   0.204   0.233   0.239   0.303   0.462   0.578   0.615
  9 A    10 A    11 A    12 A    13 A    14 A    15 A    16 A                  
  0.689   0.709   0.785   0.808   0.862   0.936   0.972   1.010
 17 A    18 A    19 A    20 A    21 A    22 A    23 A    24 A                  
  1.130   1.235   1.254   1.266   1.294   1.601   1.727   1.750
 25 A    26 A    27 A    28 A    29 A    30 A    31 A    32 A                  
  1.819   1.859   1.867   1.921   1.977   1.978   2.221   2.258
 33 A    34 A    35 A    36 A    37 A    38 A    39 A    40 A                  
  2.376   2.454   2.506   2.634   2.721   2.822   3.140   3.399
 41 A    42 A    43 A    44 A    45 A    46 A    47 A    48 A                  
  Import AO data ...  CPU 0.00 s  wall 0.01 s
  Using point group: C1
  Irreducible representations in point group: A
  Molecular orbitals: 
  Occupied MOs:
  Block   0:   1 (  A) A   2 (  A) A   3 (  A) A   4 (  A) A   5 (  A) A
                  -11.24      -11.23      -1.032     -0.7898     -0.6411
               6 (  A) A   7 (  A) A   8 (  A) A
                 -0.5819     -0.5046      -0.374
  Block   1:   1 (  A) B   2 (  A) B   3 (  A) B   4 (  A) B   5 (  A) B
                  -11.24      -11.23      -1.032     -0.7898     -0.6411
               6 (  A) B   7 (  A) B   8 (  A) B
                 -0.5819     -0.5046      -0.374
  Virtual MOs:
  Block   0:   9 (  A) A  10 (  A) A  11 (  A) A  12 (  A) A  13 (  A) A
                  0.1684      0.2037       0.233      0.2394      0.3033
              14 (  A) A  15 (  A) A  16 (  A) A  17 (  A) A  18 (  A) A
                   0.462      0.5775      0.6151      0.6891      0.7089
              19 (  A) A  20 (  A) A  21 (  A) A  22 (  A) A
                  0.7846       0.808      0.8622      0.9359
  Block   1:  23 (  A) A  24 (  A) A  25 (  A) A  26 (  A) A  27 (  A) A
                  0.9725        1.01        1.13       1.235       1.254
              28 (  A) A  29 (  A) A  30 (  A) A  31 (  A) A  32 (  A) A
                   1.266       1.294       1.601       1.727        1.75
              33 (  A) A  34 (  A) A  35 (  A) A  36 (  A) A
                   1.819       1.859       1.867       1.921
  Block   2:  37 (  A) A  38 (  A) A  39 (  A) A  40 (  A) A  41 (  A) A
                   1.977       1.978       2.221       2.258       2.376
              42 (  A) A  43 (  A) A  44 (  A) A  45 (  A) A  46 (  A) A
                   2.454       2.506       2.634       2.721       2.822
              47 (  A) A  48 (  A) A
                    3.14       3.399
  Block   3:   9 (  A) B  10 (  A) B  11 (  A) B  12 (  A) B  13 (  A) B
                  0.1684      0.2037       0.233      0.2394      0.3033
              14 (  A) B  15 (  A) B  16 (  A) B  17 (  A) B  18 (  A) B
                   0.462      0.5775      0.6151      0.6891      0.7089
              19 (  A) B  20 (  A) B  21 (  A) B  22 (  A) B
                  0.7846       0.808      0.8622      0.9359
  Block   4:  23 (  A) B  24 (  A) B  25 (  A) B  26 (  A) B  27 (  A) B
                  0.9725        1.01        1.13       1.235       1.254
              28 (  A) B  29 (  A) B  30 (  A) B  31 (  A) B  32 (  A) B
                   1.266       1.294       1.601       1.727        1.75
              33 (  A) B  34 (  A) B  35 (  A) B  36 (  A) B
                   1.819       1.859       1.867       1.921
  Block   5:  37 (  A) B  38 (  A) B  39 (  A) B  40 (  A) B  41 (  A) B
                   1.977       1.978       2.221       2.258       2.376
              42 (  A) B  43 (  A) B  44 (  A) B  45 (  A) B  46 (  A) B
                   2.454       2.506       2.634       2.721       2.822
              47 (  A) B  48 (  A) B
                    3.14       3.399
  Import MO data ...  CPU 0.04 s  wall 0.03 s
  Import HF data ...  CPU 1.85 s  wall 0.77 s
  Import 2e integrals ...  CPU 3.49 s  wall 0.53 s

--------------------------------------------------------------------------------
                                   HF Summary                                   
--------------------------------------------------------------------------------
  Energy:                                                  -78.0399202079 a.u.
  Dip. moment [a.u.]:                  [  -0.000869,    0.000416,    0.003191]
  Total dipole [Debye]:                                               0.008471
  <r^2> [a.u.]:                        [ 175.317765,   34.920328,   11.625096]
  Total <r^2> [a.u.]:                                               221.863189
--------------------------------------------------------------------------------
  HF properties ...  CPU 0.19 s  wall 0.07 s
  MP(1) calculation ...  CPU 0.01 s  wall 0.01 s
  N^6 prerequesite intermediates ...  CPU 0.57 s  wall 0.13 s
  Difference density matrix of state mp2_gs printed to ASCII file 'State_mp2_gs_Difference.txt'
Exporting MP density matrix to file 'Densmat_MP.txt'.
Export successful
  Total density matrix of state mp2_gs printed to ASCII file 'State_mp2_gs_Total.txt'
Exporting MP density matrix to file 'Densmat_MP.txt'.
Export successful

--------------------------------------------------------------------------------
                                 MP(2) Summary                                  
--------------------------------------------------------------------------------
  MP energy contribution:                                   -0.2797052110 a.u.
  Total energy:                                            -78.3196254189 a.u.
  Dip. moment [a.u.]:                  [  -0.000845,    0.000336,    0.003146]
  Total dipole [Debye]:                                               0.008324
  <r^2> [a.u.]:                        [ 175.364611,   34.960852,   11.456944]
  Total <r^2> [a.u.]:                                               221.782407

  Density matrix analysis:
  ------------------------
  NOs
    Occupation of frontier NOs:
       0.0453   1.9383
    Number of electrons: 16.000000
    Number of unpaired electrons: n_u =  0.40343, n_u,nl =  0.04508
    NO participation ratio (PR_NO): 13.857614
  
  
  Mulliken Population Analysis
  Atom      Charge (e)              h+              e-           Del q
  --------------------------------------------------------------------
   1 H        0.050967        0.014030       -0.011202        0.002828
   2 C       -0.100732        0.093218       -0.098846       -0.005628
   3 H        0.050528        0.014076       -0.011191        0.002885
   4 C       -0.101462        0.092987       -0.098899       -0.005913
   5 H        0.050188        0.014120       -0.011185        0.002935
   6 H        0.050510        0.014085       -0.011192        0.002893
  --------------------------------------------------------------------
  Sum:       -0.000000        0.242515       -0.242515        0.000000
  
  Multipole moment analysis of the density matrix
    Molecular charge:                      -0.000000
    Number of electrons:                   16.000000
      Center of electronic charge [Ang]: [ -1.560548,  -0.065613,  -0.000001]
    Total nuclear charge:                  16.000000
      Center of nuclear charge [Ang]:    [ -1.560576,  -0.065602,   0.000103]
    Dipole moment [D]:                     0.008324
      Cartesian components [D]:          [ -0.002149,   0.000854,   0.007997]
    RMS size of the density [Ang]:         1.200821
      Cartesian components [Ang]:        [  0.796167,   0.779469,   0.447791]
  
  Exciton analysis of the difference density matrix
    <r_h> [Ang]:                  [ -1.560371,  -0.065794,  -0.000518]
    <r_e> [Ang]:                  [ -1.560422,  -0.065619,  -0.000421]
    |<r_e - r_h>| [Ang]:            0.000207
    Hole size [Ang]:                1.393693
      Cartesian components [Ang]: [  0.846592,   0.834216,   0.727836]
    Electron size [Ang]:            1.359767
      Cartesian components [Ang]: [  0.877869,   0.861819,   0.579295]
--------------------------------------------------------------------------------
  MP(2) calculation ...  CPU 0.39 s  wall 0.21 s
  Start ADC(2)-s ...  CPU 0.01 s  wall 0.00 s
  ADC(2) intermediates ...  CPU 0.33 s  wall 0.07 s
  Starting Davidson for singlet states of irrep A ... 
--------------------------------------------------------------------------------
   It NVec Conv  Avg. Norm  Max. Norm  Conv. states           Remark
--------------------------------------------------------------------------------
        10    0  1.330e-01  4.687e-01  0.4119 n n n n n n n n Guess.
    1   20    0  2.310e-02  1.109e-01  0.3263 n n n n n n n n 
    2   30    0  5.968e-03  2.547e-02  0.3215 n n n n n n n n 
    3   40    0  2.066e-03  1.162e-02  0.3211 n n n n n n n n 
    4   50    0  5.334e-04  3.349e-03  0.3211 n n n n n n n n 
    5   20    0  2.705e-04  1.703e-03  0.3211 n n n n n n n n Subspace collapsed.
    6   30    0  1.913e-04  1.416e-03  0.3211 n n n n n n n n 
    7   40    0  1.660e-04  1.332e-03  0.3211 n n n n n n n n 
    8   50    0  1.123e-04  9.987e-04  0.3211 n n n n n n n n 
    9   20    1  5.402e-05  4.390e-04  0.3211 n y n n n n n n Subspace collapsed.
   10   30    3  3.571e-05  2.689e-04  0.3211 n y y y n n n n 
   11   40    4  1.926e-05  1.584e-04  0.3211 n y y y y n n n 
   12   50    5  1.148e-05  1.032e-04  0.3211 n y y y y y n n 
   13   20    6  1.080e-05  1.024e-04  0.3211 y y y y y y n n Subspace collapsed.
   14   30    6  1.378e-05  1.330e-04  0.3211 y y y y y y n n 
   15   40    6  1.330e-05  1.310e-04  0.3211 y y y y y y n n 
   16   50    6  1.076e-05  1.066e-04  0.3211 y y y y y y n n 
   17   20    6  4.954e-06  4.913e-05  0.3211 y y y y y y n n Subspace collapsed.
   18   30    6  4.303e-06  4.267e-05  0.3211 y y y y y y n n 
   19   40    8  1.940e-06  1.925e-05  0.3211 y y y y y y y y 
   20   50    8  1.809e-06  1.800e-05  0.3211 y y y y y y y y 
   21   20    8  1.098e-06  1.093e-05  0.3211 y y y y y y y y Subspace collapsed.
   22   30    8  2.312e-06  2.305e-05  0.3211 y y y y y y y y 
   23   40    8  1.911e-06  1.908e-05  0.3211 y y y y y y y y 
   24   42    8  1.910e-06  1.907e-05  0.3211 y y y y y y y y 
   25   43    8  1.897e-06  1.894e-05  0.3211 y y y y y y y y 
   26   44    8  1.881e-06  1.878e-05  0.3211 y y y y y y y y 
   27   44    8  1.881e-06  1.878e-05  0.3211 y y y y y y y y 
   28   50    8  1.969e-06  1.966e-05  0.3211 y y y y y y y y 
   29   16    9  1.094e-06  1.093e-05  0.3211 y y y y y y y y Subspace collapsed.
   30   22    9  8.264e-07  8.252e-06  0.3211 y y y y y y y y 
   31   28    9  6.078e-07  6.071e-06  0.3211 y y y y y y y y 
   32   33    9  6.930e-07  6.925e-06  0.3211 y y y y y y y y 
   33   38    9  7.299e-07  7.296e-06  0.3211 y y y y y y y y 
   34   42    9  5.254e-07  5.253e-06  0.3211 y y y y y y y y 
   35   46    9  2.381e-07  2.381e-06  0.3211 y y y y y y y y 
   36   50    9  1.292e-07  1.292e-06  0.3211 y y y y y y y y 
   37   14   10  6.325e-08  6.324e-07  0.3211 y y y y y y y y Converged.
--------------------------------------------------------------------------------
  Davidson Summary: 
 ------------------------------------------------------------
  State  0: excitation energy =   0.3211 a.u.   (converged)
  State  1: excitation energy =   0.3327 a.u.   (converged)
  State  2: excitation energy =   0.3370 a.u.   (converged)
  State  3: excitation energy =   0.3614 a.u.   (converged)
  State  4: excitation energy =   0.3753 a.u.   (converged)
  State  5: excitation energy =   0.3872 a.u.   (converged)
  State  6: excitation energy =   0.4247 a.u.   (converged)
  State  7: excitation energy =   0.4471 a.u.   (converged)
  State  8: excitation energy =   0.4563 a.u.   (converged)
  State  9: excitation energy =   0.4647 a.u.   (converged)
 ------------------------------------------------------------

  Singlet states of irrep A ...  CPU 120.49 s  wall 37.62 s
  TDMs ...  CPU 1.29 s  wall 0.47 s
  SDMs ...  CPU 2.80 s  wall 0.79 s
  Starting TPA DIIS iterations ... 
------------------------------------ 
   It     Res. Norm  Remark
------------------------------------
                       Guess.
    1     4.405e+00  
    2     5.840e+00  
    3     1.077e+00  
    4     2.566e-01  
    5     6.575e-02  
    6     2.674e-02  
    7     8.238e-03  
    8     1.440e-03  
    9     5.345e-04  
   10     8.994e-05  
   11     2.833e-05  
   12     4.397e-06  
   13     1.501e-06  
   14     4.438e-07  Converged.
   ... Converged in 14 steps (norm: 4.43825e-07)
------------------------------------
  Starting TPA DIIS iterations ... 
------------------------------------ 
   It     Res. Norm  Remark
------------------------------------
                       Guess.
    1     4.185e+00  
    2     5.542e+00  
    3     1.030e+00  
    4     2.556e-01  
    5     6.535e-02  
    6     2.673e-02  
    7     8.117e-03  
    8     1.456e-03  
    9     5.380e-04  
   10     9.009e-05  
   11     2.857e-05  
   12     4.424e-06  
   13     1.462e-06  
   14     4.516e-07  Converged.
   ... Converged in 14 steps (norm: 4.51645e-07)
------------------------------------
  Starting TPA DIIS iterations ... 
------------------------------------ 
   It     Res. Norm  Remark
------------------------------------
                       Guess.
    1     6.870e-01  
    2     4.807e-01  
    3     1.696e-01  
    4     3.714e-02  
    5     1.365e-02  
    6     7.605e-03  
    7     1.048e-03  
    8     4.487e-04  
    9     1.235e-04  
   10     3.003e-05  
   11     4.897e-06  
   12     1.343e-06  
   13     4.594e-07  Converged.
   ... Converged in 13 steps (norm: 4.59416e-07)
------------------------------------
  Starting TPA DIIS iterations ... 
------------------------------------ 
   It     Res. Norm  Remark
------------------------------------
                       Guess.
    1     4.692e+00  
    2     6.355e+00  
    3     1.158e+00  
    4     2.851e-01  
    5     7.406e-02  
    6     3.037e-02  
    7     9.341e-03  
    8     1.630e-03  
    9     6.097e-04  
   10     1.032e-04  
   11     3.284e-05  
   12     5.140e-06  
   13     1.784e-06  
   14     5.239e-07  Converged.
   ... Converged in 14 steps (norm: 5.23921e-07)
------------------------------------
  Starting TPA DIIS iterations ... 
------------------------------------ 
   It     Res. Norm  Remark
------------------------------------
                       Guess.
    1     4.457e+00  
    2     6.030e+00  
    3     1.107e+00  
    4     2.838e-01  
    5     7.362e-02  
    6     3.040e-02  
    7     9.207e-03  
    8     1.650e-03  
    9     6.138e-04  
   10     1.034e-04  
   11     3.311e-05  
   12     5.180e-06  
   13     1.728e-06  
   14     5.360e-07  Converged.
   ... Converged in 14 steps (norm: 5.3598e-07)
------------------------------------
  Starting TPA DIIS iterations ... 
------------------------------------ 
   It     Res. Norm  Remark
------------------------------------
                       Guess.
    1     6.990e-01  
    2     4.977e-01  
    3     1.793e-01  
    4     4.039e-02  
    5     1.524e-02  
    6     8.499e-03  
    7     1.179e-03  
    8     5.286e-04  
    9     1.494e-04  
   10     3.448e-05  
   11     5.526e-06  
   12     1.562e-06  
   13     5.480e-07  Converged.
   ... Converged in 13 steps (norm: 5.48005e-07)
------------------------------------
  Starting TPA DIIS iterations ... 
------------------------------------ 
   It     Res. Norm  Remark
------------------------------------
                       Guess.
    1     4.805e+00  
    2     6.562e+00  
    3     1.190e+00  
    4     2.968e-01  
    5     7.746e-02  
    6     3.187e-02  
    7     9.792e-03  
    8     1.708e-03  
    9     6.406e-04  
   10     1.086e-04  
   11     3.472e-05  
   12     5.448e-06  
   13     1.904e-06  
   14     5.576e-07  Converged.
   ... Converged in 14 steps (norm: 5.57569e-07)
------------------------------------
  Starting TPA DIIS iterations ... 
------------------------------------ 
   It     Res. Norm  Remark
------------------------------------
                       Guess.
    1     4.565e+00  
    2     6.226e+00  
    3     1.137e+00  
    4     2.953e-01  
    5     7.700e-02  
    6     3.190e-02  
    7     9.652e-03  
    8     1.729e-03  
    9     6.449e-04  
   10     1.088e-04  
   11     3.499e-05  
   12     5.495e-06  
   13     1.840e-06  
   14     5.716e-07  Converged.
   ... Converged in 14 steps (norm: 5.71609e-07)
------------------------------------
  Starting TPA DIIS iterations ... 
------------------------------------ 
   It     Res. Norm  Remark
------------------------------------
                       Guess.
    1     7.035e-01  
    2     5.043e-01  
    3     1.831e-01  
    4     4.171e-02  
    5     1.588e-02  
    6     8.852e-03  
    7     1.234e-03  
    8     5.623e-04  
    9     1.602e-04  
   10     3.596e-05  
   11     5.775e-06  
   12     1.654e-06  
   13     5.860e-07  Converged.
   ... Converged in 13 steps (norm: 5.85954e-07)
------------------------------------
  Starting TPA DIIS iterations ... 
------------------------------------ 
   It     Res. Norm  Remark
------------------------------------
                       Guess.
    1     5.545e+00  
    2     7.941e+00  
    3     1.397e+00  
    4     3.768e-01  
    5     1.008e-01  
    6     4.223e-02  
    7     1.290e-02  
    8     2.240e-03  
    9     8.549e-04  
   10     1.463e-04  
   11     4.803e-05  
   12     7.641e-06  
   13     2.800e-06  
   14     8.050e-07  Converged.
   ... Converged in 14 steps (norm: 8.05019e-07)
------------------------------------
  Starting TPA DIIS iterations ... 
------------------------------------ 
   It     Res. Norm  Remark
------------------------------------
                       Guess.
    1     5.265e+00  
    2     7.534e+00  
    3     1.335e+00  
    4     3.742e-01  
    5     1.003e-01  
    6     4.235e-02  
    7     1.272e-02  
    8     2.272e-03  
    9     8.608e-04  
   10     1.467e-04  
   11     4.836e-05  
   12     7.753e-06  
   13     2.663e-06  
   14     8.355e-07  Converged.
   ... Converged in 14 steps (norm: 8.35515e-07)
------------------------------------
  Starting TPA DIIS iterations ... 
------------------------------------ 
   It     Res. Norm  Remark
------------------------------------
                       Guess.
    1     7.301e-01  
    2     5.446e-01  
    3     2.071e-01  
    4     5.064e-02  
    5     2.019e-02  
    6     1.112e-02  
    7     1.627e-03  
    8     8.005e-04  
    9     2.357e-04  
   10     4.177e-05  
   11     7.430e-06  
   12     2.311e-06  
   13     8.741e-07  Converged.
   ... Converged in 13 steps (norm: 8.74129e-07)
------------------------------------
  Starting TPA DIIS iterations ... 
------------------------------------ 
   It     Res. Norm  Remark
------------------------------------
                       Guess.
    1     6.056e+00  
    2     8.927e+00  
    3     1.539e+00  
    4     4.362e-01  
    5     1.181e-01  
    6     5.002e-02  
    7     1.520e-02  
    8     2.634e-03  
    9     1.016e-03  
   10     1.747e-04  
   11     5.828e-05  
   12     9.326e-06  
   13     3.538e-06  
   14     1.009e-06  
   15     5.677e-07  Converged.
   ... Converged in 15 steps (norm: 5.67693e-07)
------------------------------------
  Starting TPA DIIS iterations ... 
------------------------------------ 
   It     Res. Norm  Remark
------------------------------------
                       Guess.
    1     5.749e+00  
    2     8.469e+00  
    3     1.470e+00  
    4     4.328e-01  
    5     1.175e-01  
    6     5.021e-02  
    7     1.500e-02  
    8     2.673e-03  
    9     1.023e-03  
   10     1.752e-04  
   11     5.863e-05  
   12     9.511e-06  
   13     3.326e-06  
   14     1.052e-06  
   15     3.331e-07  Converged.
   ... Converged in 15 steps (norm: 3.33138e-07)
------------------------------------
  Starting TPA DIIS iterations ... 
------------------------------------ 
   It     Res. Norm  Remark
------------------------------------
                       Guess.
    1     7.461e-01  
    2     5.704e-01  
    3     2.230e-01  
    4     5.718e-02  
    5     2.323e-02  
    6     1.266e-02  
    7     1.938e-03  
    8     9.730e-04  
    9     2.893e-04  
   10     4.301e-05  
   11     8.637e-06  
   12     2.828e-06  
   13     1.119e-06  
   14     5.972e-07  Converged.
   ... Converged in 14 steps (norm: 5.97172e-07)
------------------------------------
  Starting TPA DIIS iterations ... 
------------------------------------ 
   It     Res. Norm  Remark
------------------------------------
                       Guess.
    1     6.556e+00  
    2     9.916e+00  
    3     1.677e+00  
    4     4.974e-01  
    5     1.359e-01  
    6     5.810e-02  
    7     1.757e-02  
    8     3.039e-03  
    9     1.183e-03  
   10     2.041e-04  
   11     6.905e-05  
   12     1.109e-05  
   13     4.357e-06  
   14     1.241e-06  
   15     7.462e-07  Converged.
   ... Converged in 15 steps (norm: 7.46179e-07)
------------------------------------
  Starting TPA DIIS iterations ... 
------------------------------------ 
   It     Res. Norm  Remark
------------------------------------
                       Guess.
    1     6.222e+00  
    2     9.407e+00  
    3     1.602e+00  
    4     4.929e-01  
    5     1.353e-01  
    6     5.837e-02  
    7     1.734e-02  
    8     3.085e-03  
    9     1.191e-03  
   10     2.048e-04  
   11     6.941e-05  
   12     1.138e-05  
   13     4.047e-06  
   14     1.294e-06  
   15     4.126e-07  Converged.
   ... Converged in 15 steps (norm: 4.12554e-07)
------------------------------------
  Starting TPA DIIS iterations ... 
------------------------------------ 
   It     Res. Norm  Remark
------------------------------------
                       Guess.
    1     7.605e-01  
    2     5.943e-01  
    3     2.381e-01  
    4     6.387e-02  
    5     2.620e-02  
    6     1.417e-02  
    7     2.270e-03  
    8     1.137e-03  
    9     3.408e-04  
   10     4.345e-05  
   11     9.892e-06  
   12     3.383e-06  
   13     1.399e-06  
   14     7.341e-07  Converged.
   ... Converged in 14 steps (norm: 7.34136e-07)
------------------------------------
  Starting TPA DIIS iterations ... 
------------------------------------ 
   It     Res. Norm  Remark
------------------------------------
                       Guess.
    1     8.661e+00  
    2     1.432e+01  
    3     2.250e+00  
    4     7.821e-01  
    5     2.190e-01  
    6     9.655e-02  
    7     2.863e-02  
    8     4.915e-03  
    9     1.975e-03  
   10     3.429e-04  
   11     1.204e-04  
   12     1.951e-05  
   13     8.885e-06  
   14     2.755e-06  
   15     1.881e-06  
   16     8.128e-07  Converged.
   ... Converged in 16 steps (norm: 8.1279e-07)
------------------------------------
  Starting TPA DIIS iterations ... 
------------------------------------ 
   It     Res. Norm  Remark
------------------------------------
                       Guess.
    1     8.217e+00  
    2     1.359e+01  
    3     2.147e+00  
    4     7.723e-01  
    5     2.181e-01  
    6     9.729e-02  
    7     2.829e-02  
    8     5.000e-03  
    9     1.989e-03  
   10     3.446e-04  
   11     1.209e-04  
   12     2.070e-05  
   13     7.792e-06  
   14     2.652e-06  
   15     8.620e-07  Converged.
   ... Converged in 15 steps (norm: 8.6199e-07)
------------------------------------
  Starting TPA DIIS iterations ... 
------------------------------------ 
   It     Res. Norm  Remark
------------------------------------
                       Guess.
    1     8.093e-01  
    2     6.833e-01  
    3     2.976e-01  
    4     9.515e-02  
    5     3.829e-02  
    6     2.065e-02  
    7     3.935e-03  
    8     1.660e-03  
    9     5.389e-04  
   10     5.166e-05  
   11     1.609e-05  
   12     6.357e-06  
   13     3.162e-06  
   14     1.449e-06  
   15     5.044e-07  Converged.
   ... Converged in 15 steps (norm: 5.04352e-07)
------------------------------------
  Starting TPA DIIS iterations ... 
------------------------------------ 
   It     Res. Norm  Remark
------------------------------------
                       Guess.
    1     1.048e+01  
    2     1.842e+01  
    3     2.733e+00  
    4     1.057e+00  
    5     2.999e-01  
    6     1.349e-01  
    7     3.939e-02  
    8     6.731e-03  
    9     2.761e-03  
   10     4.791e-04  
   11     1.701e-04  
   12     2.781e-05  
   13     1.433e-05  
   14     5.116e-06  
   15     3.451e-06  
   16     1.657e-06  
   17     9.128e-07  Converged.
   ... Converged in 17 steps (norm: 9.12837e-07)
------------------------------------
  Starting TPA DIIS iterations ... 
------------------------------------ 
   It     Res. Norm  Remark
------------------------------------
                       Guess.
    1     9.945e+00  
    2     1.747e+01  
    3     2.606e+00  
    4     1.041e+00  
    5     2.988e-01  
    6     1.361e-01  
    7     3.894e-02  
    8     6.854e-03  
    9     2.781e-03  
   10     4.822e-04  
   11     1.709e-04  
   12     3.066e-05  
   13     1.185e-05  
   14     4.266e-06  
   15     1.492e-06  
   16     7.303e-07  Converged.
   ... Converged in 16 steps (norm: 7.30251e-07)
------------------------------------
  Starting TPA DIIS iterations ... 
------------------------------------ 
   It     Res. Norm  Remark
------------------------------------
                       Guess.
    1     8.416e-01  
    2     7.491e-01  
    3     3.445e-01  
    4     1.262e-01  
    5     4.852e-02  
    6     2.638e-02  
    7     5.621e-03  
    8     1.876e-03  
    9     6.910e-04  
   10     6.939e-05  
   11     2.256e-05  
   12     9.969e-06  
   13     5.762e-06  
   14     2.244e-06  
   15     7.576e-07  Converged.
   ... Converged in 15 steps (norm: 7.57608e-07)
------------------------------------
  Starting TPA DIIS iterations ... 
------------------------------------ 
   It     Res. Norm  Remark
------------------------------------
                       Guess.
    1     1.142e+01  
    2     2.062e+01  
    3     2.977e+00  
    4     1.205e+00  
    5     3.441e-01  
    6     1.561e-01  
    7     4.528e-02  
    8     7.723e-03  
    9     3.196e-03  
   10     5.538e-04  
   11     1.969e-04  
   12     3.243e-05  
   13     1.772e-05  
   14     6.782e-06  
   15     4.519e-06  
   16     2.237e-06  
   17     1.146e-06  
   18     4.865e-07  Converged.
   ... Converged in 18 steps (norm: 4.86543e-07)
------------------------------------
  Starting TPA DIIS iterations ... 
------------------------------------ 
   It     Res. Norm  Remark
------------------------------------
                       Guess.
    1     1.083e+01  
    2     1.956e+01  
    3     2.839e+00  
    4     1.186e+00  
    5     3.430e-01  
    6     1.577e-01  
    7     4.476e-02  
    8     7.867e-03  
    9     3.221e-03  
   10     5.579e-04  
   11     1.981e-04  
   12     3.651e-05  
   13     1.421e-05  
   14     5.255e-06  
   15     1.955e-06  
   16     9.588e-07  Converged.
   ... Converged in 16 steps (norm: 9.58797e-07)
------------------------------------
  Starting TPA DIIS iterations ... 
------------------------------------ 
   It     Res. Norm  Remark
------------------------------------
                       Guess.
    1     8.558e-01  
    2     7.799e-01  
    3     3.673e-01  
    4     1.437e-01  
    5     5.390e-02  
    6     2.928e-02  
    7     6.540e-03  
    8     1.935e-03  
    9     7.649e-04  
   10     8.029e-05  
   11     2.625e-05  
   12     1.227e-05  
   13     7.594e-06  
   14     2.738e-06  
   15     9.393e-07  Converged.
   ... Converged in 15 steps (norm: 9.39327e-07)
------------------------------------
  Starting TPA DIIS iterations ... 
------------------------------------ 
   It     Res. Norm  Remark
------------------------------------
                       Guess.
    1     1.239e+01  
    2     2.295e+01  
    3     3.227e+00  
    4     1.363e+00  
    5     3.916e-01  
    6     1.791e-01  
    7     5.159e-02  
    8     8.785e-03  
    9     3.665e-03  
   10     6.338e-04  
   11     2.254e-04  
   12     3.745e-05  
   13     2.165e-05  
   14     8.814e-06  
   15     5.839e-06  
   16     2.958e-06  
   17     1.406e-06  
   18     6.245e-07  Converged.
   ... Converged in 18 steps (norm: 6.24506e-07)
------------------------------------
  Starting TPA DIIS iterations ... 
------------------------------------ 
   It     Res. Norm  Remark
------------------------------------
                       Guess.
    1     1.175e+01  
    2     2.177e+01  
    3     3.076e+00  
    4     1.340e+00  
    5     3.903e-01  
    6     1.810e-01  
    7     5.101e-02  
    8     8.953e-03  
    9     3.696e-03  
   10     6.391e-04  
   11     2.273e-04  
   12     4.309e-05  
   13     1.683e-05  
   14     6.406e-06  
   15     2.553e-06  
   16     1.246e-06  
   17     6.572e-07  Converged.
   ... Converged in 17 steps (norm: 6.57197e-07)
------------------------------------
  Starting TPA DIIS iterations ... 
------------------------------------ 
   It     Res. Norm  Remark
------------------------------------
                       Guess.
    1     8.690e-01  
    2     8.098e-01  
    3     3.899e-01  
    4     1.626e-01  
    5     5.961e-02  
    6     3.218e-02  
    7     7.512e-03  
    8     1.978e-03  
    9     8.392e-04  
   10     9.209e-05  
   11     3.033e-05  
   12     1.499e-05  
   13     9.873e-06  
   14     3.329e-06  
   15     1.183e-06  
   16     4.334e-07  Converged.
   ... Converged in 16 steps (norm: 4.33448e-07)
------------------------------------
  Two-photon absorbption ...  CPU 116.91 s  wall 30.55 s
  Transition density matrix of state singlet_A_1 printed to ASCII file 'State_singlet_A_1_Transition.txt'
  Transition density matrix of state singlet_A_2 printed to ASCII file 'State_singlet_A_2_Transition.txt'
  Transition density matrix of state singlet_A_3 printed to ASCII file 'State_singlet_A_3_Transition.txt'
  Transition density matrix of state singlet_A_4 printed to ASCII file 'State_singlet_A_4_Transition.txt'
  Transition density matrix of state singlet_A_5 printed to ASCII file 'State_singlet_A_5_Transition.txt'
  Transition density matrix of state singlet_A_6 printed to ASCII file 'State_singlet_A_6_Transition.txt'
  Transition density matrix of state singlet_A_7 printed to ASCII file 'State_singlet_A_7_Transition.txt'
  Transition density matrix of state singlet_A_8 printed to ASCII file 'State_singlet_A_8_Transition.txt'
  Transition density matrix of state singlet_A_9 printed to ASCII file 'State_singlet_A_9_Transition.txt'
  Transition density matrix of state singlet_A_10 printed to ASCII file 'State_singlet_A_10_Transition.txt'
  Transition properties ...  CPU 0.26 s  wall 0.47 s
  Difference density matrix of state singlet_A_1 printed to ASCII file 'State_singlet_A_1_Difference.txt'
  Total density matrix of state singlet_A_1 printed to ASCII file 'State_singlet_A_1_Total.txt'
  Difference density matrix of state singlet_A_2 printed to ASCII file 'State_singlet_A_2_Difference.txt'
  Total density matrix of state singlet_A_2 printed to ASCII file 'State_singlet_A_2_Total.txt'
  Difference density matrix of state singlet_A_3 printed to ASCII file 'State_singlet_A_3_Difference.txt'
  Total density matrix of state singlet_A_3 printed to ASCII file 'State_singlet_A_3_Total.txt'
  Difference density matrix of state singlet_A_4 printed to ASCII file 'State_singlet_A_4_Difference.txt'
  Total density matrix of state singlet_A_4 printed to ASCII file 'State_singlet_A_4_Total.txt'
  Difference density matrix of state singlet_A_5 printed to ASCII file 'State_singlet_A_5_Difference.txt'
  Total density matrix of state singlet_A_5 printed to ASCII file 'State_singlet_A_5_Total.txt'
  Difference density matrix of state singlet_A_6 printed to ASCII file 'State_singlet_A_6_Difference.txt'
  Total density matrix of state singlet_A_6 printed to ASCII file 'State_singlet_A_6_Total.txt'
  Difference density matrix of state singlet_A_7 printed to ASCII file 'State_singlet_A_7_Difference.txt'
  Total density matrix of state singlet_A_7 printed to ASCII file 'State_singlet_A_7_Total.txt'
  Difference density matrix of state singlet_A_8 printed to ASCII file 'State_singlet_A_8_Difference.txt'
  Total density matrix of state singlet_A_8 printed to ASCII file 'State_singlet_A_8_Total.txt'
  Difference density matrix of state singlet_A_9 printed to ASCII file 'State_singlet_A_9_Difference.txt'
  Total density matrix of state singlet_A_9 printed to ASCII file 'State_singlet_A_9_Total.txt'
  Difference density matrix of state singlet_A_10 printed to ASCII file 'State_singlet_A_10_Difference.txt'
  Total density matrix of state singlet_A_10 printed to ASCII file 'State_singlet_A_10_Total.txt'
  Properties ...  CPU 0.73 s  wall 0.63 s
  ISR TDMS ...  CPU 30.39 s  wall 8.32 s
  ISR transition properties ...  CPU 0.20 s  wall 0.08 s
  Sum-over-states TPA ...  CPU 0.00 s  wall 0.00 s

--------------------------------------------------------------------------------
                   State-averaged natural transition orbitals
--------------------------------------------------------------------------------
--------------------------------------------------------------------------------
  SA-NTO decomposition ...  CPU 0.01 s  wall 0.02 s

--------------------------------------------------------------------------------
                             Excited State Summary
--------------------------------------------------------------------------------
--------------------------------------------------------------------------------

  Excited state 1 (singlet, A)                                     [converged]
  ----------------------------------------------------------------------------
  Term symbol:  2 (1) A                                     R^2 =  1.05497e-13

  Total energy:                                            -77.9985399117 a.u.
  Excitation energy:                                               8.737181 eV

  Osc. strength:                                                      0.445608
  Trans. dip. moment [a.u.]:           [   1.045334,   -0.994482,   -0.002876]
  <i|r^2|0> [a.u.]:                    [   6.163909,   -0.247021,   -0.000384]
  Two-photon absorption cross-section (SoS) [a.u.]:                   0.000593
  Two-photon absorption matrix (SoS) [a.u.]:
                                       |    0.005460   -0.001501   -0.002507 |
                                       |   -0.001501    0.001693    0.001411 |
                                       |   -0.002507    0.001411    0.004805 |
  Two-photon absorption cross-section [a.u.]:                         0.000667
  Two-photon absorption matrix [a.u.]:
                                       |    0.000600   -0.002656   -0.003961 |
                                       |   -0.002656   -0.005987    0.005857 |
                                       |   -0.003961    0.005857    0.003914 |

  Dip. moment [a.u.]:                  [  -0.000704,    0.000039,    0.003877]
  Total dipole [Debye]:                                               0.010017
  <r^2> [a.u.]:                        [ 176.119937,   35.650913,   11.866797]
  Total <r^2> [a.u.]:                                               223.637647

  V1^2 = 0.9715, V2^2 = 0.0285

  Important amplitudes:
      occ i     occ j     vir a      vir b          v   
    -----------------------------------------------------
     8 (A) A              9 (A) A                 0.6811
     6 (A) A             14 (A) A                -0.0623
     4 (A) A             10 (A) A                -0.0606
     7 (A) A             16 (A) A                 0.0570
     5 (A) A             13 (A) A                -0.0513
     6 (A) A             23 (A) A                -0.0486
     8 (A) A             20 (A) A                 0.0350
     6 (A) A             19 (A) A                -0.0309
     3 (A) A             12 (A) A                 0.0281
     5 (A) A             22 (A) A                 0.0215
     7 (A) A             11 (A) A                 0.0209
     4 (A) A             24 (A) A                -0.0187
     3 (A) A             26 (A) A                -0.0185
     8 (A) A   8 (A) B   17 (A) A   20 (A) B     -0.0184
     8 (A) A   8 (A) B    9 (A) A   28 (A) B     -0.0168
     6 (A) A             26 (A) A                -0.0163
     7 (A) A             21 (A) A                 0.0148
     3 (A) A             14 (A) A                -0.0139
     6 (A) A             12 (A) A                -0.0132
     3 (A) A   4 (A) B    9 (A) A    9 (A) B      0.0129
     3 (A) A             19 (A) A                -0.0119
     8 (A) A   8 (A) B   18 (A) A   19 (A) B      0.0113
     7 (A) A             32 (A) A                 0.0096
     7 (A) A             36 (A) A                 0.0086
     3 (A) A             23 (A) A                -0.0080
     8 (A) A   8 (A) B   25 (A) A   29 (A) B      0.0076
     6 (A) A             35 (A) A                -0.0072
     6 (A) A             40 (A) A                -0.0068
     3 (A) A   6 (A) B    9 (A) A   28 (A) B     -0.0065
     6 (A) A   8 (A) A   19 (A) A   28 (A) A     -0.0061
     5 (A) A   7 (A) B    9 (A) A    9 (A) B     -0.0060
     5 (A) A   8 (A) B   11 (A) A   20 (A) B     -0.0059
     7 (A) A   8 (A) B   13 (A) A   20 (A) B      0.0059
     5 (A) A   8 (A) B   16 (A) A    9 (A) B     -0.0059
     5 (A) A   8 (A) B   11 (A) A    9 (A) B      0.0059
     3 (A) A   5 (A) B    9 (A) A   25 (A) B     -0.0058
     3 (A) A             40 (A) A                -0.0057
     7 (A) A   8 (A) B   22 (A) A   20 (A) B     -0.0057
     6 (A) A   8 (A) A    9 (A) A   18 (A) A     -0.0057
     8 (A) A   8 (A) B   19 (A) A   30 (A) B      0.0056
    -----------------------------------------------------

  Density matrix analysis:
  ------------------------
  NOs
    Occupation of frontier NOs:
       0.9495   1.0217
    Number of electrons: 16.000000
    Number of unpaired electrons: n_u =  2.31339, n_u,nl =  2.03264
    NO participation ratio (PR_NO):  2.863908
  
  
  Mulliken Population Analysis
  Atom      Charge (e)              h+              e-           Del q
  --------------------------------------------------------------------
   1 H        0.058717        0.020290       -0.012540        0.007749
   2 C       -0.115932        0.490892       -0.506092       -0.015200
   3 H        0.058101        0.020178       -0.012605        0.007573
   4 C       -0.116987        0.490733       -0.506258       -0.015525
   5 H        0.057807        0.020206       -0.012587        0.007619
   6 H        0.058294        0.020331       -0.012548        0.007783
  --------------------------------------------------------------------
  Sum:       -0.000000        1.062630       -1.062630        0.000000
  
  Multipole moment analysis of the density matrix
    Molecular charge:                      -0.000000
    Number of electrons:                   16.000000
      Center of electronic charge [Ang]: [ -1.560553,  -0.065604,  -0.000025]
    Total nuclear charge:                  16.000000
      Center of nuclear charge [Ang]:    [ -1.560576,  -0.065602,   0.000103]
    Dipole moment [D]:                     0.010017
      Cartesian components [D]:          [ -0.001790,   0.000098,   0.009855]
    RMS size of the density [Ang]:         1.214260
      Cartesian components [Ang]:        [  0.804417,   0.787179,   0.455730]
  
  Exciton analysis of the difference density matrix
    <r_h> [Ang]:                  [ -1.560188,  -0.065719,  -0.001591]
    <r_e> [Ang]:                  [ -1.560258,  -0.065571,  -0.001955]
    |<r_e - r_h>| [Ang]:            0.000399
    Hole size [Ang]:                1.285449
      Cartesian components [Ang]: [  0.728467,   0.712680,   0.783455]
    Electron size [Ang]:            1.463242
      Cartesian components [Ang]: [  0.854103,   0.830530,   0.849592]

  Transition density matrix analysis:
  -----------------------------------
  
  CT numbers (Mulliken)
    omega =     0.9535
    <Phe> =    -0.1607
  
  Exciton analysis of the transition density matrix
    Trans. dipole moment [D]:             1.833640
      Cartesian components [D]:         [  1.328487,  -1.263861,  -0.003655]
    <r_h> [Ang]:                        [ -1.560049,  -0.065868,  -0.001294]
    <r_e> [Ang]:                        [ -1.560264,  -0.065541,  -0.002205]
    |<r_e - r_h>| [Ang]:                  0.000991
    Hole size [Ang]:                      1.214144
      Cartesian components [Ang]:       [  0.649596,   0.636435,   0.804438]
    Electron size [Ang]:                  1.486105
      Cartesian components [Ang]:       [  0.864542,   0.839447,   0.869715]
    RMS electron-hole separation [Ang]:   1.936755
      Cartesian components [Ang]:       [  1.106800,   1.075204,   1.170448]
    Covariance(r_h, r_e) [Ang^2]:        -0.034183
    Correlation coefficient:             -0.018945
    Center-of-mass size [Ang]:            0.950564
      Cartesian components [Ang]:       [  0.527686,   0.515601,   0.599395]

  Decomposition into state-averaged NTOs
    H- 0 -> L+ 0: -0.6699 ( 89.7%)
    H- 2 -> L+ 5: -0.0836 (  1.4%)
                   omega =  95.4%
  ----------------------------------------------------------------------------


  Excited state 2 (singlet, A)                                     [converged]
  ----------------------------------------------------------------------------
  Term symbol:  3 (1) A                                     R^2 =  2.49919e-13

  Total energy:                                            -77.9868956288 a.u.
  Excitation energy:                                               9.054038 eV

  Osc. strength:                                                      0.000008
  Trans. dip. moment [a.u.]:           [  -0.002199,    0.005303,   -0.001306]
  <i|r^2|0> [a.u.]:                    [   0.062178,    0.076633,   -0.150427]
  Two-photon absorption cross-section (SoS) [a.u.]:                   4.884458
  Two-photon absorption matrix (SoS) [a.u.]:
                                       |    0.070354    0.059441   -0.537988 |
                                       |    0.059441    0.047746   -0.554163 |
                                       |   -0.537988   -0.554163   -0.117324 |
  Two-photon absorption cross-section [a.u.]:                         0.096834
  Two-photon absorption matrix [a.u.]:
                                       |    0.042782   -0.004980    0.059699 |
                                       |   -0.004980   -0.057856    0.076257 |
                                       |    0.059699    0.076257    0.014934 |

  Dip. moment [a.u.]:                  [  -0.005682,    0.008008,    0.007438]
  Total dipole [Debye]:                                               0.031309
  <r^2> [a.u.]:                        [ 174.513867,   33.966220,   13.172303]
  Total <r^2> [a.u.]:                                               221.652390

  V1^2 = 0.9542, V2^2 = 0.0458

  Important amplitudes:
      occ i     occ j     vir a      vir b          v   
    -----------------------------------------------------
     7 (A) A              9 (A) A                -0.6693
     8 (A) A             11 (A) A                -0.1481
     7 (A) A             20 (A) A                -0.0759
     5 (A) A   8 (A) B    9 (A) A    9 (A) B      0.0316
     8 (A) A             16 (A) A                 0.0273
     8 (A) A             21 (A) A                -0.0175
     5 (A) A             28 (A) A                 0.0151
     4 (A) A   7 (A) B    9 (A) A   19 (A) B      0.0135
     5 (A) A   7 (A) B    9 (A) A   16 (A) B     -0.0134
     7 (A) A   8 (A) B   20 (A) A   17 (A) B      0.0105
     7 (A) A   8 (A) A    9 (A) A   28 (A) A     -0.0098
     5 (A) A   8 (A) B    9 (A) A   20 (A) B      0.0096
     4 (A) A   6 (A) B    9 (A) A   16 (A) B     -0.0091
     5 (A) A   6 (A) A    9 (A) A   23 (A) A      0.0091
     5 (A) A   6 (A) A    9 (A) A   14 (A) A      0.0089
     5 (A) A   6 (A) B    9 (A) A   19 (A) B      0.0087
     8 (A) A   7 (A) B    9 (A) A   28 (A) B      0.0085
     4 (A) A   5 (A) A    9 (A) A   10 (A) A     -0.0085
     6 (A) A   7 (A) B    9 (A) A   18 (A) B      0.0083
     5 (A) A   6 (A) B    9 (A) A   23 (A) B      0.0080
     3 (A) A   7 (A) B    9 (A) A   18 (A) B     -0.0080
     5 (A) A   7 (A) A    9 (A) A   16 (A) A     -0.0079
     4 (A) A   8 (A) B    9 (A) A   25 (A) B     -0.0077
     7 (A) A   8 (A) B   17 (A) A   20 (A) B      0.0074
     4 (A) A   7 (A) B   19 (A) A    9 (A) B      0.0074
     5 (A) A   5 (A) B    9 (A) A   13 (A) B      0.0072
     7 (A) A   8 (A) B   19 (A) A   18 (A) B     -0.0072
     5 (A) A   8 (A) A    9 (A) A   20 (A) A      0.0069
     4 (A) A   5 (A) B    9 (A) A   18 (A) B      0.0068
     7 (A) A   7 (A) B   20 (A) A   22 (A) B      0.0065
     7 (A) A   8 (A) B   17 (A) A    9 (A) B      0.0065
     5 (A) A   6 (A) B    9 (A) A   14 (A) B      0.0063
     4 (A) A   7 (A) A    9 (A) A   19 (A) A      0.0061
     4 (A) A   5 (A) B   10 (A) A    9 (A) B      0.0061
     5 (A) A             38 (A) A                 0.0061
     5 (A) A   7 (A) B   11 (A) A   20 (A) B      0.0060
     4 (A) A   7 (A) B    9 (A) A   14 (A) B     -0.0060
     4 (A) A   8 (A) A    9 (A) A   25 (A) A     -0.0057
     6 (A) A   7 (A) A   19 (A) A   28 (A) A      0.0057
     5 (A) A   7 (A) A   11 (A) A   20 (A) A      0.0053
    -----------------------------------------------------

  Density matrix analysis:
  ------------------------
  NOs
    Occupation of frontier NOs:
       0.9581   1.0536
    Number of electrons: 16.000000
    Number of unpaired electrons: n_u =  2.35532, n_u,nl =  2.06269
    NO participation ratio (PR_NO):  3.026772
  
  
  Mulliken Population Analysis
  Atom      Charge (e)              h+              e-           Del q
  --------------------------------------------------------------------
   1 H        0.148498        0.121349       -0.023818        0.097531
   2 C       -0.301986        0.270841       -0.472095       -0.201255
   3 H        0.152623        0.127259       -0.025164        0.102095
   4 C       -0.302578        0.273174       -0.474290       -0.201116
   5 H        0.154615        0.128380       -0.023953        0.104427
   6 H        0.148828        0.123059       -0.024741        0.098318
  --------------------------------------------------------------------
  Sum:       -0.000000        1.044062       -1.044062        0.000000
  
  Multipole moment analysis of the density matrix
    Molecular charge:                      -0.000000
    Number of electrons:                   16.000000
      Center of electronic charge [Ang]: [ -1.560388,  -0.065867,  -0.000143]
    Total nuclear charge:                  16.000000
      Center of nuclear charge [Ang]:    [ -1.560576,  -0.065602,   0.000103]
    Dipole moment [D]:                     0.031309
      Cartesian components [D]:          [ -0.014442,   0.020354,   0.018905]
    RMS size of the density [Ang]:         1.200067
      Cartesian components [Ang]:        [  0.787078,   0.768200,   0.480145]
  
  Exciton analysis of the difference density matrix
    <r_h> [Ang]:                  [ -1.564833,  -0.062529,   0.000455]
    <r_e> [Ang]:                  [ -1.562382,  -0.066417,  -0.001721]
    |<r_e - r_h>| [Ang]:            0.005085
    Hole size [Ang]:                1.486310
      Cartesian components [Ang]: [  0.998364,   1.002979,   0.454334]
    Electron size [Ang]:            1.476959
      Cartesian components [Ang]: [  0.881033,   0.859473,   0.816391]

  Transition density matrix analysis:
  -----------------------------------
  
  CT numbers (Mulliken)
    omega =     0.9218
    <Phe> =    -0.0121
  
  Exciton analysis of the transition density matrix
    Trans. dipole moment [D]:             0.007483
      Cartesian components [D]:         [ -0.002794,   0.006740,  -0.001660]
    <r_h> [Ang]:                        [ -1.565531,  -0.061947,   0.000907]
    <r_e> [Ang]:                        [ -1.561884,  -0.066946,  -0.002208]
    |<r_e - r_h>| [Ang]:                  0.006928
    Hole size [Ang]:                      1.514993
      Cartesian components [Ang]:       [  1.020907,   1.027556,   0.443939]
    Electron size [Ang]:                  1.474022
      Cartesian components [Ang]:       [  0.871635,   0.848769,   0.832216]
    RMS electron-hole separation [Ang]:   2.093936
      Cartesian components [Ang]:       [  1.326514,   1.317822,   0.942481]
    Covariance(r_h, r_e) [Ang^2]:         0.041713
    Correlation coefficient:              0.018679
    Center-of-mass size [Ang]:            1.066697
      Cartesian components [Ang]:       [  0.679038,   0.673782,   0.471982]

  Decomposition into state-averaged NTOs
    H- 1 -> L+ 0:  0.6616 ( 87.5%)
    H- 0 -> L+ 2:  0.1480 (  4.4%)
                   omega =  92.2%
  ----------------------------------------------------------------------------


  Excited state 3 (singlet, A)                                     [converged]
  ----------------------------------------------------------------------------
  Term symbol:  4 (1) A                                     R^2 =  2.10576e-13

  Total energy:                                            -77.9826005591 a.u.
  Excitation energy:                                               9.170913 eV

  Osc. strength:                                                      0.025227
  Trans. dip. moment [a.u.]:           [   0.008142,    0.027123,   -0.333883]
  <i|r^2|0> [a.u.]:                    [   0.047171,    0.002208,    0.001902]
  Two-photon absorption cross-section (SoS) [a.u.]:                   0.008393
  Two-photon absorption matrix (SoS) [a.u.]:
                                       |    0.016235    0.001688   -0.011145 |
                                       |    0.001688   -0.007934   -0.007261 |
                                       |   -0.011145   -0.007261    0.027666 |
  Two-photon absorption cross-section [a.u.]:                         0.008997
  Two-photon absorption matrix [a.u.]:
                                       |    0.023545   -0.002985   -0.013045 |
                                       |   -0.002985    0.004895   -0.003234 |
                                       |   -0.013045   -0.003234    0.016624 |

  Dip. moment [a.u.]:                  [   0.000346,    0.010448,   -0.003640]
  Total dipole [Debye]:                                               0.028134
  <r^2> [a.u.]:                        [ 180.862639,   40.610760,   11.027212]
  Total <r^2> [a.u.]:                                               232.500610

  V1^2 = 0.9587, V2^2 = 0.0413

  Important amplitudes:
      occ i     occ j     vir a      vir b          v   
    -----------------------------------------------------
     8 (A) A             10 (A) A                 0.6891
     8 (A) A             24 (A) A                 0.0507
     8 (A) A             18 (A) A                -0.0312
     4 (A) A              9 (A) A                -0.0238
     8 (A) A   8 (A) B    9 (A) A   12 (A) B      0.0219
     8 (A) A   8 (A) B   10 (A) A   17 (A) B      0.0173
     8 (A) A             15 (A) A                 0.0169
     5 (A) A   8 (A) B   11 (A) A   10 (A) B      0.0165
     7 (A) A   8 (A) B   13 (A) A   10 (A) B     -0.0141
     4 (A) A   8 (A) B   12 (A) A   10 (A) B     -0.0111
     6 (A) A   8 (A) A   10 (A) A   15 (A) A     -0.0110
     7 (A) A   8 (A) B   22 (A) A   10 (A) B      0.0108
     6 (A) A   8 (A) B   15 (A) A   10 (A) B      0.0108
     4 (A) A   8 (A) A   10 (A) A   12 (A) A      0.0106
     7 (A) A   8 (A) A   10 (A) A   22 (A) A     -0.0099
     7 (A) A   8 (A) A   10 (A) A   13 (A) A      0.0097
     5 (A) A   8 (A) B   21 (A) A   10 (A) B      0.0094
     5 (A) A   8 (A) A   10 (A) A   11 (A) A     -0.0094
     6 (A) A   8 (A) A   10 (A) A   18 (A) A     -0.0088
     6 (A) A   8 (A) B   10 (A) A   10 (A) B     -0.0087
     7 (A) A   8 (A) A   12 (A) A   16 (A) A      0.0082
     5 (A) A   8 (A) A   10 (A) A   21 (A) A     -0.0080
     3 (A) A   4 (A) B   10 (A) A    9 (A) B      0.0079
     4 (A) A   8 (A) B   19 (A) A   10 (A) B      0.0075
     8 (A) A   8 (A) B    9 (A) A   23 (A) B      0.0075
     8 (A) A   8 (A) B   10 (A) A   28 (A) B     -0.0073
     3 (A) A   8 (A) B   10 (A) A   10 (A) B      0.0072
     5 (A) A   8 (A) B   10 (A) A   11 (A) B      0.0071
     3 (A) A   8 (A) A   10 (A) A   24 (A) A     -0.0071
     7 (A) A   8 (A) B   16 (A) A   12 (A) B     -0.0070
     3 (A) A   8 (A) B   10 (A) A   18 (A) B     -0.0069
     8 (A) A   8 (A) B    9 (A) A   19 (A) B     -0.0068
     6 (A) A   8 (A) B   18 (A) A   10 (A) B      0.0067
     3 (A) A   6 (A) B   10 (A) A   28 (A) B     -0.0062
     7 (A) A   8 (A) B   12 (A) A   11 (A) B      0.0058
     6 (A) A             28 (A) A                 0.0057
     3 (A) A   5 (A) B   10 (A) A   25 (A) B     -0.0056
     5 (A) A   8 (A) A   10 (A) A   16 (A) A      0.0056
     3 (A) A   8 (A) A   10 (A) A   18 (A) A     -0.0056
     4 (A) A   8 (A) A   10 (A) A   23 (A) A      0.0055
    -----------------------------------------------------

  Density matrix analysis:
  ------------------------
  NOs
    Occupation of frontier NOs:
       0.9814   0.9850
    Number of electrons: 16.000000
    Number of unpaired electrons: n_u =  2.28524, n_u,nl =  2.02440
    NO participation ratio (PR_NO):  2.691882
  
  
  Mulliken Population Analysis
  Atom      Charge (e)              h+              e-           Del q
  --------------------------------------------------------------------
   1 H       -0.162782        0.053862       -0.267611       -0.213750
   2 C        0.327726        0.538874       -0.110416        0.428458
   3 H       -0.165868        0.053765       -0.270161       -0.216396
   4 C        0.326735        0.537616       -0.109418        0.428197
   5 H       -0.162701        0.053962       -0.266851       -0.212889
   6 H       -0.163110        0.053887       -0.267507       -0.213620
  --------------------------------------------------------------------
  Sum:       -0.000000        1.291965       -1.291965        0.000000
  
  Multipole moment analysis of the density matrix
    Molecular charge:                      -0.000000
    Number of electrons:                   16.000000
      Center of electronic charge [Ang]: [ -1.560588,  -0.065948,   0.000224]
    Total nuclear charge:                  16.000000
      Center of nuclear charge [Ang]:    [ -1.560576,  -0.065602,   0.000103]
    Dipole moment [D]:                     0.028134
      Cartesian components [D]:          [  0.000880,   0.026555,  -0.009251]
    RMS size of the density [Ang]:         1.276476
      Cartesian components [Ang]:        [  0.854391,   0.840483,   0.439313]
  
  Exciton analysis of the difference density matrix
    <r_h> [Ang]:                  [ -1.560081,  -0.066007,  -0.000880]
    <r_e> [Ang]:                  [ -1.560569,  -0.070148,   0.001900]
    |<r_e - r_h>| [Ang]:            0.005012
    Hole size [Ang]:                1.410237
      Cartesian components [Ang]: [  0.833938,   0.819851,   0.788137]
    Electron size [Ang]:            2.076008
      Cartesian components [Ang]: [  1.373174,   1.377021,   0.726646]

  Transition density matrix analysis:
  -----------------------------------
  
  CT numbers (Mulliken)
    omega =     0.9259
    <Phe> =    -0.0109
  
  Exciton analysis of the transition density matrix
    Trans. dipole moment [D]:             0.425846
      Cartesian components [D]:         [  0.010347,   0.034470,  -0.424322]
    <r_h> [Ang]:                        [ -1.559798,  -0.065716,  -0.001714]
    <r_e> [Ang]:                        [ -1.560489,  -0.071743,   0.002617]
    |<r_e - r_h>| [Ang]:                  0.007454
    Hole size [Ang]:                      1.212927
      Cartesian components [Ang]:       [  0.636379,   0.623598,   0.823006]
    Electron size [Ang]:                  2.296434
      Cartesian components [Ang]:       [  1.517796,   1.524631,   0.803371]
    RMS electron-hole separation [Ang]:   2.587183
      Cartesian components [Ang]:       [  1.638319,   1.640258,   1.148469]
    Covariance(r_h, r_e) [Ang^2]:         0.025670
    Correlation coefficient:              0.009216
    Center-of-mass size [Ang]:            1.303471
      Cartesian components [Ang]:       [  0.826631,   0.827095,   0.575875]

  Decomposition into state-averaged NTOs
    H- 0 -> L+ 1:  0.6797 ( 92.4%)
                   omega =  92.6%
  ----------------------------------------------------------------------------


  Excited state 4 (singlet, A)                                     [converged]
  ----------------------------------------------------------------------------
  Term symbol:  5 (1) A                                     R^2 =  1.81026e-13

  Total energy:                                            -77.9582568291 a.u.
  Excitation energy:                                               9.833339 eV

  Osc. strength:                                                      0.000001
  Trans. dip. moment [a.u.]:           [   0.000983,   -0.001477,    0.000702]
  <i|r^2|0> [a.u.]:                    [   0.025455,    0.016427,   -0.036327]
  Two-photon absorption cross-section (SoS) [a.u.]:                 149.634680
  Two-photon absorption matrix (SoS) [a.u.]:
                                       |    0.355841    0.327054   -3.009514 |
                                       |    0.327054    0.296245   -3.036723 |
                                       |   -3.009514   -3.036723   -0.650101 |
  Two-photon absorption cross-section [a.u.]:                        91.931743
  Two-photon absorption matrix [a.u.]:
                                       |    0.314723    0.258421   -2.350228 |
                                       |    0.258421    0.197607   -2.387923 |
                                       |   -2.350228   -2.387923   -0.509684 |

  Dip. moment [a.u.]:                  [  -0.009871,   -0.004274,   -0.005352]
  Total dipole [Debye]:                                               0.030538
  <r^2> [a.u.]:                        [ 181.239603,   40.535935,   10.764129]
  Total <r^2> [a.u.]:                                               232.539668

  V1^2 = 0.9635, V2^2 = 0.0365

  Important amplitudes:
      occ i     occ j     vir a      vir b          v   
    -----------------------------------------------------
     8 (A) A             11 (A) A                -0.6697
     7 (A) A              9 (A) A                 0.1501
     8 (A) A             21 (A) A                -0.0781
     8 (A) A             16 (A) A                 0.0646
     8 (A) A   8 (A) B    9 (A) A   13 (A) B      0.0167
     5 (A) A   8 (A) B   11 (A) A   11 (A) B     -0.0155
     8 (A) A   8 (A) B   11 (A) A   17 (A) B     -0.0140
     7 (A) A             20 (A) A                 0.0137
     7 (A) A   8 (A) B   13 (A) A   11 (A) B      0.0127
     8 (A) A             12 (A) A                -0.0115
     5 (A) A   8 (A) A   11 (A) A   21 (A) A      0.0110
     4 (A) A   8 (A) B   12 (A) A   11 (A) B      0.0110
     8 (A) A   8 (A) B    9 (A) A   22 (A) B     -0.0108
     7 (A) A   8 (A) A   11 (A) A   22 (A) A      0.0096
     6 (A) A   8 (A) B   15 (A) A   11 (A) B     -0.0090
     6 (A) A   8 (A) B   10 (A) A   11 (A) B      0.0090
     7 (A) A   8 (A) B   22 (A) A   11 (A) B     -0.0089
     3 (A) A   4 (A) B   11 (A) A    9 (A) B     -0.0083
     3 (A) A   8 (A) B   11 (A) A   18 (A) B      0.0081
     6 (A) A   8 (A) A   11 (A) A   15 (A) A      0.0080
     6 (A) A              9 (A) A                -0.0079
     7 (A) A   8 (A) A   13 (A) A   16 (A) A      0.0078
     7 (A) A   8 (A) A   11 (A) A   13 (A) A     -0.0077
     5 (A) A   8 (A) B   21 (A) A   11 (A) B     -0.0071
     4 (A) A   8 (A) B   19 (A) A   11 (A) B     -0.0070
     5 (A) A   8 (A) B    9 (A) A    9 (A) B     -0.0068
     4 (A) A   8 (A) A   11 (A) A   12 (A) A     -0.0062
     6 (A) A   8 (A) A   11 (A) A   18 (A) A      0.0062
     3 (A) A   6 (A) B   11 (A) A   28 (A) B      0.0060
     6 (A) A   8 (A) B   18 (A) A   11 (A) B     -0.0060
     7 (A) A   8 (A) B   16 (A) A   13 (A) B     -0.0057
     3 (A) A   8 (A) A   11 (A) A   18 (A) A      0.0056
     5 (A) A   8 (A) B   10 (A) A   10 (A) B     -0.0056
     3 (A) A   8 (A) B   11 (A) A   30 (A) B      0.0055
     3 (A) A   5 (A) B   11 (A) A   25 (A) B      0.0054
     6 (A) A   8 (A) B   11 (A) A   10 (A) B      0.0054
     7 (A) A   8 (A) B   12 (A) A   10 (A) B     -0.0054
     8 (A) A   8 (A) B   20 (A) A   22 (A) B     -0.0053
     3 (A) A   8 (A) A   11 (A) A   24 (A) A      0.0053
     5 (A) A   8 (A) A   11 (A) A   16 (A) A     -0.0048
    -----------------------------------------------------

  Density matrix analysis:
  ------------------------
  NOs
    Occupation of frontier NOs:
       0.9408   1.0277
    Number of electrons: 16.000000
    Number of unpaired electrons: n_u =  2.31914, n_u,nl =  2.04905
    NO participation ratio (PR_NO):  2.914022
  
  
  Mulliken Population Analysis
  Atom      Charge (e)              h+              e-           Del q
  --------------------------------------------------------------------
   1 H       -0.146049        0.045727       -0.242743       -0.197016
   2 C        0.275008        0.497184       -0.121444        0.375740
   3 H       -0.129168        0.046962       -0.226658       -0.179696
   4 C        0.273190        0.496866       -0.122214        0.374652
   5 H       -0.130590        0.047087       -0.227864       -0.180778
   6 H       -0.142391        0.045800       -0.238701       -0.192901
  --------------------------------------------------------------------
  Sum:       -0.000000        1.179624       -1.179624        0.000000
  
  Multipole moment analysis of the density matrix
    Molecular charge:                      -0.000000
    Number of electrons:                   16.000000
      Center of electronic charge [Ang]: [ -1.560250,  -0.065461,   0.000280]
    Total nuclear charge:                  16.000000
      Center of nuclear charge [Ang]:    [ -1.560576,  -0.065602,   0.000103]
    Dipole moment [D]:                     0.030538
      Cartesian components [D]:          [ -0.025090,  -0.010864,  -0.013603]
    RMS size of the density [Ang]:         1.277182
      Cartesian components [Ang]:        [  0.858858,   0.839742,   0.434041]
  
  Exciton analysis of the difference density matrix
    <r_h> [Ang]:                  [ -1.560142,  -0.065434,  -0.000994]
    <r_e> [Ang]:                  [ -1.556093,  -0.063365,   0.002818]
    |<r_e - r_h>| [Ang]:            0.005933
    Hole size [Ang]:                1.394806
      Cartesian components [Ang]: [  0.818101,   0.806992,   0.790543]
    Electron size [Ang]:            2.124148
      Cartesian components [Ang]: [  1.441027,   1.405332,   0.678590]

  Transition density matrix analysis:
  -----------------------------------
  
  CT numbers (Mulliken)
    omega =     0.9298
    <Phe> =    -0.0135
  
  Exciton analysis of the transition density matrix
    Trans. dipole moment [D]:             0.002425
      Cartesian components [D]:         [  0.001249,  -0.001877,   0.000893]
    <r_h> [Ang]:                        [ -1.560385,  -0.065550,  -0.001610]
    <r_e> [Ang]:                        [ -1.555378,  -0.062814,   0.003376]
    |<r_e - r_h>| [Ang]:                  0.007578
    Hole size [Ang]:                      1.227911
      Cartesian components [Ang]:       [  0.657641,   0.650415,   0.807611]
    Electron size [Ang]:                  2.262267
      Cartesian components [Ang]:       [  1.535311,   1.496989,   0.720898]
    RMS electron-hole separation [Ang]:   2.563353
      Cartesian components [Ang]:       [  1.661687,   1.624390,   1.082097]
    Covariance(r_h, r_e) [Ang^2]:         0.027447
    Correlation coefficient:              0.009881
    Center-of-mass size [Ang]:            1.292334
      Cartesian components [Ang]:       [  0.839369,   0.819969,   0.541514]

  Decomposition into state-averaged NTOs
    H- 0 -> L+ 2:  0.6650 ( 88.5%)
    H- 1 -> L+ 0: -0.1481 (  4.4%)
                   omega =  93.0%
  ----------------------------------------------------------------------------


  Excited state 5 (singlet, A)                                     [converged]
  ----------------------------------------------------------------------------
  Term symbol:  6 (1) A                                     R^2 =  2.95593e-13

  Total energy:                                            -77.9443325867 a.u.
  Excitation energy:                                              10.212237 eV

  Osc. strength:                                                      0.000000
  Trans. dip. moment [a.u.]:           [  -0.000234,   -0.000156,   -0.000311]
  <i|r^2|0> [a.u.]:                    [  -0.092260,    0.100786,   -0.013470]
  Two-photon absorption cross-section (SoS) [a.u.]:                 178.424436
  Two-photon absorption matrix (SoS) [a.u.]:
                                       |   -0.374060   -0.009907    3.351872 |
                                       |   -0.009907    0.337922   -3.307028 |
                                       |    3.351872   -3.307028   -0.062825 |
  Two-photon absorption cross-section [a.u.]:                        79.962916
  Two-photon absorption matrix [a.u.]:
                                       |   -0.280554   -0.024889    2.226254 |
                                       |   -0.024889    0.194204   -2.230642 |
                                       |    2.226254   -2.230642   -0.037743 |

  Dip. moment [a.u.]:                  [   0.007579,   -0.010317,    0.001339]
  Total dipole [Debye]:                                               0.032716
  <r^2> [a.u.]:                        [ 178.425998,   38.326326,   11.927333]
  Total <r^2> [a.u.]:                                               228.679658

  V1^2 = 0.9573, V2^2 = 0.0427

  Important amplitudes:
[...]
    16   -1.382018559114e-03
    17   -1.850570666487e-03
    18   -1.132991656498e-04
    19   -3.320687446020e-03
    20    1.075216805115e-02
    21    9.342457485370e-01
    22   -2.726750316665e-04
    23    1.397450918531e-02
    24    8.604185125799e-04
    25    7.024881409903e-02
    26   -5.224562107967e-02
    27   -1.398953328488e+00
    28    9.783224872719e-02
    29   -9.274792157600e-02
    30   -3.091673579286e-03
    31    3.849343642496e-01
    32   -3.624476896510e-01
    33   -1.219643956370e-02
    34    1.562582473637e-02
    35   -1.266106080077e-03
    36   -1.979786205899e-03
    37   -1.008661092638e-04
    38   -3.136291011445e-03
    39    9.909941762908e-03
    40    9.323684005001e-01
    41    2.382575443856e-04
    42   -1.391796829104e-02
    43   -9.342120869543e-04
    44    1.002390312214e-02
    45    9.393936027095e-01
    46    1.413041129756e-02
    47    3.695241439761e-04
    48    5.777847719286e-04
Sym=X
Ene= 0.232962
Spin=Alpha
Occup=0
     1    2.617624927451e-02
     2    1.233150544146e+00
     3   -1.429794728229e-02
     4   -3.823595497923e-03
     5   -8.723781107976e-04
     6    2.979199355234e-03
     7   -3.444440563317e-03
     8   -4.620237478314e-02
     9   -1.547331325652e-01
    10   -1.587115182646e-01
    11   -1.667707472077e-02
    12   -5.564216823433e-01
    13   -5.583621218001e-01
    14   -5.923682246509e-02
    15    5.134891551464e-04
    16    5.804299289665e-05
    17    7.752830134428e-05
    18   -2.060677040452e-04
    19   -3.475707090334e-04
    20   -2.506971493840e-02
    21   -1.161401688201e+00
    22   -2.490908643966e-03
    23   -1.359190025722e-02
    24   -9.474410379526e-04
    25   -2.770676219406e-03
    26    3.248273633219e-03
    27    4.098721694793e-02
    28   -1.539424137314e-01
    29   -1.590484492060e-01
    30   -1.678130330434e-02
    31   -5.485107013320e-01
    32   -5.548999154483e-01
    33   -5.917549373674e-02
    34   -5.278689951813e-04
    35   -1.286963608412e-04
    36   -1.751395784854e-04
    37    3.791322537267e-04
    38    3.702806201497e-04
    39    2.512545682618e-02
    40    1.157717942437e+00
    41   -2.448935405806e-03
    42   -1.361283027073e-02
    43   -9.665047774622e-04
    44   -2.617070654237e-02
    45   -1.222788486888e+00
    46   -1.424451751250e-02
    47   -3.777723492971e-03
    48   -8.601014044777e-04
Sym=X
Ene= 0.239408
Spin=Alpha
Occup=0
     1   -1.597180735966e-02
     2   -1.051494904578e+00
     3    1.652203060838e-02
     4    9.103803982419e-03
     5    1.347926240945e-03
     6   -8.650514605320e-02
     7    7.973811455495e-02
     8    1.593126557593e+00
     9    5.321594893461e-02
    10   -6.061546359268e-02
    11   -5.327790718084e-04
    12    2.110282119146e-01
    13   -2.358526538814e-01
    14   -8.887803237369e-04
    15   -2.254935642022e-02
    16    2.744233715241e-03
    17    2.847422695853e-03
    18   -5.184037015056e-04
    19    1.286592355029e-02
    20   -1.702621584276e-02
    21   -1.124565944874e+00
    22   -8.539234897238e-03
    23   -1.776852133481e-02
    24   -1.435040082471e-03
    25    8.643251363253e-02
    26   -7.929619489621e-02
    27   -1.596069018919e+00
    28    5.346772746740e-02
    29   -6.107603116966e-02
    30   -3.173534116862e-03
    31    2.117301425377e-01
    32   -2.402663126250e-01
    33   -1.214617143640e-02
    34    2.260755126846e-02
    35   -2.496112293684e-03
    36   -3.113169900162e-03
    37    6.936972794901e-04
    38   -1.278912480582e-02
    39    1.680323791492e-02
    40    1.129838609618e+00
    41   -8.621253181523e-03
    42   -1.786917160934e-02
    43   -1.624987735480e-03
    44    1.563964429384e-02
    45    1.049524470231e+00
    46    1.645829783153e-02
    47    9.272570282275e-03
    48    1.182320419015e-03
Sym=X
Ene= 0.303262
Spin=Alpha
Occup=0
     1   -2.080118210579e-02
     2    1.691553610153e+00
     3   -2.291147291456e-02
     4    2.750663614727e-04
     5   -1.170928055271e-03
     6   -1.998925546095e-04
     7    1.853261756434e-04
     8    1.508602655906e-03
     9   -1.339174733802e-01
    10   -1.395540291104e-01
    11   -1.457489136430e-02
    12   -1.144047537766e+00
    13   -1.193875244340e+00
    14   -1.249309437483e-01
    15   -1.389431134680e-04
    16   -1.739809813168e-03
    17    1.754050254510e-03
    18   -3.266183271074e-02
    19   -1.588323314134e-03
    20    1.994844907064e-02
    21   -1.689660635273e+00
    22    1.431185155033e-03
    23   -2.290883027482e-02
    24   -1.182265168260e-03
    25    7.791023698381e-05
    26    2.790732538020e-04
    27   -9.728195233638e-03
    28    1.347148471239e-01
    29    1.402621829541e-01
    30    1.477310626990e-02
    31    1.140055619569e+00
    32    1.197392285373e+00
    33    1.253375456672e-01
    34    1.377475548723e-04
    35   -1.325283396040e-03
    36    2.183535356439e-03
    37   -3.249840590753e-02
    38   -1.749171635538e-03
    39    1.948207241185e-02
    40   -1.691400417295e+00
    41   -1.625924545272e-03
    42    2.283497155538e-02
    43    1.310266758920e-03
    44   -2.020024834035e-02
    45    1.699233312698e+00
    46    2.304995650902e-02
    47   -3.503261385749e-04
    48    1.049961628511e-03
Sym=X
Ene= 0.462050
Spin=Alpha
Occup=0
     1   -1.153657342405e-01
     2   -7.146881908877e-01
     3   -1.565935318747e-02
     4   -1.035452813985e-02
     5   -1.353847891007e-03
     6    6.080336206276e-02
     7    1.737319250552e-02
     8   -3.592245659398e+00
     9    1.030401388793e-01
    10   -9.894899968437e-02
    11   -1.668197046303e-03
    12    2.426087987317e+00
    13   -2.303574088438e+00
    14   -6.990745802294e-03
    15    5.366488744591e-02
    16   -3.361015765498e-03
    17   -4.640847485222e-03
    18   -7.482961875696e-04
    19    1.800395907423e-02
    20   -1.213992887730e-01
    21   -7.020298097445e-01
    22    8.695576752679e-03
    23    1.639590492056e-02
    24    1.372239556438e-03
    25   -6.095120761979e-02
    26   -1.627314109075e-02
    27    3.591839263512e+00
    28    1.052381168632e-01
    29   -1.003406393708e-01
    30   -3.203541065043e-03
    31    2.423437440569e+00
    32   -2.297929126942e+00
    33   -1.389494108966e-02
    34   -5.270252047108e-02
    35    3.402711638024e-03
    36    4.403273886017e-03
    37    6.143799703474e-04
    38   -1.905367738851e-02
    39    1.154850913905e-01
    40    7.078935706691e-01
    41    8.542836639452e-03
    42    1.626574991335e-02
    43    1.312703994140e-03
    44    1.104496310004e-01
    45    7.193950670252e-01
    46   -1.543835450276e-02
    47   -9.971698999910e-03
    48   -1.395244852459e-03
Sym=X
Ene= 0.577501
Spin=Alpha
Occup=0
     1    2.467357370754e-01
     2    4.126438827404e-02
     3   -1.849666135269e-02
     4    2.569248912033e-02
     5    6.068164849154e-04
     6   -4.447764190963e-03
     7   -1.572169734316e-01
     8   -4.664455014424e-01
     9    2.986918679976e-01
    10   -2.880878006583e-01
    11   -1.697927845825e-03
    12   -7.193822920444e-01
    13    6.962765454709e-01
    14    7.189780318043e-03
    15   -5.873013812164e-03
    16    3.853662079679e-03
    17    3.757683731711e-03
    18   -4.496880317504e-03
    19    6.021926495149e-02
    20    2.555502439788e-01
    21    2.877148414680e-02
    22   -2.642922134722e-02
    23    1.643557559642e-02
    24   -3.175153946360e-04
    25   -5.647408494364e-03
    26   -1.579187247066e-01
    27   -4.092034103054e-01
    28   -2.972168831179e-01
    29    2.853818063771e-01
    30    1.312731504676e-03
    31    7.630076367262e-01
    32   -7.331498956119e-01
    33   -8.716056788078e-03
    34   -5.857861498635e-03
    35    3.853935738370e-03
    36    3.748035884354e-03
    37   -3.889587822077e-03
    38    6.017757155457e-02
    39    2.508871845025e-01
    40    4.921189251148e-02
    41    2.725824266305e-02
    42   -1.701673005383e-02
    43    1.782553661668e-04
    44    2.488526116884e-01
    45    5.702852679378e-02
    46    1.843279261818e-02
    47   -2.584039158328e-02
    48   -7.718173760231e-04
Sym=X
Ene= 0.615148
Spin=Alpha
Occup=0
     1   -5.226807343252e-01
     2    1.997487532113e-01
     3   -6.139088857141e-02
     4    3.759074057932e-02
     5   -8.460824249975e-04
     6   -6.229676681072e-04
     7    1.421805942501e-04
     8   -1.874735882009e-02
     9   -4.047835069777e-02
    10   -3.843353152719e-02
    11   -4.274361375388e-03
    12    3.065673268308e-01
    13    2.774934006347e-01
    14    3.089905650801e-02
    15    1.975580564878e-03
    16   -7.828982151112e-03
    17    7.985621329183e-03
    18   -1.479748643273e-01
    19   -6.414227551172e-03
    20    5.076538403245e-01
    21   -2.052671142751e-01
    22    4.181547018098e-02
    23   -5.841927503021e-02
    24   -1.330900174936e-03
    25    4.486298329137e-04
    26   -8.267414216077e-04
    27    2.566562603732e-02
    28   -4.013934808336e-02
    29   -4.013792338176e-02
    30   -4.314715969110e-03
    31    3.056588636715e-01
    32    2.879110981177e-01
    33    3.193220519442e-02
    34   -1.639792909556e-03
    35    6.668582796014e-03
    36   -9.355322139121e-03
    37    1.491399532594e-01
    38    6.306950716000e-03
    39   -5.147870881574e-01
    40    2.083643499908e-01
    41    4.096715534851e-02
    42   -5.855607331939e-02
    43   -1.773311546515e-03
    44    5.220338472617e-01
    45   -2.032570328705e-01
    46   -6.150401937888e-02
    47    3.754818887077e-02
    48   -4.405927227247e-04
Sym=X
Ene= 0.689149
Spin=Alpha
Occup=0
     1    4.009470305048e-03
     2    2.288990952493e-03
     3    1.396731320772e-03
     4    1.674962403411e-03
     5   -2.096644552889e-02
     6    2.631975546352e-04
     7    1.451219432977e-03
     8    2.117301983152e-03
     9    3.146972787730e-02
    10    3.991372286705e-02
    11   -6.703529825645e-01
    12   -3.595336700204e-02
    13   -2.964028631543e-02
    14    6.136350381497e-01
    15   -1.442580326804e-03
    16    8.276713642695e-02
    17   -7.823093326277e-02
    18   -8.663803483715e-03
    19    6.501382999816e-05
    20    4.027638321471e-03
    21    2.084513773645e-03
    22    5.440138479187e-04
    23    8.038542140014e-04
    24   -2.097249354569e-02
    25    1.142774641412e-05
    26    3.909642853534e-03
    27   -5.407612189474e-03
    28    3.281887250278e-02
    29    3.903828211144e-02
    30   -6.700894875786e-01
    31   -3.732834196304e-02
    32   -2.893270291076e-02
    33    6.132668168957e-01
    34   -3.383864416943e-04
    35   -8.268949735372e-02
    36    7.855004444538e-02
    37    8.578245387923e-03
    38    5.864290885480e-04
    39   -1.607959845671e-04
    40   -5.404924675801e-03
    41    8.951370085351e-04
    42    2.199490440987e-03
    43   -2.095191086443e-02
    44   -2.347584774184e-04
    45   -5.253248634482e-03
    46    6.222764308611e-05
    47    1.343329533608e-03
    48   -2.113723955401e-02
Sym=X
Ene= 0.708915
Spin=Alpha
Occup=0
     1   -4.754859189242e-01
     2    1.587061592820e-01
     3   -8.073063874078e-02
     4   -4.426637639872e-02
     5   -6.895597461109e-03
     6   -4.782907581370e-02
     7   -3.199219468955e-01
     8    5.098022124529e-01
     9    2.038489207825e-01
    10   -1.919942444551e-01
    11   -4.434304756853e-03
    12   -9.839157010225e-02
    13    8.099894586160e-02
    14   -1.642128733485e-03
    15    1.940923806412e-01
    16   -2.088301696212e-02
    17   -2.353287719993e-02
    18    3.174523883898e-03
    19   -7.744539845112e-02
    20   -4.786931636835e-01
    21    1.499951977051e-01
    22    4.096533419056e-02
    23    8.172089219476e-02
    24    6.336879453419e-03
    25   -4.669858027444e-02
    26   -3.210460747332e-01
    27    4.626333456496e-01
    28   -2.039205459331e-01
    29    1.922012904695e-01
    30   -1.962260462967e-03
    31    6.402442241343e-02
    32   -5.225874913620e-02
    33    9.133055518065e-03
    34    1.935987793705e-01
    35   -2.077823199457e-02
    36   -2.349279775225e-02
    37    2.426501967606e-03
    38   -7.557594737559e-02
    39   -4.723921939077e-01
    40    1.357665071747e-01
    41   -4.071279267855e-02
    42   -8.094992083287e-02
    43   -6.572760544077e-03
    44   -4.742413613067e-01
    45    1.455069217080e-01
    46    8.052631775604e-02
    47    4.395734031453e-02
    48    6.626264241265e-03
Sym=X
Ene= 0.784555
Spin=Alpha
Occup=0
     1    5.262559983500e-01
     2   -4.688141327193e-01
     3    1.101865961084e-01
     4    2.597541052806e-02
     5    6.993056198555e-03
     6    9.095134380333e-02
     7   -2.158258639701e-01
     8   -6.420396640444e-01
     9    1.103336943338e-01
    10   -1.062581321513e-01
    11    5.682164109716e-03
    12    3.181792196444e-01
    13   -2.924219214468e-01
    14   -1.158977774403e-02
    15   -2.062743035924e-01
    16    1.802776965655e-02
    17    2.121921168831e-02
    18   -1.297956316287e-03
    19    9.215032413166e-03
    20    5.361868607139e-01
    21   -4.685462732337e-01
    22   -2.028458130869e-02
    23   -1.123698701772e-01
    24   -7.349204517965e-03
    25   -9.138534832123e-02
    26    2.129582981055e-01
    27    6.565325018308e-01
    28    1.122543653292e-01
    29   -1.047612761485e-01
    30   -4.619277205406e-03
    31    3.083184264691e-01
    32   -2.897821624338e-01
    33    8.790888226084e-03
    34    2.076888880290e-01
    35   -1.675067535334e-02
    36   -2.303358951792e-02
    37    1.947738042919e-03
    38   -8.880677676276e-03
    39   -5.423820422393e-01
    40    4.683182319187e-01
    41   -2.052549637168e-02
    42   -1.130544065293e-01
    43   -7.751259959301e-03
    44   -5.310714109539e-01
    45    4.633442806694e-01
    46    1.098824757231e-01
    47    2.677597370944e-02
    48    6.811541414029e-03
Sym=X
Ene= 0.807969
Spin=Alpha
Occup=0
     1    3.280940507640e-03
     2   -3.756142907681e-03
     3    2.342206963435e-03
     4    1.981381879038e-03
     5   -3.375811889455e-02
     6    7.230625621859e-04
     7   -3.410030616117e-03
     8    3.943820338218e-06
     9    3.917562349367e-02
    10    4.203222518681e-02
    11   -7.630077705880e-01
    12   -5.422068703990e-02
    13   -6.530144720473e-02
    14    1.126967811407e+00
    15   -1.313052001132e-03
    16   -6.512277957059e-02
    17    6.201770682309e-02
    18    6.881108236137e-03
    19    3.008988581419e-05
    20    3.375421986993e-03
    21   -3.080882230207e-03
    22    1.740690102051e-03
    23    1.370853013243e-03
    24   -3.453595300181e-02
    25   -5.353327744101e-04
    26   -7.842282496279e-04
    27    2.310029765098e-03
    28   -3.545301097917e-02
    29   -4.635870240656e-02
    30    7.632183621950e-01
    31    5.670539830441e-02
    32    6.430790097947e-02
    33   -1.127029118106e+00
    34    2.490424042711e-03
    35   -6.535831246719e-02
    36    6.166736831999e-02
    37    6.708854510755e-03
    38    8.489342240766e-04
    39   -3.325593913955e-03
    40    4.327856563681e-03
    41   -1.250108168273e-03
    42   -3.667028408470e-03
    43    3.414217366984e-02
    44   -3.276926936415e-03
    45    4.770433564539e-03
    46    7.061414701474e-05
    47   -2.252356411968e-03
    48    3.383965083314e-02
Sym=X
Ene= 0.862247
Spin=Alpha
Occup=0
     1    1.378265809920e-02
     2   -1.095803148864e+00
     3    1.484661272791e-01
     4    5.642202377234e-02
     5    1.014337701313e-02
     6    2.640869740540e-04
     7   -8.797318494551e-04
     8    2.468804743370e-03
     9   -4.064365205475e-01
    10   -4.292768337812e-01
    11   -4.445147876386e-02
    12    9.469360967974e-01
    13    9.991239207034e-01
    14    1.035199294799e-01
    15   -9.157993494828e-04
    16    1.157843111382e-02
    17   -1.368416454523e-02
    18    2.353184637894e-01
    19    9.338513665651e-03
    20   -1.342282455220e-02
    21    1.103186649974e+00
    22    5.036594585124e-02
    23    1.512787424383e-01
    24    1.157736508450e-02
    25   -2.100814852915e-04
    26    1.528790681086e-03
    27   -2.419169092673e-03
    28   -4.062065480430e-01
    29   -4.300662133022e-01
    30   -4.513185012501e-02
    31    9.463208904671e-01
    32    1.003237068451e+00
    33    1.051920301697e-01
    34    7.694913518569e-04
    35   -1.143578885803e-02
    36    1.395608294205e-02
    37   -2.364061052164e-01
    38   -1.009107741010e-02
    39    1.156616371816e-02
    40   -1.102589291018e+00
    41    4.895186196735e-02
    42    1.515112228706e-01
    43    1.200826028965e-02
    44   -1.175404440869e-02
    45    1.094891220825e+00
    46    1.488376860027e-01
    47    5.564667648730e-02
    48    9.721769142888e-03
Sym=X
Ene= 0.935920
Spin=Alpha
Occup=0
     1   -1.131452438690e-01
     2    1.279322134013e+00
     3   -1.810486060027e-01
     4    5.453459762630e-03
     5   -9.116259313750e-03
     6    3.012012420575e-05
     7   -3.876559573377e-03
     8    1.880051614822e-03
     9    4.731052810291e-01
    10    4.992990346484e-01
    11    5.194438500460e-02
    12   -1.466558785305e+00
    13   -1.540169018389e+00
    14   -1.606404015275e-01
    15   -1.230217405572e-03
    16   -6.805855389337e-03
    17    5.949720338471e-03
    18   -1.203239487187e-01
    19   -2.220141426129e-03
    20    1.173571554876e-01
    21   -1.287136741723e+00
    22    1.152125695885e-02
    23   -1.831209882874e-01
    24   -9.408830588906e-03
    25   -4.743498541940e-05
    26   -2.461115614308e-03
    27    2.787272899486e-03
    28   -4.740194268697e-01
    29   -4.979243090290e-01
    30   -5.210568084239e-02
    31    1.468665964170e+00
    32    1.533178777042e+00
    33    1.609178578361e-01
    34   -3.524389670986e-04
    35   -5.686738412922e-03
    36    7.370692573152e-03
    37   -1.206626714224e-01
    38   -4.392477687806e-03
    39    1.166881224056e-01
    40   -1.282381067773e+00
    41   -1.325526469384e-02
    42    1.821607130443e-01
    43    1.006272152269e-02
    44   -1.152463601265e-01
    45    1.285126027128e+00
    46    1.817544554027e-01
    47   -5.662868682040e-03
    48    8.485781265411e-03
Sym=X
Ene= 0.972466
Spin=Alpha
Occup=0
     1   -6.462934011458e-02
     2    9.269998621833e-01
     3   -9.110263406785e-02
     4   -9.853753032996e-02
     5   -9.900837885957e-03
     6    2.534266464688e-02
     7    2.537811366028e-01
     8    5.171897315502e-01
     9    4.813366625704e-01
    10   -4.544725832585e-01
    11   -1.729138477968e-03
    12   -1.495289152860e+00
    13    1.407478541526e+00
    14    4.626049732425e-03
    15   -5.387413466389e-02
    16   -1.146585299953e-02
    17   -1.102955320555e-02
    18    1.323485180959e-02
    19   -3.016603161944e-01
    20   -6.240561664955e-02
    21    9.093473069398e-01
    22    9.532334929996e-02
    23    9.294579126117e-02
    24    1.031419846418e-02
    25   -2.516032398122e-02
    26   -2.371361271700e-01
    27   -5.448548158656e-01
    28    4.782105921114e-01
    29   -4.546720511471e-01
    30   -5.817057671324e-03
    31   -1.484988314196e+00
    32    1.414755223422e+00
    33    1.634657394656e-02
    34    5.282485469229e-02
    35    1.110041165680e-02
    36    1.122952590018e-02
    37   -1.378021980438e-02
    38    2.989859104518e-01
    39    6.203290506988e-02
    40   -9.076242782361e-01
    41    9.416360334533e-02
    42    9.256454725614e-02
    43    1.099957138360e-02
    44    6.597008841467e-02
    45   -9.116321871606e-01
    46   -8.906601467864e-02
    47   -9.787072540745e-02
    48   -8.994444723925e-03
[5D]

======= END OF MOLDEN-FORMATTED INPUT FILE =======


        *************************************************************
        *                                                           *
        *  Thank you very much for using Q-Chem.  Have a nice day.  *
        *                                                           *
        *************************************************************


