                  Welcome to Q-Chem
     A Quantum Leap Into The Future Of Chemistry


 Q-Chem 5.4 (devel), Q-Chem, Inc., Pleasanton, CA (2021)

 E. Epifanovsky,  A. T. B. Gilbert,  Xintian Feng,  Joonho Lee,  Yuezhi Mao,  
 N. Mardirossian,  P. Pokhilko,  A. White,  M. Wormit,  M. P. Coons,  
 A. L. Dempwolff,  Zhengting Gan,  D. Hait,  P. R. Horn,  L. D. Jacobson,  
 I. Kaliman,  J. Kussmann,  A. W. Lange,  Ka Un Lao,  D. S. Levine,  Jie Liu,  
 S. C. McKenzie,  A. F. Morrison,  K. Nanda,  F. Plasser,  D. R. Rehn,  
 M. L. Vidal,  Zhi-Qiang You,  Ying Zhu,  B. Alam,  B. Albrecht,  
 A. Aldossary,  E. Alguire,  J. H. Andersen,  D. Barton,  K. Begam,  A. Behn,  
 Y. A. Bernard,  E. J. Berquist,  H. Burton,  A. Carreras,  K. Carter-Fenk,  
 R. Chakraborty,  A. D. Chien,  K. D. Closser,  V. Cofer-Shabica,  
 S. Dasgupta,  Jia Deng,  M. de Wergifosse,  M. Diedenhofen,  Hainam Do,  
 S. Ehlert,  Po-Tung Fang,  S. Fatehi,  Qingguo Feng,  T. Friedhoff,  
 J. Gayvert,  Qinghui Ge,  G. Gidofalvi,  M. Goldey,  J. Gomes,  
 C. Gonzalez-Espinoza,  S. Gulania,  A. Gunina,  M. W. D. Hanson-Heine,  
 P. H. P. Harbach,  A. W. Hauser,  M. F. Herbst,  M. Hernandez Vera,  
 M. Hodecker,  Z. C. Holden,  S. Houck,  Xunkun Huang,  Kerwin Hui,  
 B. C. Huynh,  M. Ivanov,  Hyunjun Ji,  Hanjie Jiang,  B. Kaduk,  S. Kaehler,  
 K. Khistyaev,  Jaehoon Kim,  P. Klunzinger,  Z. Koczor-Benda,  
 Joong Hoon Koh,  D. Kosenkov,  L. Koulias,  T. Kowalczyk,  C. M. Krauter,  
 K. Kue,  A. Kunitsa,  T. Kus,  A. Landau,  K. V. Lawler,  D. Lefrancois,  
 S. Lehtola,  Rain Li,  Yi-Pei Li,  Jiashu Liang,  M. Liebenthal,  
 Hung-Hsuan Lin,  You-Sheng Lin,  Fenglai Liu,  Kuan-Yu Liu,  
 M. Loipersberger,  A. Luenser,  A. Manjanath,  P. Manohar,  E. Mansoor,  
 S. F. Manzer,  Shan-Ping Mao,  A. V. Marenich,  T. Markovich,  S. Mason,  
 S. A. Maurer,  P. F. McLaughlin,  M. F. S. J. Menger,  J.-M. Mewes,  
 S. A. Mewes,  P. Morgante,  J. W. Mullinax,  K. J. Oosterbaan,  G. Paran,  
 Alexander C. Paul,  Suranjan K. Paul,  F. Pavosevic,  Zheng Pei,  S. Prager,  
 E. I. Proynov,  E. Ramos,  B. Rana,  A. E. Rask,  A. Rettig,  R. M. Richard,  
 F. Rob,  E. Rossomme,  T. Scheele,  M. Scheurer,  M. Schneider,  
 N. Sergueev,  S. M. Sharada,  W. Skomorowski,  D. W. Small,  C. J. Stein,  
 Yu-Chuan Su,  E. J. Sundstrom,  Zhen Tao,  J. Thirman,  T. Tsuchimochi,  
 N. M. Tubman,  S. P. Veccham,  O. Vydrov,  J. Wenzel,  J. Witte,  A. Yamada,  
 Kun Yao,  S. Yeganeh,  S. R. Yost,  A. Zech,  Igor Ying Zhang,  Xing Zhang,  
 Yu Zhang,  D. Zuev,  A. Aspuru-Guzik,  A. T. Bell,  N. A. Besley,  
 K. B. Bravaya,  B. R. Brooks,  D. Casanova,  Jeng-Da Chai,  S. Coriani,  
 C. J. Cramer,  A. E. DePrince, III,  R. A. DiStasio Jr.,  A. Dreuw,  
 B. D. Dunietz,  T. R. Furlani,  W. A. Goddard III,  S. Grimme,  
 S. Hammes-Schiffer,  T. Head-Gordon,  W. J. Hehre,  Chao-Ping Hsu,  
 T.-C. Jagau,  Yousung Jung,  A. Klamt,  Jing Kong,  D. S. Lambrecht,  
 WanZhen Liang,  N. J. Mayhall,  C. W. McCurdy,  J. B. Neaton,  
 C. Ochsenfeld,  J. A. Parkhill,  R. Peverati,  V. A. Rassolov,  Yihan Shao,  
 L. V. Slipchenko,  T. Stauch,  R. P. Steele,  J. E. Subotnik,  
 A. J. W. Thom,  A. Tkatchenko,  D. G. Truhlar,  T. Van Voorhis,  
 T. A. Wesolowski,  K. B. Whaley,  H. L. Woodcock III,  P. M. Zimmerman,  
 S. Faraji,  P. M. W. Gill,  M. Head-Gordon,  J. M. Herbert,  A. I. Krylov

 Additional authors for Version 5.4.1: 
 S. Kotaru,  Shaozhi Li,  Xiangyuan Li,  F. Matz,  A. Molle,  Haisheng Ren,  
 Yingli Su,  Hung-Yi Tsai,  C. Utku,  Fang Wang

 Contributors to earlier versions of Q-Chem not listed above: 
 R. D. Adamson,  B. Austin,  R. Baer,  J. Baker,  G. J. O. Beran,  
 K. Brandhorst,  S. T. Brown,  E. F. C. Byrd,  A. K. Chakraborty,  
 G. K. L. Chan,  Chun-Min Chang,  Yunqing Chen,  C.-L. Cheng,  
 Siu Hung Chien,  D. M. Chipman,  D. L. Crittenden,  H. Dachsel,  
 R. J. Doerksen,  A. D. Dutoi,  R. G. Edgar,  J. Fosso-Tande,  
 L. Fusti-Molnar,  D. Ghosh,  A. Ghysels,  A. Golubeva-Zadorozhnaya,  
 J. Gonthier,  M. S. Gordon,  S. R. Gwaltney,  G. Hawkins,  J. E. Herr,  
 A. Heyden,  S. Hirata,  E. G. Hohenstein,  G. Kedziora,  F. J. Keil,  
 C. Kelley,  Jihan Kim,  R. A. King,  R. Z. Khaliullin,  P. P. Korambath,  
 W. Kurlancheek,  A. Laurent,  A. M. Lee,  M. S. Lee,  S. V. Levchenko,  
 Ching Yeh Lin,  D. Liotard,  E. Livshits,  R. C. Lochan,  I. Lotan,  
 L. A. Martinez-Martinez,  P. E. Maslen,  N. Nair,  D. P. O'Neill,  
 D. Neuhauser,  E. Neuscamman,  C. M. Oana,  R. Olivares-Amaya,  R. Olson,  
 T. M. Perrine,  B. Peters,  P. A. Pieniazek,  A. Prociuk,  Y. M. Rhee,  
 J. Ritchie,  M. A. Rohrdanz,  E. Rosta,  N. J. Russ,  H. F. Schaefer III,  
 M. W. Schmidt,  N. E. Schultz,  S. Sharma,  N. Shenvi,  C. D. Sherrill,  
 A. C. Simmonett,  A. Sodt,  T. Stein,  D. Stuck,  K. S. Thanthiriwatte,  
 V. Vanovschi,  L. Vogt,  Tao Wang,  A. Warshel,  M. A. Watson,  
 C. F. Williams,  Q. Wu,  X. Xu,  Jun Yang,  W. Zhang,  Yan Zhao

 Please cite Q-Chem as follows:
 Y. Shao et al., Mol. Phys. 113, 184-215 (2015)
 DOI: 10.1080/00268976.2014.952696

 Q-Chem 5.4.1 for Intel X86 EM64T Linux

 Parts of Q-Chem use Armadillo 9.800.1 (Horizon Scraper).
 http://arma.sourceforge.net/

 Q-Chem begins on Mon Mar 20 18:26:00 2023  

 Host: cpu186.baobab
0

     Scratch files written to /scratch/fum/qchem75987//
 Processing $rem in /home/share/wesolowski/qc5.aug2021.FDE/config/preferences:
 Processing $rem in /home/fum/.qchemrc:

 Checking the input file for inconsistencies... 	...done.

--------------------------------------------------------------
User input:
--------------------------------------------------------------
$comment
generated from CCJob.Templates
$end

$rem
sym_ignore = true
method = adc(2)
ee_states = 10
basis = cc-pVDZ
mem_static = 1024
mem_total = 40000
adc_davidson_maxiter = 900
adc_davidson_conv = 6
adc_print = 3
adc_prop_es = true
adc_prop_es2es = true
adc_prop_tpa = true
molden_format = True
state_analysis = true
print_orbitals = 15
gen_scfman = false
fde_export_density = true
fde_details = 3
$end

$molecule
0 1
H -0.019835495606187713 -0.24849074589452586 0.045985065369207316
C -1.072302666820278 -0.5282639352860979 -0.06943782015749107
H -1.2992483007070648 -1.593175152199518 -0.1120252183758825
C -2.0408133208142685 0.3876764784222946 -0.002017880068806044
H -1.8206929679029464 1.459710001310007 0.09431340395520135
H -3.100076595103825 0.11502351540501976 -0.06359830798988787                     
$end
--------------------------------------------------------------
 ----------------------------------------------------------------
             Standard Nuclear Orientation (Angstroms)
    I     Atom           X                Y                Z
 ----------------------------------------------------------------
    1      H      -0.0198354956    -0.2484907459     0.0459850654
    2      C      -1.0723026668    -0.5282639353    -0.0694378202
    3      H      -1.2992483007    -1.5931751522    -0.1120252184
    4      C      -2.0408133208     0.3876764784    -0.0020178801
    5      H      -1.8206929679     1.4597100013     0.0943134040
    6      H      -3.1000765951     0.1150235154    -0.0635983080
 ----------------------------------------------------------------
 Nuclear Repulsion Energy =          33.18969766 hartrees
 There are        8 alpha and        8 beta electrons
 Requested basis set is cc-pVDZ
 There are 24 shells and 48 basis functions
 Total memory of 40000 MB is distributed as follows: 
   MEM_STATIC is set to 1024 MB
   QALLOC/CCMAN JOB total memory use is  38976 MB
 Warning: actual memory use might exceed 40000 MB

 Total QAlloc Memory Limit  40000 MB
 Mega-Array Size      1001 MB
 MEM_STATIC part      1024 MB

                       Distance Matrix (Angstroms)
             H (  1)   C (  2)   H (  3)   C (  4)   H (  5)
   C (  2)  1.095118
   H (  3)  1.862804  1.089658
   C (  4)  2.119284  1.334730  2.117969
   H (  5)  2.482614  2.130479  3.103963  1.098630
   H (  6)  3.103552  2.127374  2.482593  1.095523  1.862778

 A cutoff of  1.0D-11 yielded    300 shell pairs
 There are      1220 function pairs (      1329 Cartesian)
 Smallest overlap matrix eigenvalue = 4.84E-03

 Scale SEOQF with 1.000000e-01/1.000000e-01/1.000000e+00

 Standard Electronic Orientation quadrupole field applied
 Nucleus-field energy     =     0.0000000021 hartrees
 Guess from superposition of atomic densities
 Warning:  Energy on first SCF cycle will be non-variational
 SAD guess density has 16.000000 electrons
 A restricted Hartree-Fock SCF calculation will be
 performed using Pulay DIIS extrapolation
 SCF converges when DIIS error is below 1.0E-08
 using 10 threads for integral computing
 -------------------------------------------------------
 OpenMP Integral computing Module                
 Release: version 1.0, May 2013, Q-Chem Inc. Pittsburgh 
 -------------------------------------------------------
 ---------------------------------------
  Cycle       Energy         DIIS Error
 ---------------------------------------
    1     -78.3943089063      9.91E-02
    2     -78.0170532931      7.12E-03
    3     -78.0374819348      1.82E-03
    4     -78.0389556011      5.62E-04
    5     -78.0390722518      5.88E-05
    6     -78.0390741387      1.06E-05
    7     -78.0390742067      4.02E-06
    8     -78.0390742128      1.08E-06
    9     -78.0390742135      1.64E-07
   10     -78.0390742135      5.21E-08
   11     -78.0390742135      7.98E-09 Convergence criterion met
 ---------------------------------------
 SCF time:  CPU 2.10 s  wall 2.96 s
 SCF   energy in the final basis set = -78.03907421
 Total energy in the final basis set = -78.03907421
Exporting Density Matrix to file 'Densmat_SCF.txt'.
Export successful
================================================================================
|                                                                              |
|                                 A D C  M A N                                 |
|                                                                              |
 ------------------------------------------------------------------------------ 
|                                                                              |
| Components:                                                                  |
|                                                                              |
| - libvmm - 1.3-trunk                                                         |
|   Authors:                                                                   |
|   Evgeny Epifanovsky, Ilya Kaliman                                           |
|                                                                              |
| - libtensor - 2.5-trunk                                                      |
|   Authors:                                                                   |
|   Evgeny Epifanovsky, Michael Wormit, Dmitry Zuev, Sam Manzer,               |
|   Ilya Kaliman                                                               |
|                                                                              |
| - libwfa - 1.1-trunk                                                         |
|   Authors:                                                                   |
|   Felix Plasser, Stefanie Mewes (Baeppler), Benjamin Thomitzni,              |
|   Michael Wormit, Feng Chen, Anna I. Krylov, Pavel Pokhilko                  |
|                                                                              |
| - libadc - 1.1-trunk                                                         |
|   Authors:                                                                   |
|   Michael Wormit, Adrian L. Dempwolff, Philipp H. P. Harbach,                |
|   Caroline Krauter, Dirk Rehn, Matthias Schneider, Jan Wenzel                |
|                                                                              |
| - adcman - 2.6-trunk                                                         |
|   Authors:                                                                   |
|   Michael Wormit, Adrian L. Dempwolff, Philipp H. P. Harbach,                |
|   Caroline Krauter, Daniel Lefrancois, Jan-Michael Mewes, Dirk Rehn,         |
|   Matthias Schneider, Jan Wenzel, Andreas Dreuw                              |
|                                                                              |
| Authors of earlier versions of ADCMAN:                                       |
| Andreas Dreuw, Jan Hendrik Starcke, Dirk Rehn, Michael Wormit                |
|                                                                              |
================================================================================

 Created directory /scratch/fum/qchem75987/plots
  Import QC data ...  CPU 0.00 s  wall 0.01 s

 Alpha MOs, Restricted
 -- Occupied --                  
-11.239 -11.237  -1.030  -0.786  -0.635  -0.582  -0.499  -0.374
  1 A     2 A     3 A     4 A     5 A     6 A     7 A     8 A                  
 -- Virtual --                   
  0.167   0.203   0.231   0.236   0.303   0.462   0.580   0.609
  9 A    10 A    11 A    12 A    13 A    14 A    15 A    16 A                  
  0.689   0.706   0.776   0.807   0.858   0.927   0.970   1.006
 17 A    18 A    19 A    20 A    21 A    22 A    23 A    24 A                  
  1.117   1.236   1.240   1.261   1.300   1.592   1.728   1.745
 25 A    26 A    27 A    28 A    29 A    30 A    31 A    32 A                  
  1.809   1.850   1.857   1.900   1.964   1.972   2.217   2.251
 33 A    34 A    35 A    36 A    37 A    38 A    39 A    40 A                  
  2.351   2.424   2.493   2.621   2.678   2.796   3.093   3.361
 41 A    42 A    43 A    44 A    45 A    46 A    47 A    48 A                  

 Beta MOs, Restricted
 -- Occupied --                  
-11.239 -11.237  -1.030  -0.786  -0.635  -0.582  -0.499  -0.374
  1 A     2 A     3 A     4 A     5 A     6 A     7 A     8 A                  
 -- Virtual --                   
  0.167   0.203   0.231   0.236   0.303   0.462   0.580   0.609
  9 A    10 A    11 A    12 A    13 A    14 A    15 A    16 A                  
  0.689   0.706   0.776   0.807   0.858   0.927   0.970   1.006
 17 A    18 A    19 A    20 A    21 A    22 A    23 A    24 A                  
  1.117   1.236   1.240   1.261   1.300   1.592   1.728   1.745
 25 A    26 A    27 A    28 A    29 A    30 A    31 A    32 A                  
  1.809   1.850   1.857   1.900   1.964   1.972   2.217   2.251
 33 A    34 A    35 A    36 A    37 A    38 A    39 A    40 A                  
  2.351   2.424   2.493   2.621   2.678   2.796   3.093   3.361
 41 A    42 A    43 A    44 A    45 A    46 A    47 A    48 A                  
  Import AO data ...  CPU 0.00 s  wall 0.05 s
  Using point group: C1
  Irreducible representations in point group: A
  Molecular orbitals: 
  Occupied MOs:
  Block   0:   1 (  A) A   2 (  A) A   3 (  A) A   4 (  A) A   5 (  A) A
                  -11.24      -11.24       -1.03     -0.7858     -0.6348
               6 (  A) A   7 (  A) A   8 (  A) A
                 -0.5819     -0.4994     -0.3742
  Block   1:   1 (  A) B   2 (  A) B   3 (  A) B   4 (  A) B   5 (  A) B
                  -11.24      -11.24       -1.03     -0.7858     -0.6348
               6 (  A) B   7 (  A) B   8 (  A) B
                 -0.5819     -0.4994     -0.3742
  Virtual MOs:
  Block   0:   9 (  A) A  10 (  A) A  11 (  A) A  12 (  A) A  13 (  A) A
                   0.167      0.2026       0.231      0.2364      0.3029
              14 (  A) A  15 (  A) A  16 (  A) A  17 (  A) A  18 (  A) A
                  0.4623      0.5801      0.6087      0.6891      0.7056
              19 (  A) A  20 (  A) A  21 (  A) A  22 (  A) A
                  0.7759      0.8071      0.8583       0.927
  Block   1:  23 (  A) A  24 (  A) A  25 (  A) A  26 (  A) A  27 (  A) A
                  0.9697       1.006       1.117       1.236        1.24
              28 (  A) A  29 (  A) A  30 (  A) A  31 (  A) A  32 (  A) A
                   1.261         1.3       1.592       1.728       1.745
              33 (  A) A  34 (  A) A  35 (  A) A  36 (  A) A
                   1.809        1.85       1.857         1.9
  Block   2:  37 (  A) A  38 (  A) A  39 (  A) A  40 (  A) A  41 (  A) A
                   1.964       1.972       2.217       2.251       2.351
              42 (  A) A  43 (  A) A  44 (  A) A  45 (  A) A  46 (  A) A
                   2.424       2.493       2.621       2.678       2.796
              47 (  A) A  48 (  A) A
                   3.093       3.361
  Block   3:   9 (  A) B  10 (  A) B  11 (  A) B  12 (  A) B  13 (  A) B
                   0.167      0.2026       0.231      0.2364      0.3029
              14 (  A) B  15 (  A) B  16 (  A) B  17 (  A) B  18 (  A) B
                  0.4623      0.5801      0.6087      0.6891      0.7056
              19 (  A) B  20 (  A) B  21 (  A) B  22 (  A) B
                  0.7759      0.8071      0.8583       0.927
  Block   4:  23 (  A) B  24 (  A) B  25 (  A) B  26 (  A) B  27 (  A) B
                  0.9697       1.006       1.117       1.236        1.24
              28 (  A) B  29 (  A) B  30 (  A) B  31 (  A) B  32 (  A) B
                   1.261         1.3       1.592       1.728       1.745
              33 (  A) B  34 (  A) B  35 (  A) B  36 (  A) B
                   1.809        1.85       1.857         1.9
  Block   5:  37 (  A) B  38 (  A) B  39 (  A) B  40 (  A) B  41 (  A) B
                   1.964       1.972       2.217       2.251       2.351
              42 (  A) B  43 (  A) B  44 (  A) B  45 (  A) B  46 (  A) B
                   2.424       2.493       2.621       2.678       2.796
              47 (  A) B  48 (  A) B
                   3.093       3.361
  Import MO data ...  CPU 0.01 s  wall 0.01 s
  Import HF data ...  CPU 0.42 s  wall 0.16 s
  Import 2e integrals ...  CPU 1.18 s  wall 0.38 s

--------------------------------------------------------------------------------
                                   HF Summary                                   
--------------------------------------------------------------------------------
  Energy:                                                  -78.0390742135 a.u.
  Dip. moment [a.u.]:                  [  -0.004678,   -0.000691,    0.029159]
  Total dipole [Debye]:                                               0.075083
  <r^2> [a.u.]:                        [ 175.150796,   35.256614,   11.809596]
  Total <r^2> [a.u.]:                                               222.217007
--------------------------------------------------------------------------------
  HF properties ...  CPU 0.03 s  wall 0.02 s
  MP(1) calculation ...  CPU 0.01 s  wall 0.01 s
  N^6 prerequesite intermediates ...  CPU 0.68 s  wall 0.12 s
  Difference density matrix of state mp2_gs printed to ASCII file 'State_mp2_gs_Difference.txt'
Exporting MP density matrix to file 'Densmat_MP.txt'.
Export successful
  Total density matrix of state mp2_gs printed to ASCII file 'State_mp2_gs_Total.txt'
Exporting MP density matrix to file 'Densmat_MP.txt'.
Export successful

--------------------------------------------------------------------------------
                                 MP(2) Summary                                  
--------------------------------------------------------------------------------
  MP energy contribution:                                   -0.2806687541 a.u.
  Total energy:                                            -78.3197429676 a.u.
  Dip. moment [a.u.]:                  [  -0.003922,   -0.000974,    0.028742]
  Total dipole [Debye]:                                               0.073773
  <r^2> [a.u.]:                        [ 175.194986,   35.291479,   11.636998]
  Total <r^2> [a.u.]:                                               222.123464

  Density matrix analysis:
  ------------------------
  NOs
    Occupation of frontier NOs:
       0.0457   1.9378
    Number of electrons: 16.000000
    Number of unpaired electrons: n_u =  0.40801, n_u,nl =  0.04604
    NO participation ratio (PR_NO): 13.875360
  
  
  Mulliken Population Analysis
  Atom      Charge (e)              h+              e-           Del q
  --------------------------------------------------------------------
   1 H        0.055411        0.013901       -0.011332        0.002569
   2 C       -0.107173        0.094900       -0.099680       -0.004780
   3 H        0.054536        0.013938       -0.011328        0.002610
   4 C       -0.113993        0.094760       -0.100330       -0.005571
   5 H        0.055968        0.013895       -0.011335        0.002561
   6 H        0.055251        0.013938       -0.011326        0.002612
  --------------------------------------------------------------------
  Sum:        0.000000        0.245331       -0.245331       -0.000000
  
  Multipole moment analysis of the density matrix
    Molecular charge:                      0.000000
    Number of electrons:                   16.000000
      Center of electronic charge [Ang]: [ -1.557280,  -0.069371,  -0.029954]
    Total nuclear charge:                  16.000000
      Center of nuclear charge [Ang]:    [ -1.557409,  -0.069404,  -0.029004]
    Dipole moment [D]:                     0.073773
      Cartesian components [D]:          [ -0.009968,  -0.002475,   0.073055]
    RMS size of the density [Ang]:         1.206949
      Cartesian components [Ang]:        [  0.800690,   0.782848,   0.450301]
  
  Exciton analysis of the difference density matrix
    <r_h> [Ang]:                  [ -1.556524,  -0.068512,  -0.034546]
    <r_e> [Ang]:                  [ -1.558156,  -0.067901,  -0.033646]
    |<r_e - r_h>| [Ang]:            0.001961
    Hole size [Ang]:                1.402245
      Cartesian components [Ang]: [  0.853650,   0.839662,   0.729754]
    Electron size [Ang]:            1.361830
      Cartesian components [Ang]: [  0.879815,   0.863083,   0.579305]
--------------------------------------------------------------------------------
  MP(2) calculation ...  CPU 0.35 s  wall 0.21 s
  Start ADC(2)-s ...  CPU 0.02 s  wall 0.16 s
  ADC(2) intermediates ...  CPU 0.05 s  wall 0.01 s
  Starting Davidson for singlet states of irrep A ... 
--------------------------------------------------------------------------------
   It NVec Conv  Avg. Norm  Max. Norm  Conv. states           Remark
--------------------------------------------------------------------------------
        10    0  1.329e-01  4.685e-01  0.4114 n n n n n n n n Guess.
    1   20    0  2.926e-02  1.818e-01  0.3253 n n n n n n n n 
    2   30    0  6.759e-03  3.012e-02  0.3205 n n n n n n n n 
    3   40    0  2.742e-03  1.654e-02  0.3201 n n n n n n n n 
    4   50    0  1.193e-03  9.381e-03  0.3201 n n n n n n n n 
    5   20    0  8.400e-04  7.023e-03  0.3201 n n n n n n n n Subspace collapsed.
    6   30    0  1.092e-03  8.953e-03  0.3201 n n n n n n n n 
    7   40    0  7.916e-04  5.893e-03  0.3201 n n n n n n n n 
    8   50    0  4.251e-04  3.104e-03  0.3201 n n n n n n n n 
    9   20    0  2.510e-04  1.847e-03  0.3201 n n n n n n n n Subspace collapsed.
   10   30    0  1.110e-04  8.570e-04  0.3201 n n n n n n n n 
   11   40    4  5.793e-05  4.515e-04  0.3201 y y y y n n n n 
   12   50    4  2.693e-05  2.014e-04  0.3201 y y y y n n n n 
   13   20    5  2.505e-05  1.773e-04  0.3201 y y y y y n n n Subspace collapsed.
   14   30    6  2.341e-05  1.796e-04  0.3201 y y y y y y n n 
   15   40    6  2.277e-05  1.897e-04  0.3201 y y y y y y n n 
   16   50    6  1.254e-05  1.096e-04  0.3201 y y y y y y n n 
   17   20    6  6.734e-06  5.914e-05  0.3201 y y y y y y n n Subspace collapsed.
   18   30    6  3.974e-06  3.570e-05  0.3201 y y y y y y n n 
   19   40    7  2.248e-06  1.965e-05  0.3201 y y y y y y y n 
   20   50    7  2.115e-06  1.892e-05  0.3201 y y y y y y y n 
   21   20    7  1.276e-06  1.158e-05  0.3201 y y y y y y y n Subspace collapsed.
   22   30    7  1.786e-06  1.648e-05  0.3201 y y y y y y y n 
   23   40    7  1.320e-06  1.225e-05  0.3201 y y y y y y y n 
   24   50    7  1.173e-06  1.072e-05  0.3201 y y y y y y y n 
   25   19    8  4.907e-07  4.489e-06  0.3201 y y y y y y y y Subspace collapsed.
   26   26    8  4.387e-07  3.989e-06  0.3201 y y y y y y y y 
   27   33    9  2.159e-07  1.939e-06  0.3201 y y y y y y y y 
   28   39    9  2.097e-07  1.871e-06  0.3201 y y y y y y y y 
   29   45    8  2.099e-07  1.824e-06  0.3201 y y y y y y y y 
   30   50    9  1.689e-07  1.384e-06  0.3201 y y y y y y y y 
   31   15   10  7.705e-08  6.266e-07  0.3201 y y y y y y y y Converged.
--------------------------------------------------------------------------------
  Davidson Summary: 
 ------------------------------------------------------------
  State  0: excitation energy =   0.3201 a.u.   (converged)
  State  1: excitation energy =   0.3282 a.u.   (converged)
  State  2: excitation energy =   0.3359 a.u.   (converged)
  State  3: excitation energy =   0.3578 a.u.   (converged)
  State  4: excitation energy =   0.3729 a.u.   (converged)
  State  5: excitation energy =   0.3859 a.u.   (converged)
  State  6: excitation energy =   0.4200 a.u.   (converged)
  State  7: excitation energy =   0.4427 a.u.   (converged)
  State  8: excitation energy =   0.4533 a.u.   (converged)
  State  9: excitation energy =   0.4584 a.u.   (converged)
 ------------------------------------------------------------

  Singlet states of irrep A ...  CPU 207.94 s  wall 78.95 s
  TDMs ...  CPU 2.23 s  wall 1.01 s
  SDMs ...  CPU 4.42 s  wall 1.52 s
  Starting TPA DIIS iterations ... 
------------------------------------ 
   It     Res. Norm  Remark
------------------------------------
                       Guess.
    1     4.420e+00  
    2     5.873e+00  
    3     1.092e+00  
    4     2.663e-01  
    5     6.643e-02  
    6     2.816e-02  
    7     8.518e-03  
    8     1.632e-03  
    9     6.171e-04  
   10     1.026e-04  
   11     3.925e-05  
   12     6.899e-06  
   13     3.468e-06  
   14     1.089e-06  
   15     4.928e-07  Converged.
   ... Converged in 15 steps (norm: 4.92781e-07)
------------------------------------
  Starting TPA DIIS iterations ... 
------------------------------------ 
   It     Res. Norm  Remark
------------------------------------
                       Guess.
    1     4.171e+00  
    2     5.533e+00  
    3     1.035e+00  
    4     2.641e-01  
    5     6.611e-02  
    6     2.809e-02  
    7     8.366e-03  
    8     1.649e-03  
    9     6.244e-04  
   10     1.004e-04  
   11     3.912e-05  
   12     6.671e-06  
   13     3.615e-06  
   14     1.141e-06  
   15     5.188e-07  Converged.
   ... Converged in 15 steps (norm: 5.18844e-07)
------------------------------------
  Starting TPA DIIS iterations ... 
------------------------------------ 
   It     Res. Norm  Remark
------------------------------------
                       Guess.
    1     8.501e-01  
    2     8.017e-01  
    3     2.164e-01  
    4     1.353e-01  
    5     1.736e-02  
    6     6.330e-03  
    7     1.109e-03  
    8     4.696e-04  
    9     1.393e-04  
   10     2.398e-05  
   11     1.020e-05  
   12     3.174e-06  
   13     2.065e-06  
   14     9.648e-07  Converged.
   ... Converged in 14 steps (norm: 9.64764e-07)
------------------------------------
  Starting TPA DIIS iterations ... 
------------------------------------ 
   It     Res. Norm  Remark
------------------------------------
                       Guess.
    1     4.617e+00  
    2     6.227e+00  
    3     1.148e+00  
    4     2.865e-01  
    5     7.216e-02  
    6     3.080e-02  
    7     9.303e-03  
    8     1.788e-03  
    9     6.803e-04  
   10     1.128e-04  
   11     4.397e-05  
   12     7.794e-06  
   13     4.018e-06  
   14     1.281e-06  
   15     5.802e-07  Converged.
   ... Converged in 15 steps (norm: 5.80248e-07)
------------------------------------
  Starting TPA DIIS iterations ... 
------------------------------------ 
   It     Res. Norm  Remark
------------------------------------
                       Guess.
    1     4.356e+00  
    2     5.866e+00  
    3     1.088e+00  
    4     2.840e-01  
    5     7.183e-02  
    6     3.074e-02  
    7     9.138e-03  
    8     1.808e-03  
    9     6.880e-04  
   10     1.104e-04  
   11     4.382e-05  
   12     7.542e-06  
   13     4.193e-06  
   14     1.348e-06  
   15     6.105e-07  Converged.
   ... Converged in 15 steps (norm: 6.10483e-07)
------------------------------------
  Starting TPA DIIS iterations ... 
------------------------------------ 
   It     Res. Norm  Remark
------------------------------------
                       Guess.
    1     8.702e-01  
    2     8.397e-01  
    3     2.256e-01  
    4     1.416e-01  
    5     1.840e-02  
    6     6.785e-03  
    7     1.207e-03  
    8     5.239e-04  
    9     1.564e-04  
   10     2.564e-05  
   11     1.152e-05  
   12     3.592e-06  
   13     2.314e-06  
   14     1.089e-06  
   15     4.132e-07  Converged.
   ... Converged in 15 steps (norm: 4.13206e-07)
------------------------------------
  Starting TPA DIIS iterations ... 
------------------------------------ 
   It     Res. Norm  Remark
------------------------------------
                       Guess.
    1     4.818e+00  
    2     6.592e+00  
    3     1.205e+00  
    4     3.078e-01  
    5     7.818e-02  
    6     3.359e-02  
    7     1.013e-02  
    8     1.953e-03  
    9     7.474e-04  
   10     1.236e-04  
   11     4.906e-05  
   12     8.766e-06  
   13     4.631e-06  
   14     1.500e-06  
   15     6.788e-07  Converged.
   ... Converged in 15 steps (norm: 6.78837e-07)
------------------------------------
  Starting TPA DIIS iterations ... 
------------------------------------ 
   It     Res. Norm  Remark
------------------------------------
                       Guess.
    1     4.545e+00  
    2     6.210e+00  
    3     1.142e+00  
    4     3.048e-01  
    5     7.783e-02  
    6     3.353e-02  
    7     9.949e-03  
    8     1.976e-03  
    9     7.555e-04  
   10     1.210e-04  
   11     4.889e-05  
   12     8.488e-06  
   13     4.837e-06  
   14     1.585e-06  
   15     7.136e-07  Converged.
   ... Converged in 15 steps (norm: 7.13598e-07)
------------------------------------
  Starting TPA DIIS iterations ... 
------------------------------------ 
   It     Res. Norm  Remark
------------------------------------
                       Guess.
    1     8.905e-01  
    2     8.787e-01  
    3     2.349e-01  
    4     1.479e-01  
    5     1.948e-02  
    6     7.260e-03  
    7     1.310e-03  
    8     5.824e-04  
    9     1.748e-04  
   10     2.727e-05  
   11     1.297e-05  
   12     4.051e-06  
   13     2.588e-06  
   14     1.217e-06  
   15     5.041e-07  Converged.
   ... Converged in 15 steps (norm: 5.04077e-07)
------------------------------------
  Starting TPA DIIS iterations ... 
------------------------------------ 
   It     Res. Norm  Remark
------------------------------------
                       Guess.
    1     5.477e+00  
    2     7.821e+00  
    3     1.392e+00  
    4     3.818e-01  
    5     9.912e-02  
    6     4.342e-02  
    7     1.300e-02  
    8     2.536e-03  
    9     9.874e-04  
   10     1.614e-04  
   11     6.776e-05  
   12     1.238e-05  
   13     7.035e-06  
   14     2.404e-06  
   15     1.074e-06  
   16     4.073e-07  Converged.
   ... Converged in 16 steps (norm: 4.07308e-07)
------------------------------------
  Starting TPA DIIS iterations ... 
------------------------------------ 
   It     Res. Norm  Remark
------------------------------------
                       Guess.
    1     5.165e+00  
    2     7.367e+00  
    3     1.317e+00  
    4     3.773e-01  
    5     9.870e-02  
    6     4.338e-02  
    7     1.278e-02  
    8     2.569e-03  
    9     9.962e-04  
   10     1.579e-04  
   11     6.751e-05  
   12     1.202e-05  
   13     7.361e-06  
   14     2.557e-06  
   15     1.126e-06  
   16     4.119e-07  Converged.
   ... Converged in 16 steps (norm: 4.11936e-07)
------------------------------------
  Starting TPA DIIS iterations ... 
------------------------------------ 
   It     Res. Norm  Remark
------------------------------------
                       Guess.
    1     9.563e-01  
    2     1.010e+00  
    3     2.644e-01  
    4     1.681e-01  
    5     2.307e-02  
    6     8.905e-03  
    7     1.684e-03  
    8     7.905e-04  
    9     2.396e-04  
   10     3.312e-05  
   11     1.853e-05  
   12     5.816e-06  
   13     3.668e-06  
   14     1.643e-06  
   15     7.537e-07  Converged.
   ... Converged in 15 steps (norm: 7.53744e-07)
------------------------------------
  Starting TPA DIIS iterations ... 
------------------------------------ 
   It     Res. Norm  Remark
------------------------------------
                       Guess.
    1     6.023e+00  
    2     8.875e+00  
    3     1.545e+00  
    4     4.477e-01  
    5     1.177e-01  
    6     5.229e-02  
    7     1.557e-02  
    8     3.067e-03  
    9     1.209e-03  
   10     1.952e-04  
   11     8.546e-05  
   12     1.587e-05  
   13     9.500e-06  
   14     3.386e-06  
   15     1.490e-06  
   16     5.651e-07  Converged.
   ... Converged in 16 steps (norm: 5.65133e-07)
------------------------------------
  Starting TPA DIIS iterations ... 
------------------------------------ 
   It     Res. Norm  Remark
------------------------------------
                       Guess.
    1     5.678e+00  
    2     8.359e+00  
    3     1.462e+00  
    4     4.416e-01  
    5     1.173e-01  
    6     5.229e-02  
    7     1.530e-02  
    8     3.109e-03  
    9     1.217e-03  
   10     1.910e-04  
   11     8.513e-05  
   12     1.545e-05  
   13     9.945e-06  
   14     3.609e-06  
   15     1.558e-06  
   16     5.668e-07  Converged.
   ... Converged in 16 steps (norm: 5.66815e-07)
------------------------------------
  Starting TPA DIIS iterations ... 
------------------------------------ 
   It     Res. Norm  Remark
------------------------------------
                       Guess.
    1     1.010e+00  
    2     1.122e+00  
    3     2.880e-01  
    4     1.846e-01  
    5     2.614e-02  
    6     1.036e-02  
    7     2.033e-03  
    8     9.708e-04  
    9     2.961e-04  
   10     3.981e-05  
   11     2.413e-05  
   12     7.603e-06  
   13     4.795e-06  
   14     2.051e-06  
   15     8.114e-07  Converged.
   ... Converged in 15 steps (norm: 8.11436e-07)
------------------------------------
  Starting TPA DIIS iterations ... 
------------------------------------ 
   It     Res. Norm  Remark
------------------------------------
                       Guess.
    1     6.567e+00  
    2     9.952e+00  
    3     1.697e+00  
    4     5.171e-01  
    5     1.373e-01  
    6     6.172e-02  
    7     1.827e-02  
    8     3.638e-03  
    9     1.448e-03  
   10     2.307e-04  
   11     1.049e-04  
   12     1.978e-05  
   13     1.238e-05  
   14     4.590e-06  
   15     1.992e-06  
   16     7.452e-07  Converged.
   ... Converged in 16 steps (norm: 7.45243e-07)
------------------------------------
  Starting TPA DIIS iterations ... 
------------------------------------ 
   It     Res. Norm  Remark
------------------------------------
                       Guess.
    1     6.190e+00  
    2     9.372e+00  
    3     1.605e+00  
    4     5.092e-01  
    5     1.368e-01  
    6     6.176e-02  
    7     1.796e-02  
    8     3.690e-03  
    9     1.455e-03  
   10     2.257e-04  
   11     1.045e-04  
   12     1.933e-05  
   13     1.296e-05  
   14     4.892e-06  
   15     2.079e-06  
   16     7.437e-07  Converged.
   ... Converged in 16 steps (norm: 7.43703e-07)
------------------------------------
  Starting TPA DIIS iterations ... 
------------------------------------ 
   It     Res. Norm  Remark
------------------------------------
                       Guess.
    1     1.064e+00  
    2     1.236e+00  
    3     3.106e-01  
    4     2.007e-01  
    5     2.926e-02  
    6     1.190e-02  
    7     2.416e-03  
    8     1.146e-03  
    9     3.527e-04  
   10     4.881e-05  
   11     3.064e-05  
   12     9.697e-06  
   13     6.123e-06  
   14     2.585e-06  
   15     1.095e-06  
   16     3.498e-07  Converged.
   ... Converged in 16 steps (norm: 3.49785e-07)
------------------------------------
  Starting TPA DIIS iterations ... 
------------------------------------ 
   It     Res. Norm  Remark
------------------------------------
                       Guess.
    1     8.440e+00  
    2     1.386e+01  
    3     2.211e+00  
    4     7.807e-01  
    5     2.118e-01  
    6     9.841e-02  
    7     2.857e-02  
    8     5.925e-03  
    9     2.409e-03  
   10     3.656e-04  
   11     1.833e-04  
   12     3.679e-05  
   13     2.548e-05  
   14     1.063e-05  
   15     4.519e-06  
   16     1.536e-06  
   17     7.686e-07  Converged.
   ... Converged in 17 steps (norm: 7.6859e-07)
------------------------------------
  Starting TPA DIIS iterations ... 
------------------------------------ 
   It     Res. Norm  Remark
------------------------------------
                       Guess.
    1     7.951e+00  
    2     1.305e+01  
    3     2.090e+00  
    4     7.649e-01  
    5     2.111e-01  
    6     9.862e-02  
    7     2.808e-02  
    8     6.007e-03  
    9     2.405e-03  
   10     3.576e-04  
   11     1.828e-04  
   12     3.649e-05  
   13     2.659e-05  
   14     1.125e-05  
   15     4.709e-06  
   16     1.538e-06  
   17     7.842e-07  Converged.
   ... Converged in 17 steps (norm: 7.84207e-07)
------------------------------------
  Starting TPA DIIS iterations ... 
------------------------------------ 
   It     Res. Norm  Remark
------------------------------------
                       Guess.
    1     1.247e+00  
    2     1.649e+00  
    3     3.841e-01  
    4     2.550e-01  
    5     4.047e-02  
    6     1.763e-02  
    7     3.966e-03  
    8     1.628e-03  
    9     5.432e-04  
   10     9.412e-05  
   11     6.020e-05  
   12     1.958e-05  
   13     1.196e-05  
   14     5.385e-06  
   15     3.820e-06  
   16     1.332e-06  
   17     7.667e-07  Converged.
   ... Converged in 17 steps (norm: 7.66695e-07)
------------------------------------
  Starting TPA DIIS iterations ... 
------------------------------------ 
   It     Res. Norm  Remark
------------------------------------
                       Guess.
    1     1.022e+01  
    2     1.784e+01  
    3     2.688e+00  
    4     1.059e+00  
    5     2.910e-01  
    6     1.385e-01  
    7     3.956e-02  
    8     8.556e-03  
    9     3.498e-03  
   10     5.085e-04  
   11     2.706e-04  
   12     5.892e-05  
   13     4.192e-05  
   14     1.911e-05  
   15     8.415e-06  
   16     2.639e-06  
   17     1.713e-06  
   18     3.835e-07  Converged.
   ... Converged in 18 steps (norm: 3.8349e-07)
------------------------------------
  Starting TPA DIIS iterations ... 
------------------------------------ 
   It     Res. Norm  Remark
------------------------------------
                       Guess.
    1     9.626e+00  
    2     1.680e+01  
    3     2.540e+00  
    4     1.033e+00  
    5     2.901e-01  
    6     1.389e-01  
    7     3.888e-02  
    8     8.658e-03  
    9     3.472e-03  
   10     4.970e-04  
   11     2.703e-04  
   12     5.916e-05  
   13     4.358e-05  
   14     2.005e-05  
   15     8.750e-06  
   16     2.661e-06  
   17     1.708e-06  
   18     3.968e-07  Converged.
   ... Converged in 18 steps (norm: 3.96782e-07)
------------------------------------
  Starting TPA DIIS iterations ... 
------------------------------------ 
   It     Res. Norm  Remark
------------------------------------
                       Guess.
    1     1.421e+00  
    2     2.068e+00  
    3     4.485e-01  
    4     3.051e-01  
    5     5.174e-02  
    6     2.341e-02  
    7     5.692e-03  
    8     1.888e-03  
    9     7.157e-04  
   10     1.478e-04  
   11     9.767e-05  
   12     3.304e-05  
   13     1.887e-05  
   14     8.718e-06  
   15     6.735e-06  
   16     2.410e-06  
   17     1.368e-06  
   18     3.217e-07  Converged.
   ... Converged in 18 steps (norm: 3.21673e-07)
------------------------------------
  Starting TPA DIIS iterations ... 
------------------------------------ 
   It     Res. Norm  Remark
------------------------------------
                       Guess.
    1     1.126e+01  
    2     2.026e+01  
    3     2.960e+00  
    4     1.230e+00  
    5     3.403e-01  
    6     1.639e-01  
    7     4.642e-02  
    8     1.029e-02  
    9     4.200e-03  
   10     5.973e-04  
   11     3.263e-04  
   12     7.500e-05  
   13     5.305e-05  
   14     2.515e-05  
   15     1.144e-05  
   16     3.519e-06  
   17     2.546e-06  
   18     7.316e-07  Converged.
   ... Converged in 18 steps (norm: 7.31603e-07)
------------------------------------
  Starting TPA DIIS iterations ... 
------------------------------------ 
   It     Res. Norm  Remark
------------------------------------
                       Guess.
    1     1.060e+01  
    2     1.907e+01  
    3     2.796e+00  
    4     1.198e+00  
    5     3.392e-01  
    6     1.645e-01  
    7     4.561e-02  
    8     1.040e-02  
    9     4.157e-03  
   10     5.833e-04  
   11     3.264e-04  
   12     7.559e-05  
   13     5.504e-05  
   14     2.630e-05  
   15     1.187e-05  
   16     3.539e-06  
   17     2.516e-06  
   18     7.630e-07  Converged.
   ... Converged in 18 steps (norm: 7.63039e-07)
------------------------------------
  Starting TPA DIIS iterations ... 
------------------------------------ 
   It     Res. Norm  Remark
------------------------------------
                       Guess.
    1     1.523e+00  
    2     2.322e+00  
    3     4.840e-01  
    4     3.336e-01  
    5     5.853e-02  
    6     2.673e-02  
    7     6.770e-03  
    8     1.980e-03  
    9     8.132e-04  
   10     1.806e-04  
   11     1.229e-04  
   12     4.267e-05  
   13     2.347e-05  
   14     1.083e-05  
   15     8.489e-06  
   16     3.161e-06  
   17     1.758e-06  
   18     4.337e-07  Converged.
   ... Converged in 18 steps (norm: 4.33694e-07)
------------------------------------
  Starting TPA DIIS iterations ... 
------------------------------------ 
   It     Res. Norm  Remark
------------------------------------
                       Guess.
    1     1.182e+01  
    2     2.160e+01  
    3     3.106e+00  
    4     1.325e+00  
    5     3.679e-01  
    6     1.783e-01  
    7     5.026e-02  
    8     1.130e-02  
    9     4.601e-03  
   10     6.470e-04  
   11     3.580e-04  
   12     8.478e-05  
   13     5.955e-05  
   14     2.874e-05  
   15     1.331e-05  
   16     4.083e-06  
   17     3.087e-06  
   18     1.023e-06  
   19     6.024e-07  Converged.
   ... Converged in 19 steps (norm: 6.02392e-07)
------------------------------------
  Starting TPA DIIS iterations ... 
------------------------------------ 
   It     Res. Norm  Remark
------------------------------------
                       Guess.
    1     1.113e+01  
    2     2.033e+01  
    3     2.934e+00  
    4     1.289e+00  
    5     3.667e-01  
    6     1.789e-01  
    7     4.938e-02  
    8     1.140e-02  
    9     4.546e-03  
   10     6.316e-04  
   11     3.583e-04  
   12     8.555e-05  
   13     6.173e-05  
   14     3.001e-05  
   15     1.379e-05  
   16     4.093e-06  
   17     3.045e-06  
   18     1.065e-06  
   19     6.338e-07  Converged.
   ... Converged in 19 steps (norm: 6.33752e-07)
------------------------------------
  Starting TPA DIIS iterations ... 
------------------------------------ 
   It     Res. Norm  Remark
------------------------------------
                       Guess.
    1     1.579e+00  
    2     2.463e+00  
    3     5.028e-01  
    4     3.490e-01  
    5     6.229e-02  
    6     2.850e-02  
    7     7.371e-03  
    8     2.019e-03  
    9     8.655e-04  
   10     1.984e-04  
   11     1.374e-04  
   12     4.844e-05  
   13     2.617e-05  
   14     1.204e-05  
   15     9.467e-06  
   16     3.608e-06  
   17     1.975e-06  
   18     4.996e-07  Converged.
   ... Converged in 18 steps (norm: 4.99594e-07)
------------------------------------
  Two-photon absorbption ...  CPU 163.87 s  wall 49.32 s
  Transition density matrix of state singlet_A_1 printed to ASCII file 'State_singlet_A_1_Transition.txt'
  Transition density matrix of state singlet_A_2 printed to ASCII file 'State_singlet_A_2_Transition.txt'
  Transition density matrix of state singlet_A_3 printed to ASCII file 'State_singlet_A_3_Transition.txt'
  Transition density matrix of state singlet_A_4 printed to ASCII file 'State_singlet_A_4_Transition.txt'
  Transition density matrix of state singlet_A_5 printed to ASCII file 'State_singlet_A_5_Transition.txt'
  Transition density matrix of state singlet_A_6 printed to ASCII file 'State_singlet_A_6_Transition.txt'
  Transition density matrix of state singlet_A_7 printed to ASCII file 'State_singlet_A_7_Transition.txt'
  Transition density matrix of state singlet_A_8 printed to ASCII file 'State_singlet_A_8_Transition.txt'
  Transition density matrix of state singlet_A_9 printed to ASCII file 'State_singlet_A_9_Transition.txt'
  Transition density matrix of state singlet_A_10 printed to ASCII file 'State_singlet_A_10_Transition.txt'
  Transition properties ...  CPU 0.34 s  wall 2.02 s
  Difference density matrix of state singlet_A_1 printed to ASCII file 'State_singlet_A_1_Difference.txt'
  Total density matrix of state singlet_A_1 printed to ASCII file 'State_singlet_A_1_Total.txt'
  Difference density matrix of state singlet_A_2 printed to ASCII file 'State_singlet_A_2_Difference.txt'
  Total density matrix of state singlet_A_2 printed to ASCII file 'State_singlet_A_2_Total.txt'
  Difference density matrix of state singlet_A_3 printed to ASCII file 'State_singlet_A_3_Difference.txt'
  Total density matrix of state singlet_A_3 printed to ASCII file 'State_singlet_A_3_Total.txt'
  Difference density matrix of state singlet_A_4 printed to ASCII file 'State_singlet_A_4_Difference.txt'
  Total density matrix of state singlet_A_4 printed to ASCII file 'State_singlet_A_4_Total.txt'
  Difference density matrix of state singlet_A_5 printed to ASCII file 'State_singlet_A_5_Difference.txt'
  Total density matrix of state singlet_A_5 printed to ASCII file 'State_singlet_A_5_Total.txt'
  Difference density matrix of state singlet_A_6 printed to ASCII file 'State_singlet_A_6_Difference.txt'
  Total density matrix of state singlet_A_6 printed to ASCII file 'State_singlet_A_6_Total.txt'
  Difference density matrix of state singlet_A_7 printed to ASCII file 'State_singlet_A_7_Difference.txt'
  Total density matrix of state singlet_A_7 printed to ASCII file 'State_singlet_A_7_Total.txt'
  Difference density matrix of state singlet_A_8 printed to ASCII file 'State_singlet_A_8_Difference.txt'
  Total density matrix of state singlet_A_8 printed to ASCII file 'State_singlet_A_8_Total.txt'
  Difference density matrix of state singlet_A_9 printed to ASCII file 'State_singlet_A_9_Difference.txt'
  Total density matrix of state singlet_A_9 printed to ASCII file 'State_singlet_A_9_Total.txt'
  Difference density matrix of state singlet_A_10 printed to ASCII file 'State_singlet_A_10_Difference.txt'
  Total density matrix of state singlet_A_10 printed to ASCII file 'State_singlet_A_10_Total.txt'
  Properties ...  CPU 0.69 s  wall 1.02 s
  ISR TDMS ...  CPU 34.64 s  wall 10.56 s
  ISR transition properties ...  CPU 0.57 s  wall 0.26 s
  Sum-over-states TPA ...  CPU 0.00 s  wall 0.00 s

--------------------------------------------------------------------------------
                   State-averaged natural transition orbitals
--------------------------------------------------------------------------------
--------------------------------------------------------------------------------
  SA-NTO decomposition ...  CPU 0.02 s  wall 0.06 s

--------------------------------------------------------------------------------
                             Excited State Summary
--------------------------------------------------------------------------------
--------------------------------------------------------------------------------

  Excited state 1 (singlet, A)                                     [converged]
  ----------------------------------------------------------------------------
  Term symbol:  2 (1) A                                     R^2 =  2.38451e-13

  Total energy:                                            -77.9996619875 a.u.
  Excitation energy:                                               8.709846 eV

  Osc. strength:                                                      0.442124
  Trans. dip. moment [a.u.]:           [  -1.045403,    0.986329,    0.078858]
  <i|r^2|0> [a.u.]:                    [  -6.143935,    0.244468,    0.019026]
  Two-photon absorption cross-section (SoS) [a.u.]:                   0.020606
  Two-photon absorption matrix (SoS) [a.u.]:
                                       |    0.003045   -0.014065    0.027287 |
                                       |   -0.014065   -0.006794   -0.026469 |
                                       |    0.027287   -0.026469    0.035942 |
  Two-photon absorption cross-section [a.u.]:                         0.077249
  Two-photon absorption matrix [a.u.]:
                                       |    0.043069   -0.003708    0.053450 |
                                       |   -0.003708    0.036789   -0.047310 |
                                       |    0.053450   -0.047310    0.023450 |

  Dip. moment [a.u.]:                  [  -0.011003,    0.004736,    0.034930]
  Total dipole [Debye]:                                               0.093859
  <r^2> [a.u.]:                        [ 175.924169,   36.003064,   12.043937]
  Total <r^2> [a.u.]:                                               223.971171

  V1^2 = 0.9711, V2^2 = 0.0289

  Important amplitudes:
      occ i     occ j     vir a      vir b          v   
    -----------------------------------------------------
     8 (A) A              9 (A) A                -0.6804
     6 (A) A             14 (A) A                -0.0619
     4 (A) A             10 (A) A                -0.0608
     7 (A) A             16 (A) A                 0.0570
     5 (A) A             13 (A) A                -0.0526
     6 (A) A             23 (A) A                -0.0484
     8 (A) A             20 (A) A                 0.0345
     6 (A) A             19 (A) A                 0.0302
     3 (A) A             12 (A) A                 0.0283
     5 (A) A             22 (A) A                 0.0217
     8 (A) A             10 (A) A                 0.0211
     4 (A) A             24 (A) A                -0.0187
     7 (A) A             11 (A) A                -0.0186
     3 (A) A             26 (A) A                 0.0185
     8 (A) A   8 (A) B   17 (A) A   20 (A) B     -0.0183
     8 (A) A   8 (A) B    9 (A) A   28 (A) B      0.0167
     6 (A) A             26 (A) A                -0.0161
     7 (A) A             21 (A) A                 0.0151
     6 (A) A              9 (A) A                 0.0147
     3 (A) A             14 (A) A                 0.0143
     6 (A) A             12 (A) A                 0.0135
     3 (A) A   4 (A) B    9 (A) A    9 (A) B      0.0129
     3 (A) A             19 (A) A                -0.0121
     8 (A) A   8 (A) B   18 (A) A   19 (A) B      0.0110
     7 (A) A             32 (A) A                 0.0096
     4 (A) A              9 (A) A                 0.0087
     7 (A) A             36 (A) A                -0.0085
     3 (A) A             23 (A) A                 0.0082
     6 (A) A             35 (A) A                 0.0066
     8 (A) A   8 (A) B   25 (A) A   29 (A) B      0.0065
     3 (A) A   6 (A) B    9 (A) A   28 (A) B     -0.0064
     5 (A) A   8 (A) B   11 (A) A    9 (A) B      0.0062
     6 (A) A             40 (A) A                 0.0062
     5 (A) A   7 (A) B    9 (A) A    9 (A) B     -0.0060
     7 (A) A   8 (A) B   13 (A) A   20 (A) B      0.0060
     5 (A) A   8 (A) B   11 (A) A   20 (A) B      0.0060
     6 (A) A   8 (A) A   19 (A) A   28 (A) A      0.0059
     5 (A) A   8 (A) B   16 (A) A    9 (A) B      0.0059
     7 (A) A   8 (A) B   22 (A) A   20 (A) B     -0.0057
     8 (A) A   8 (A) B   19 (A) A   30 (A) B      0.0055
    -----------------------------------------------------

  Density matrix analysis:
  ------------------------
  NOs
    Occupation of frontier NOs:
       0.9495   1.0215
    Number of electrons: 16.000000
    Number of unpaired electrons: n_u =  2.31714, n_u,nl =  2.03333
    NO participation ratio (PR_NO):  2.872331
  
  
  Mulliken Population Analysis
  Atom      Charge (e)              h+              e-           Del q
  --------------------------------------------------------------------
   1 H        0.061093        0.020705       -0.015023        0.005682
   2 C       -0.119883        0.490991       -0.503700       -0.012709
   3 H        0.060334        0.020654       -0.014857        0.005798
   4 C       -0.128728        0.490360       -0.505095       -0.014735
   5 H        0.063982        0.020675       -0.012661        0.008014
   6 H        0.063203        0.020580       -0.012628        0.007952
  --------------------------------------------------------------------
  Sum:        0.000000        1.063965       -1.063965       -0.000000
  
  Multipole moment analysis of the density matrix
    Molecular charge:                      -0.000000
    Number of electrons:                   16.000000
      Center of electronic charge [Ang]: [ -1.557045,  -0.069560,  -0.030159]
    Total nuclear charge:                  16.000000
      Center of nuclear charge [Ang]:    [ -1.557409,  -0.069404,  -0.029004]
    Dipole moment [D]:                     0.093859
      Cartesian components [D]:          [ -0.027966,   0.012039,   0.088784]
    RMS size of the density [Ang]:         1.220556
      Cartesian components [Ang]:        [  0.809071,   0.790746,   0.458127]
  
  Exciton analysis of the difference density matrix
    <r_h> [Ang]:                  [ -1.555478,  -0.069885,  -0.044234]
    <r_e> [Ang]:                  [ -1.551957,  -0.072725,  -0.047311]
    |<r_e - r_h>| [Ang]:            0.005472
    Hole size [Ang]:                1.288642
      Cartesian components [Ang]: [  0.731746,   0.715673,   0.782915]
    Electron size [Ang]:            1.468727
      Cartesian components [Ang]: [  0.859251,   0.836103,   0.848397]

  Transition density matrix analysis:
  -----------------------------------
  
  CT numbers (Mulliken)
    omega =     0.9529
    <Phe> =    -0.1603
  
  Exciton analysis of the transition density matrix
    Trans. dipole moment [D]:             1.829320
      Cartesian components [D]:         [ -1.328574,   1.253499,   0.100218]
    <r_h> [Ang]:                        [ -1.555722,  -0.070202,  -0.041716]
    <r_e> [Ang]:                        [ -1.551757,  -0.072571,  -0.049654]
    |<r_e - r_h>| [Ang]:                  0.009184
    Hole size [Ang]:                      1.215155
      Cartesian components [Ang]:       [  0.650756,   0.637981,   0.803802]
    Electron size [Ang]:                  1.492150
      Cartesian components [Ang]:       [  0.870109,   0.845137,   0.869003]
    RMS electron-hole separation [Ang]:   1.942076
      Cartesian components [Ang]:       [  1.111787,   1.079869,   1.170244]
    Covariance(r_h, r_e) [Ang^2]:        -0.034230
    Correlation coefficient:             -0.018878
    Center-of-mass size [Ang]:            0.953238
      Cartesian components [Ang]:       [  0.530352,   0.518758,   0.598565]

  Decomposition into state-averaged NTOs
    H- 0 -> L+ 0: -0.6682 ( 89.3%)
    H- 2 -> L+ 5:  0.0830 (  1.4%)
                   omega =  95.3%
  ----------------------------------------------------------------------------


  Excited state 2 (singlet, A)                                     [converged]
  ----------------------------------------------------------------------------
  Term symbol:  3 (1) A                                     R^2 =  3.10895e-13

  Total energy:                                            -77.9915570680 a.u.
  Excitation energy:                                               8.930393 eV

  Osc. strength:                                                      0.000113
  Trans. dip. moment [a.u.]:           [  -0.011123,   -0.016898,   -0.010334]
  <i|r^2|0> [a.u.]:                    [  -0.030959,   -0.206671,    0.166495]
  Two-photon absorption cross-section (SoS) [a.u.]:                   4.427010
  Two-photon absorption matrix (SoS) [a.u.]:
                                       |    0.094061   -0.056632    0.506915 |
                                       |   -0.056632   -0.205390    0.509500 |
                                       |    0.506915    0.509500    0.126813 |
  Two-photon absorption cross-section [a.u.]:                         1.427249
  Two-photon absorption matrix [a.u.]:
                                       |    0.404981    0.031716   -0.095389 |
                                       |    0.031716   -0.367688   -0.135370 |
                                       |   -0.095389   -0.135370   -0.026207 |

  Dip. moment [a.u.]:                  [  -0.031695,    0.010735,    0.065360]
  Total dipole [Debye]:                                               0.186636
  <r^2> [a.u.]:                        [ 174.077420,   34.335329,   13.354714]
  Total <r^2> [a.u.]:                                               221.767462

  V1^2 = 0.9540, V2^2 = 0.0460

  Important amplitudes:
      occ i     occ j     vir a      vir b          v   
    -----------------------------------------------------
     7 (A) A              9 (A) A                -0.6689
     8 (A) A             11 (A) A                -0.1472
     7 (A) A             20 (A) A                 0.0754
     5 (A) A   8 (A) B    9 (A) A    9 (A) B     -0.0315
     8 (A) A             16 (A) A                -0.0276
     7 (A) A             10 (A) A                -0.0184
     8 (A) A             21 (A) A                 0.0173
     8 (A) A             10 (A) A                 0.0154
     5 (A) A             28 (A) A                -0.0150
     4 (A) A   7 (A) B    9 (A) A   19 (A) B      0.0135
     5 (A) A   7 (A) B    9 (A) A   16 (A) B     -0.0134
     7 (A) A   8 (A) B   20 (A) A   17 (A) B     -0.0105
     7 (A) A             12 (A) A                -0.0104
     7 (A) A   8 (A) A    9 (A) A   28 (A) A     -0.0098
     5 (A) A   8 (A) B    9 (A) A   20 (A) B      0.0094
     4 (A) A   6 (A) B    9 (A) A   16 (A) B      0.0091
     5 (A) A   6 (A) A    9 (A) A   23 (A) A      0.0090
     5 (A) A   6 (A) A    9 (A) A   14 (A) A      0.0089
     5 (A) A   6 (A) B    9 (A) A   19 (A) B     -0.0086
     8 (A) A   7 (A) B    9 (A) A   28 (A) B      0.0085
     4 (A) A   5 (A) A    9 (A) A   10 (A) A     -0.0085
     6 (A) A   7 (A) B    9 (A) A   18 (A) B     -0.0085
     5 (A) A   6 (A) B    9 (A) A   23 (A) B      0.0080
     3 (A) A   7 (A) B    9 (A) A   18 (A) B     -0.0080
     5 (A) A   7 (A) A    9 (A) A   16 (A) A     -0.0078
     4 (A) A   7 (A) B   19 (A) A    9 (A) B      0.0075
     7 (A) A   8 (A) B   17 (A) A   20 (A) B     -0.0074
     4 (A) A   8 (A) B    9 (A) A   25 (A) B     -0.0073
     5 (A) A   5 (A) B    9 (A) A   13 (A) B      0.0073
     7 (A) A   8 (A) B   19 (A) A   18 (A) B      0.0070
     4 (A) A   5 (A) B    9 (A) A   18 (A) B      0.0069
     5 (A) A   8 (A) A    9 (A) A   20 (A) A      0.0068
     7 (A) A   7 (A) B   20 (A) A   22 (A) B     -0.0066
     7 (A) A   8 (A) B   17 (A) A    9 (A) B      0.0065
     5 (A) A   6 (A) B    9 (A) A   14 (A) B      0.0063
     5 (A) A   7 (A) B   11 (A) A   20 (A) B      0.0061
     4 (A) A   5 (A) B   10 (A) A    9 (A) B      0.0061
     4 (A) A   7 (A) A    9 (A) A   19 (A) A      0.0061
     5 (A) A             38 (A) A                -0.0059
     4 (A) A   6 (A) B   16 (A) A    9 (A) B      0.0058
    -----------------------------------------------------

  Density matrix analysis:
  ------------------------
  NOs
    Occupation of frontier NOs:
       0.9581   1.0533
    Number of electrons: 16.000000
    Number of unpaired electrons: n_u =  2.35883, n_u,nl =  2.06359
    NO participation ratio (PR_NO):  3.034225
  
  
  Mulliken Population Analysis
  Atom      Charge (e)              h+              e-           Del q
  --------------------------------------------------------------------
   1 H        0.153051        0.125059       -0.027419        0.097640
   2 C       -0.307846        0.269216       -0.469888       -0.200672
   3 H        0.152752        0.120513       -0.022297        0.098216
   4 C       -0.315554        0.276340       -0.477901       -0.201561
   5 H        0.156778        0.127433       -0.026623        0.100810
   6 H        0.160819        0.127455       -0.021888        0.105568
  --------------------------------------------------------------------
  Sum:        0.000000        1.046016       -1.046016        0.000000
  
  Multipole moment analysis of the density matrix
    Molecular charge:                      0.000000
    Number of electrons:                   16.000000
      Center of electronic charge [Ang]: [ -1.556361,  -0.069759,  -0.031165]
    Total nuclear charge:                  16.000000
      Center of nuclear charge [Ang]:    [ -1.557409,  -0.069404,  -0.029004]
    Dipole moment [D]:                     0.186636
      Cartesian components [D]:          [ -0.080560,   0.027285,   0.166129]
    RMS size of the density [Ang]:         1.205499
      Cartesian components [Ang]:        [  0.790193,   0.772051,   0.482452]
  
  Exciton analysis of the difference density matrix
    <r_h> [Ang]:                  [ -1.566154,  -0.054137,  -0.024610]
    <r_e> [Ang]:                  [ -1.552103,  -0.060060,  -0.043135]
    |<r_e - r_h>| [Ang]:            0.023993
    Hole size [Ang]:                1.496392
      Cartesian components [Ang]: [  1.018147,   0.996843,   0.457021]
    Electron size [Ang]:            1.478433
      Cartesian components [Ang]: [  0.883885,   0.858516,   0.816983]

  Transition density matrix analysis:
  -----------------------------------
  
  CT numbers (Mulliken)
    omega =     0.9212
    <Phe> =    -0.0117
  
  Exciton analysis of the transition density matrix
    Trans. dipole moment [D]:             0.028870
      Cartesian components [D]:         [ -0.014136,  -0.021476,  -0.013133]
    <r_h> [Ang]:                        [ -1.568156,  -0.052207,  -0.020381]
    <r_e> [Ang]:                        [ -1.550196,  -0.061027,  -0.047700]
    |<r_e - r_h>| [Ang]:                  0.033862
    Hole size [Ang]:                      1.527843
      Cartesian components [Ang]:       [  1.043752,   1.021619,   0.448530]
    Electron size [Ang]:                  1.473661
      Cartesian components [Ang]:       [  0.872564,   0.846245,   0.833175]
    RMS electron-hole separation [Ang]:   2.103064
      Cartesian components [Ang]:       [  1.344434,   1.311728,   0.945910]
    Covariance(r_h, r_e) [Ang^2]:         0.042124
    Correlation coefficient:              0.018709
    Center-of-mass size [Ang]:            1.071241
      Cartesian components [Ang]:       [  0.688185,   0.670656,   0.473476]

  Decomposition into state-averaged NTOs
    H- 1 -> L+ 0:  0.6614 ( 87.5%)
    H- 0 -> L+ 2: -0.1474 (  4.3%)
                   omega =  92.1%
  ----------------------------------------------------------------------------


  Excited state 3 (singlet, A)                                     [converged]
  ----------------------------------------------------------------------------
  Term symbol:  4 (1) A                                     R^2 =  3.51574e-13

  Total energy:                                            -77.9838750707 a.u.
  Excitation energy:                                               9.139430 eV

  Osc. strength:                                                      0.026168
  Trans. dip. moment [a.u.]:           [  -0.080574,    0.037398,    0.330118]
  <i|r^2|0> [a.u.]:                    [  -0.452695,    0.027525,    0.028952]
  Two-photon absorption cross-section (SoS) [a.u.]:                   0.536936
  Two-photon absorption matrix (SoS) [a.u.]:
                                       |   -0.050223    0.007206   -0.008629 |
                                       |    0.007206   -0.024831   -0.028091 |
                                       |   -0.008629   -0.028091   -0.266400 |
  Two-photon absorption cross-section [a.u.]:                         0.623843
  Two-photon absorption matrix [a.u.]:
                                       |   -0.141074    0.046513   -0.010196 |
                                       |    0.046513   -0.114332   -0.036943 |
                                       |   -0.010196   -0.036943   -0.165170 |

  Dip. moment [a.u.]:                  [  -0.008432,   -0.082051,   -0.044528]
  Total dipole [Debye]:                                               0.238250
  <r^2> [a.u.]:                        [ 180.662323,   40.892993,   11.203226]
  Total <r^2> [a.u.]:                                               232.758542

  V1^2 = 0.9581, V2^2 = 0.0419

  Important amplitudes:
      occ i     occ j     vir a      vir b          v   
    -----------------------------------------------------
     8 (A) A             10 (A) A                -0.6882
     8 (A) A             24 (A) A                -0.0506
     8 (A) A             18 (A) A                 0.0331
     4 (A) A              9 (A) A                -0.0240
     8 (A) A   8 (A) B    9 (A) A   12 (A) B      0.0222
     8 (A) A              9 (A) A                -0.0204
     8 (A) A   8 (A) B   10 (A) A   17 (A) B     -0.0171
     7 (A) A              9 (A) A                -0.0169
     5 (A) A   8 (A) B   11 (A) A   10 (A) B      0.0169
     8 (A) A             15 (A) A                -0.0149
     7 (A) A   8 (A) B   13 (A) A   10 (A) B      0.0143
     4 (A) A   8 (A) B   12 (A) A   10 (A) B      0.0112
     6 (A) A   8 (A) A   10 (A) A   15 (A) A     -0.0112
     6 (A) A   8 (A) B   15 (A) A   10 (A) B      0.0109
     7 (A) A   8 (A) B   22 (A) A   10 (A) B     -0.0108
     4 (A) A   8 (A) A   10 (A) A   12 (A) A     -0.0108
     7 (A) A   8 (A) A   10 (A) A   22 (A) A      0.0099
     7 (A) A   8 (A) A   10 (A) A   13 (A) A     -0.0098
     5 (A) A   8 (A) A   10 (A) A   11 (A) A     -0.0097
     5 (A) A   8 (A) B   21 (A) A   10 (A) B     -0.0093
     6 (A) A   8 (A) B   10 (A) A   10 (A) B     -0.0089
     6 (A) A   8 (A) A   10 (A) A   18 (A) A     -0.0086
     7 (A) A   8 (A) A   12 (A) A   16 (A) A     -0.0083
     3 (A) A   4 (A) B   10 (A) A    9 (A) B      0.0079
     5 (A) A   8 (A) A   10 (A) A   21 (A) A      0.0079
     8 (A) A   8 (A) B    9 (A) A   23 (A) B     -0.0075
     4 (A) A   8 (A) B   19 (A) A   10 (A) B     -0.0075
     8 (A) A   8 (A) B   10 (A) A   28 (A) B      0.0073
     5 (A) A   8 (A) B   10 (A) A   11 (A) B      0.0072
     7 (A) A   8 (A) B   16 (A) A   12 (A) B      0.0072
     3 (A) A   8 (A) A   10 (A) A   24 (A) A      0.0071
     3 (A) A   8 (A) B   10 (A) A   10 (A) B     -0.0070
     8 (A) A   8 (A) B    9 (A) A   19 (A) B     -0.0068
     3 (A) A   8 (A) B   10 (A) A   18 (A) B      0.0067
     6 (A) A   8 (A) B   18 (A) A   10 (A) B      0.0065
     3 (A) A   6 (A) B   10 (A) A   28 (A) B     -0.0062
     7 (A) A   8 (A) B   12 (A) A   11 (A) B      0.0059
     6 (A) A             28 (A) A                 0.0057
     5 (A) A   8 (A) A   10 (A) A   16 (A) A     -0.0057
     6 (A) A   8 (A) A   11 (A) A   16 (A) A      0.0055
    -----------------------------------------------------

  Density matrix analysis:
  ------------------------
  NOs
    Occupation of frontier NOs:
       0.9814   0.9845
    Number of electrons: 16.000000
    Number of unpaired electrons: n_u =  2.29036, n_u,nl =  2.02539
    NO participation ratio (PR_NO):  2.705120
  
  
  Mulliken Population Analysis
  Atom      Charge (e)              h+              e-           Del q
  --------------------------------------------------------------------
   1 H       -0.156164        0.054199       -0.265774       -0.211575
   2 C        0.308200        0.534418       -0.119044        0.415374
   3 H       -0.141373        0.054548       -0.250458       -0.195909
   4 C        0.306480        0.539722       -0.119248        0.420473
   5 H       -0.165868        0.053948       -0.275785       -0.221837
   6 H       -0.151275        0.054407       -0.260934       -0.206527
  --------------------------------------------------------------------
  Sum:        0.000000        1.291243       -1.291243        0.000000
  
  Multipole moment analysis of the density matrix
    Molecular charge:                      0.000000
    Number of electrons:                   16.000000
      Center of electronic charge [Ang]: [ -1.557130,  -0.066690,  -0.027531]
    Total nuclear charge:                  16.000000
      Center of nuclear charge [Ang]:    [ -1.557409,  -0.069404,  -0.029004]
    Dipole moment [D]:                     0.238250
      Cartesian components [D]:          [ -0.021432,  -0.208553,  -0.113179]
    RMS size of the density [Ang]:         1.282119
      Cartesian components [Ang]:        [  0.858637,   0.843358,   0.441948]
  
  Exciton analysis of the difference density matrix
    <r_h> [Ang]:                  [ -1.557971,  -0.067066,  -0.037623]
    <r_e> [Ang]:                  [ -1.556122,  -0.033839,  -0.007595]
    |<r_e - r_h>| [Ang]:            0.044823
    Hole size [Ang]:                1.413206
      Cartesian components [Ang]: [  0.837101,   0.821950,   0.787916]
    Electron size [Ang]:            2.077022
      Cartesian components [Ang]: [  1.375566,   1.376132,   0.726703]

  Transition density matrix analysis:
  -----------------------------------
  
  CT numbers (Mulliken)
    omega =     0.9250
    <Phe> =    -0.0115
  
  Exciton analysis of the transition density matrix
    Trans. dipole moment [D]:             0.434462
      Cartesian components [D]:         [ -0.102399,   0.047529,   0.419538]
    <r_h> [Ang]:                        [ -1.556045,  -0.071245,  -0.045780]
    <r_e> [Ang]:                        [ -1.555416,  -0.021992,   0.000603]
    |<r_e - r_h>| [Ang]:                  0.067659
    Hole size [Ang]:                      1.213849
      Cartesian components [Ang]:       [  0.637975,   0.623688,   0.823061]
    Electron size [Ang]:                  2.297138
      Cartesian components [Ang]:       [  1.520566,   1.523101,   0.803047]
    RMS electron-hole separation [Ang]:   2.588971
      Cartesian components [Ang]:       [  1.641354,   1.639538,   1.149193]
    Covariance(r_h, r_e) [Ang^2]:         0.026038
    Correlation coefficient:              0.009338
    Center-of-mass size [Ang]:            1.304065
      Cartesian components [Ang]:       [  0.828285,   0.826436,   0.575789]

  Decomposition into state-averaged NTOs
    H- 0 -> L+ 1: -0.6778 ( 91.9%)
                   omega =  92.5%
  ----------------------------------------------------------------------------


  Excited state 4 (singlet, A)                                     [converged]
  ----------------------------------------------------------------------------
  Term symbol:  5 (1) A                                     R^2 =  3.94112e-13

  Total energy:                                            -77.9619729138 a.u.
  Excitation energy:                                               9.735418 eV

  Osc. strength:                                                      0.000027
  Trans. dip. moment [a.u.]:           [   0.001642,    0.001491,    0.010380]
  <i|r^2|0> [a.u.]:                    [   0.013921,   -0.039053,    0.037058]
  Two-photon absorption cross-section (SoS) [a.u.]:                 136.798216
  Two-photon absorption matrix (SoS) [a.u.]:
                                       |    0.226602   -0.321639    2.819116 |
                                       |   -0.321639   -0.910951    2.893816 |
                                       |    2.819116    2.893816    0.684321 |
  Two-photon absorption cross-section [a.u.]:                        84.339731
  Two-photon absorption matrix [a.u.]:
                                       |    0.505590   -0.229032    2.196502 |
                                       |   -0.229032   -1.037963    2.204477 |
                                       |    2.196502    2.204477    0.527581 |

  Dip. moment [a.u.]:                  [   0.073006,    0.058562,   -0.032665]
  Total dipole [Debye]:                                               0.251959
  <r^2> [a.u.]:                        [ 181.321300,   40.963210,   10.909471]
  Total <r^2> [a.u.]:                                               233.193981

  V1^2 = 0.9633, V2^2 = 0.0367

  Important amplitudes:
      occ i     occ j     vir a      vir b          v   
    -----------------------------------------------------
     8 (A) A             11 (A) A                -0.6696
     7 (A) A              9 (A) A                 0.1492
     8 (A) A             21 (A) A                 0.0779
     8 (A) A             16 (A) A                -0.0675
     8 (A) A   8 (A) B    9 (A) A   13 (A) B      0.0168
     5 (A) A   8 (A) B   11 (A) A   11 (A) B      0.0157
     8 (A) A   8 (A) B   11 (A) A   17 (A) B     -0.0136
     7 (A) A             20 (A) A                -0.0135
     7 (A) A   8 (A) B   13 (A) A   11 (A) B      0.0127
     4 (A) A   8 (A) B   12 (A) A   11 (A) B      0.0110
     8 (A) A   8 (A) B    9 (A) A   22 (A) B     -0.0110
     5 (A) A   8 (A) A   11 (A) A   21 (A) A      0.0110
     7 (A) A   8 (A) A   11 (A) A   22 (A) A      0.0095
     6 (A) A   8 (A) B   10 (A) A   11 (A) B     -0.0091
     6 (A) A   8 (A) B   15 (A) A   11 (A) B      0.0089
     7 (A) A   8 (A) B   22 (A) A   11 (A) B     -0.0088
     8 (A) A             10 (A) A                -0.0084
     3 (A) A   4 (A) B   11 (A) A    9 (A) B      0.0083
     3 (A) A   8 (A) B   11 (A) A   18 (A) B      0.0079
     6 (A) A   8 (A) A   11 (A) A   15 (A) A     -0.0079
     7 (A) A   8 (A) A   13 (A) A   16 (A) A     -0.0079
     7 (A) A   8 (A) A   11 (A) A   13 (A) A     -0.0075
     4 (A) A   8 (A) B   19 (A) A   11 (A) B     -0.0070
     5 (A) A   8 (A) B   21 (A) A   11 (A) B     -0.0069
     5 (A) A   8 (A) B    9 (A) A    9 (A) B      0.0067
     4 (A) A   8 (A) A   11 (A) A   12 (A) A     -0.0062
     3 (A) A   6 (A) B   11 (A) A   28 (A) B     -0.0060
     6 (A) A   8 (A) A   11 (A) A   18 (A) A     -0.0059
     6 (A) A   8 (A) B   18 (A) A   11 (A) B      0.0058
     7 (A) A   8 (A) B   16 (A) A   13 (A) B      0.0057
     3 (A) A   8 (A) B   11 (A) A   30 (A) B      0.0056
     5 (A) A   8 (A) B   10 (A) A   10 (A) B      0.0055
     7 (A) A   8 (A) B   12 (A) A   10 (A) B      0.0055
     6 (A) A   8 (A) B   11 (A) A   10 (A) B     -0.0055
     8 (A) A   8 (A) B   20 (A) A   22 (A) B      0.0055
     3 (A) A   8 (A) A   11 (A) A   18 (A) A      0.0054
     3 (A) A   8 (A) A   11 (A) A   24 (A) A      0.0053
     3 (A) A   5 (A) B   11 (A) A   25 (A) B      0.0052
     5 (A) A   8 (A) A   11 (A) A   16 (A) A     -0.0049
     6 (A) A   8 (A) A   10 (A) A   16 (A) A      0.0047
    -----------------------------------------------------

  Density matrix analysis:
  ------------------------
  NOs
    Occupation of frontier NOs:
       0.9413   1.0268
    Number of electrons: 16.000000
    Number of unpaired electrons: n_u =  2.32260, n_u,nl =  2.04935
    NO participation ratio (PR_NO):  2.918552
  
  
  Mulliken Population Analysis
  Atom      Charge (e)              h+              e-           Del q
  --------------------------------------------------------------------
   1 H       -0.114227        0.045680       -0.215318       -0.169638
   2 C        0.255514        0.495679       -0.132991        0.362688
   3 H       -0.137242        0.045667       -0.237445       -0.191778
   4 C        0.248289        0.497482       -0.135200        0.362282
   5 H       -0.113009        0.045552       -0.214530       -0.168977
   6 H       -0.139326        0.045986       -0.240563       -0.194577
  --------------------------------------------------------------------
  Sum:        0.000000        1.176045       -1.176045       -0.000000
  
  Multipole moment analysis of the density matrix
    Molecular charge:                      0.000000
    Number of electrons:                   16.000000
      Center of electronic charge [Ang]: [ -1.559824,  -0.071340,  -0.027923]
    Total nuclear charge:                  16.000000
      Center of nuclear charge [Ang]:    [ -1.557409,  -0.069404,  -0.029004]
    Dipole moment [D]:                     0.251959
      Cartesian components [D]:          [  0.185562,   0.148850,  -0.083027]
    RMS size of the density [Ang]:         1.281558
      Cartesian components [Ang]:        [  0.860462,   0.843706,   0.436068]
  
  Exciton analysis of the difference density matrix
    <r_h> [Ang]:                  [ -1.559019,  -0.070509,  -0.039439]
    <r_e> [Ang]:                  [ -1.593634,  -0.097298,  -0.011807]
    |<r_e - r_h>| [Ang]:            0.051762
    Hole size [Ang]:                1.394776
      Cartesian components [Ang]: [  0.819943,   0.804728,   0.790890]
    Electron size [Ang]:            2.114048
      Cartesian components [Ang]: [  1.421941,   1.411945,   0.673566]

  Transition density matrix analysis:
  -----------------------------------
  
  CT numbers (Mulliken)
    omega =     0.9291
    <Phe> =    -0.0144
  
  Exciton analysis of the transition density matrix
    Trans. dipole moment [D]:             0.013490
      Cartesian components [D]:         [  0.002087,   0.001896,   0.013192]
    <r_h> [Ang]:                        [ -1.555898,  -0.069368,  -0.044610]
    <r_e> [Ang]:                        [ -1.600897,  -0.101972,  -0.008144]
    |<r_e - r_h>| [Ang]:                  0.066466
    Hole size [Ang]:                      1.229007
      Cartesian components [Ang]:       [  0.662071,   0.647612,   0.807911]
    Electron size [Ang]:                  2.248778
      Cartesian components [Ang]:       [  1.512487,   1.503036,   0.714330]
    RMS electron-hole separation [Ang]:   2.552420
      Cartesian components [Ang]:       [  1.642793,   1.628734,   1.078566]
    Covariance(r_h, r_e) [Ang^2]:         0.028515
    Correlation coefficient:              0.010318
    Center-of-mass size [Ang]:            1.286904
      Cartesian components [Ang]:       [  0.829934,   0.822394,   0.539444]

  Decomposition into state-averaged NTOs
    H- 0 -> L+ 2: -0.6647 ( 88.4%)
    H- 1 -> L+ 0: -0.1472 (  4.3%)
                   omega =  92.9%
  ----------------------------------------------------------------------------


  Excited state 5 (singlet, A)                                     [converged]
  ----------------------------------------------------------------------------
  Term symbol:  6 (1) A                                     R^2 =  1.29849e-13

  Total energy:                                            -77.9468417089 a.u.
  Excitation energy:                                              10.147159 eV

  Osc. strength:                                                      0.000069
  Trans. dip. moment [a.u.]:           [  -0.010852,    0.009472,    0.008438]
  <i|r^2|0> [a.u.]:                    [  -0.012634,   -0.145556,    0.063504]
  Two-photon absorption cross-section (SoS) [a.u.]:                 216.606379
  Two-photon absorption matrix (SoS) [a.u.]:
                                       |   -0.143022    0.475803   -3.720173 |
                                       |    0.475803   -0.962319    3.511435 |
                                       |   -3.720173    3.511435    0.308918 |
[...]
    16   -3.150386657069e-03
    17   -4.101614925913e-04
    18    6.279775581038e-04
    19   -2.751354174415e-03
    20    9.998949346347e-03
    21    9.057760362109e-01
    22   -7.232575390101e-04
    23    1.368454538426e-02
    24    2.936591960718e-05
    25    7.143167505796e-02
    26   -5.408956256905e-02
    27   -1.387293484528e+00
    28    9.826504035943e-02
    29   -9.798324115406e-02
    30    6.786683540037e-03
    31    3.868581268489e-01
    32   -3.825364251615e-01
    33    2.681228522047e-02
    34    1.526899105009e-02
    35   -2.133471951541e-03
    36   -1.411964720232e-03
    37    2.640214717613e-05
    38   -2.879043389789e-03
    39    1.239397555077e-02
    40    9.491310981533e-01
    41    2.943529028154e-04
    42   -1.388205947105e-02
    43   -6.538837939997e-04
    44    1.071309458576e-02
    45    9.288065585762e-01
    46    1.369088672548e-02
    47    2.361029077733e-04
    48    9.935353577746e-04
Sym=X
Ene= 0.231048
Spin=Alpha
Occup=0
     1   -3.059926919382e-02
     2   -1.159627045220e+00
     3    1.275450223534e-02
     4    3.463977089637e-03
     5    1.123664535790e-03
     6    6.203524707505e-04
     7   -5.269608276042e-04
     8   -1.748540625688e-02
     9    1.530281737958e-01
    10    1.621103379385e-01
    11    1.896814111840e-02
    12    5.248538379262e-01
    13    5.635484363130e-01
    14    6.523177107887e-02
    15    5.796840623277e-04
    16    1.474164731378e-03
    17    1.786687558259e-03
    18   -1.673775854781e-03
    19   -4.217784647063e-04
    20    2.966188474229e-02
    21    1.183132720913e+00
    22    2.993878831687e-03
    23    1.338097162893e-02
    24    8.403613176535e-04
    25    8.422640094858e-04
    26   -4.126228242934e-04
    27   -2.367814725468e-02
    28    1.567553554541e-01
    29    1.621742453616e-01
    30    1.908484026011e-02
    31    5.342021253279e-01
    32    5.517675507126e-01
    33    6.529022758800e-02
    34    1.663925131778e-04
    35   -9.250220137129e-04
    36   -1.112393929412e-03
    37    9.123251972201e-04
    38   -1.031524663634e-05
    39   -3.007363474618e-02
    40   -1.150223188830e+00
    41    2.783590947048e-03
    42    1.280191235411e-02
    43    8.686609374585e-04
    44    2.964725785336e-02
    45    1.178375982758e+00
    46    1.323907183042e-02
    47    3.501580615789e-03
    48    1.049600182989e-03
Sym=X
Ene= 0.236401
Spin=Alpha
Occup=0
     1    1.825394170257e-02
     2    1.077857388483e+00
     3   -1.589716993123e-02
     4   -9.041161984981e-03
     5   -2.658150017551e-03
     6    8.786223987253e-02
     7   -8.286937626891e-02
     8   -1.564549083620e+00
     9   -5.846199498803e-02
    10    5.696594411447e-02
    11   -1.693276525009e-02
    12   -2.380742142741e-01
    13    2.364142506025e-01
    14   -6.221116397241e-02
    15    2.149835776083e-02
    16   -3.601786890514e-03
    17   -2.430984823114e-03
    18    8.562847477586e-04
    19   -1.247787590389e-02
    20    1.867128485763e-02
    21    1.089103454922e+00
    22    8.292164155408e-03
    23    1.678142651823e-02
    24    3.231555159946e-04
    25   -8.625497147064e-02
    26    8.100098563820e-02
    27    1.528238519786e+00
    28   -5.834755496814e-02
    29    5.571015688146e-02
    30    8.231501253672e-03
    31   -2.387780504104e-01
    32    2.226005892606e-01
    33    3.969654994855e-02
    34   -2.064245102976e-02
    35    1.261693442207e-03
    36    4.478809393432e-03
    37   -3.619353689261e-04
    38    1.228150973250e-02
    39   -1.965415398853e-02
    40   -1.057737942284e+00
    41    8.453815001558e-03
    42    1.588541488133e-02
    43    1.910041428223e-03
    44   -2.001802983202e-02
    45   -1.059259670400e+00
    46   -1.564864227703e-02
    47   -9.216133994099e-03
    48   -1.048927134567e-03
Sym=X
Ene= 0.302928
Spin=Alpha
Occup=0
     1    2.100432556484e-02
     2   -1.655539205942e+00
     3    2.349826513029e-02
     4   -3.706138373463e-04
     5    1.321252648245e-03
     6   -8.097873173387e-05
     7    1.023667908450e-04
     8   -6.387707551155e-03
     9    1.357122442595e-01
    10    1.426156060069e-01
    11    1.678167042983e-02
    12    1.123011060231e+00
    13    1.184877019720e+00
    14    1.388654598334e-01
    15    5.986408594216e-04
    16    4.333124721887e-03
    17    3.386897834211e-04
    18    3.434691750313e-02
    19    1.261288734197e-03
    20   -2.223714781543e-02
    21    1.665131599491e+00
    22   -1.433580732651e-03
    23    2.348976449312e-02
    24    1.409393280865e-03
    25    7.536927601632e-05
    26    4.544150443531e-06
    27    2.244675783079e-04
    28   -1.357931933235e-01
    29   -1.430117757096e-01
    30   -1.682271557400e-02
    31   -1.119664414232e+00
    32   -1.172095304612e+00
    33   -1.377864942749e-01
    34   -4.049636010128e-04
    35    4.253201347012e-04
    36   -3.693401742195e-03
    37    3.349153183204e-02
    38    1.852496961237e-03
    39   -2.004412087111e-02
    40    1.646646120463e+00
    41    1.674083760830e-03
    42   -2.321480368758e-02
    43   -2.600425539319e-03
    44    2.039536224889e-02
    45   -1.649481328185e+00
    46   -2.340820905944e-02
    47    4.033804541024e-04
    48   -9.144239668177e-05
Sym=X
Ene= 0.462280
Spin=Alpha
Occup=0
     1   -1.198778539547e-01
     2   -6.835750491324e-01
     3   -1.506645844594e-02
     4   -1.021682184802e-02
     5   -8.699071197485e-04
     6    6.243381750324e-02
     7    1.776402962601e-02
     8   -3.619167318409e+00
     9    1.021967540477e-01
    10   -9.861982422104e-02
    11    1.563129218375e-02
    12    2.426563543702e+00
    13   -2.306201353224e+00
    14   -1.258807862886e-01
    15    5.296170051242e-02
    16   -1.519487315923e-03
    17   -7.173572432738e-03
    18   -1.474399638617e-03
    19    1.907357516959e-02
    20   -1.161875259184e-01
    21   -7.031756818764e-01
    22    9.784795579394e-03
    23    1.536576107794e-02
    24    2.152952629894e-03
    25   -6.281897694111e-02
    26   -1.448650160778e-02
    27    3.626267242525e+00
    28    1.067684356610e-01
    29   -1.020374397971e-01
    30    1.083708354615e-03
    31    2.424492026957e+00
    32   -2.285207134038e+00
    33   -1.877739871091e-01
    34   -5.206278530956e-02
    35    2.610702067969e-03
    36    5.676091031278e-03
    37    1.268253775051e-03
    38   -2.117732231734e-02
    39    1.095620784360e-01
    40    6.950726457892e-01
    41    9.442780117704e-03
    42    1.504170847757e-02
    43    1.473861519741e-03
    44    1.103605508661e-01
    45    7.016714632451e-01
    46   -1.470922049575e-02
    47   -1.003277328308e-02
    48   -1.477192198491e-03
Sym=X
Ene= 0.580053
Spin=Alpha
Occup=0
     1    2.392559928023e-01
     2    2.596877551485e-02
     3   -2.161099616036e-02
     4    2.639794483250e-02
     5    1.969266443275e-04
     6   -4.966248031804e-03
     7   -1.676849496805e-01
     8   -4.781514886386e-01
     9    3.088224559543e-01
    10   -2.907304344480e-01
    11   -1.983110386217e-02
    12   -7.047932465431e-01
    13    6.724914563281e-01
    14    8.358058962901e-03
    15   -1.714150300528e-03
    16    4.894371248055e-03
    17    2.809433915915e-03
    18   -2.842318881220e-03
    19    6.007749805611e-02
    20    2.394504361590e-01
    21    3.540009208166e-02
    22   -2.687332390006e-02
    23    1.984538415742e-02
    24   -5.274019437475e-04
    25   -7.501092518323e-03
    26   -1.699118837975e-01
    27   -3.536889951104e-01
    28   -3.045003637617e-01
    29    2.871398824639e-01
    30    1.887488958003e-02
    31    7.914529889233e-01
    32   -7.456564187688e-01
    33   -2.800422836414e-02
    34   -1.862683699487e-03
    35    4.962310528769e-03
    36    2.712769941821e-03
    37   -2.315739713858e-03
    38    6.001792334510e-02
    39    2.345068772800e-01
    40    6.390681828304e-02
    41    2.903425842869e-02
    42   -2.151148281919e-02
    43   -9.109601448120e-04
    44    2.381686867176e-01
    45    6.365179045464e-02
    46    2.239219813760e-02
    47   -2.757991731196e-02
    48   -1.649442736185e-03
Sym=X
Ene= 0.608671
Spin=Alpha
Occup=0
     1   -5.170238261684e-01
     2    2.400937651585e-01
     3   -5.902695804872e-02
     4    3.736297515413e-02
     5   -1.779254570452e-03
     6    1.511514202744e-04
     7    1.899145609182e-03
     8    1.688906406682e-03
     9   -3.688456921113e-02
    10   -3.952919822648e-02
    11   -4.583651777779e-03
    12    2.581752212295e-01
    13    2.890737992216e-01
    14    3.300348750854e-02
    15   -9.329539327061e-04
    16   -1.448099856956e-02
    17    2.958290243261e-03
    18   -1.468629360818e-01
    19   -7.478638374892e-03
    20    5.146998403425e-01
    21   -2.263107862562e-01
    22    3.991353657325e-02
    23   -5.721839747603e-02
    24   -5.807843033504e-04
    25   -8.992857854814e-05
    26    1.519140571912e-03
    27   -1.405570341157e-02
    28   -3.385780254999e-02
    29   -3.664769880615e-02
    30   -4.366004914222e-03
    31    2.482302911728e-01
    32    2.748334503325e-01
    33    3.221337352013e-02
    34   -5.707538685783e-05
    35    4.232852515852e-03
    36   -1.411385417013e-02
    37    1.497879012899e-01
    38    7.608872019187e-03
    39   -5.265394194527e-01
    40    2.598330656835e-01
    41    3.974631050370e-02
    42   -5.784600341406e-02
    43   -4.078272753684e-03
    44    5.189369357013e-01
    45   -2.561766694264e-01
    46   -5.957082860250e-02
    47    3.692216104078e-02
    48    1.624176284249e-03
Sym=X
Ene= 0.689068
Spin=Alpha
Occup=0
     1    4.850222107201e-03
     2   -4.409064473943e-02
     3    9.232669882287e-03
     4    1.338250518749e-03
     5   -1.800829941406e-02
     6    5.711356434658e-04
     7    3.492531322677e-02
     8   -5.399343460643e-02
     9    2.037947215358e-02
    10    5.884537572380e-02
    11   -6.676798788756e-01
    12    3.788762252367e-02
    13   -1.073618959848e-01
    14    6.075479794010e-01
    15   -1.867092524156e-02
    16    8.311113346648e-02
    17   -7.625298295041e-02
    18   -9.371865081923e-03
    19   -6.505623343379e-03
    20    4.953299809850e-03
    21   -4.444330822597e-02
    22    1.347627585245e-03
    23   -7.052210571236e-03
    24   -1.996786622610e-02
    25    2.351652938806e-03
    26    1.536961488229e-02
    27    1.807404473972e-02
    28    3.206120489847e-02
    29    4.805889587826e-02
    30   -6.704907191466e-01
    31    3.152406763580e-02
    32   -1.009521742718e-01
    33    6.089111914404e-01
    34    3.325242352597e-04
    35   -8.123097990439e-02
    36    7.893219405227e-02
    37    8.975593669646e-03
    38    1.345993500898e-02
    39    3.786830733179e-02
    40    1.251203521206e-02
    41    4.746142744764e-03
    42    5.940975660229e-03
    43   -1.756753854479e-02
    44    3.790124932354e-02
    45    1.336549505195e-02
    46   -3.559407430134e-03
    47   -2.718573119517e-03
    48   -1.913937105645e-02
Sym=X
Ene= 0.705627
Spin=Alpha
Occup=0
     1   -4.761399056459e-01
     2    1.615790981228e-01
     3   -7.575895360817e-02
     4   -4.501247591675e-02
     5   -5.383017654176e-03
     6   -4.470666997451e-02
     7   -3.032774740511e-01
     8    4.865708420187e-01
     9    2.021944243984e-01
    10   -1.839691929097e-01
    11   -4.119586135357e-02
    12   -7.898700236961e-02
    13    5.582354330689e-02
    14    7.960580288808e-02
    15    1.852130185613e-01
    16   -1.675268181349e-02
    17   -3.129736408904e-02
    18    3.397603027320e-03
    19   -7.851881173003e-02
    20   -4.765675549325e-01
    21    1.485893869420e-01
    22    4.019131008559e-02
    23    7.817416033485e-02
    24    8.940835031179e-03
    25   -4.714985356201e-02
    26   -2.936167845684e-01
    27    4.323807083501e-01
    28   -1.905146383012e-01
    29    1.880515716089e-01
    30   -2.496121884691e-02
    31    3.900139426149e-02
    32   -4.892145156187e-02
    33   -3.871933939141e-03
    34    1.951831867276e-01
    35   -1.753572862233e-02
    36   -3.213236683939e-02
    37    2.759660663335e-03
    38   -7.482413038431e-02
    39   -4.974671160348e-01
    40    1.788815789952e-01
    41   -4.056200125113e-02
    42   -8.189797355029e-02
    43   -1.174219780661e-02
    44   -5.003286160107e-01
    45    1.677041325123e-01
    46    8.029208452859e-02
    47    4.447246277886e-02
    48    3.080867759182e-03
Sym=X
Ene= 0.775861
Spin=Alpha
Occup=0
     1   -5.496046106651e-01
     2    4.935283295656e-01
     3   -1.106374124303e-01
     4   -2.767821280934e-02
     5   -6.571946410060e-03
     6   -8.987364177580e-02
     7    2.166066711978e-01
     8    5.690626296936e-01
     9   -9.339095763512e-02
    10    9.919880100393e-02
    11   -1.671140899152e-02
    12   -3.090390146211e-01
    13    2.648829034888e-01
    14    8.415942453623e-02
    15    2.075880845565e-01
    16   -2.352497698603e-02
    17   -2.145638649233e-02
    18   -3.199980828499e-04
    19   -9.676854239744e-03
    20   -5.417010120754e-01
    21    4.687780201034e-01
    22    2.178077410062e-02
    23    1.098609507044e-01
    24    9.701354912625e-03
    25    8.745676137697e-02
    26   -2.393331496094e-01
    27   -5.471507094044e-01
    28   -1.116722477960e-01
    29    9.747515119619e-02
    30    4.572769991728e-02
    31   -2.770286332953e-01
    32    2.831396053853e-01
    33   -5.364198871628e-02
    34   -1.968273706593e-01
    35    1.146712787212e-02
    36    3.002884052636e-02
    37    1.196511031607e-03
    38    5.236578698703e-03
    39    5.316866580851e-01
    40   -4.835112477295e-01
    41    2.024155109885e-02
    42    1.061479257430e-01
    43    1.008675111576e-02
    44    5.298482887738e-01
    45   -4.720946742491e-01
    46   -1.051325327822e-01
    47   -2.565173078669e-02
    48   -5.387846151430e-03
Sym=X
Ene= 0.807137
Spin=Alpha
Occup=0
     1   -1.922909530309e-02
     2    3.271066535375e-02
     3   -1.345925228626e-02
     4    3.154828807359e-04
     5    3.143851438183e-02
     6   -2.974663858047e-03
     7   -8.161960412518e-03
     8    3.492849955808e-03
     9   -3.961451042670e-02
    10   -5.106722602061e-02
    11    7.633437006509e-01
    12    2.908318222434e-02
    13    1.019884653926e-01
    14   -1.121090445036e+00
    15    6.118704197359e-03
    16    6.396757109104e-02
    17   -6.246697052971e-02
    18   -7.630517019268e-03
    19   -2.084059654289e-03
    20   -1.896983241412e-02
    21    3.078679990667e-02
    22   -4.855323258556e-03
    23    9.211692342866e-03
    24    3.320513368351e-02
    25    4.498311538287e-03
    26   -2.453911827960e-02
    27    1.371885496774e-02
    28    8.292364669846e-03
    29    8.141301557436e-02
    30   -7.609656841610e-01
    31   -3.369545304937e-02
    32   -9.891415939533e-02
    33    1.119112018336e+00
    34   -1.917999102418e-02
    35    6.522586289914e-02
    36   -5.945508111201e-02
    37   -6.987767527604e-03
    38   -1.001308906111e-02
    39    1.982446293718e-02
    40   -2.289639826618e-02
    41    1.000676527808e-04
    42    6.841112016186e-03
    43   -3.000259339239e-02
    44    1.965370957820e-02
    45   -2.265435459754e-02
    46   -3.258446038504e-03
    47    3.306521461998e-03
    48   -3.109304509791e-02
Sym=X
Ene= 0.858276
Spin=Alpha
Occup=0
     1    8.930727228858e-03
     2   -1.072632605363e+00
     3    1.439861632459e-01
     4    5.651061682094e-02
     5    1.591977554436e-02
     6   -6.132847911301e-04
     7   -5.516984041056e-03
     8    3.012509068446e-03
     9   -4.087340320576e-01
    10   -4.259397509270e-01
    11   -5.007457670109e-02
    12    9.358914431777e-01
    13    9.793594970974e-01
    14    1.151717040534e-01
    15    2.328099256703e-03
    16    1.378919294518e-02
    17   -1.384914038090e-02
    18    2.278309318615e-01
    19    1.191263860107e-02
    20   -1.252411599939e-02
    21    1.071439609828e+00
    22    4.905779044302e-02
    23    1.477555745003e-01
    24    8.107314396501e-03
    25    1.741023767796e-05
    26   -6.732070244623e-03
    27    6.142185892130e-03
    28   -4.177219898307e-01
    29   -4.368405743806e-01
    30   -5.162420479561e-02
    31    9.409949369541e-01
    32    9.845030661551e-01
    33    1.159247546532e-01
    34    1.013889412629e-03
    35   -1.252427042140e-02
    36    1.555210815995e-02
    37   -2.327031640051e-01
    38   -1.229470672993e-02
    39    1.900726013879e-02
    40   -1.077298609176e+00
    41    4.765073186629e-02
    42    1.507306101097e-01
    43    1.202399090540e-02
    44   -1.865615314489e-02
    45    1.077155278215e+00
    46    1.480187054092e-01
    47    5.485192290909e-02
    48    1.204731534850e-02
Sym=X
Ene= 0.926999
Spin=Alpha
Occup=0
     1    1.366877149996e-01
     2   -1.257492872623e+00
     3    1.851676740006e-01
     4   -3.188912434008e-03
     5    8.785973733432e-03
     6   -1.255441457783e-03
     7   -7.830758141666e-03
     8   -5.829680862194e-03
     9   -4.869816543377e-01
    10   -4.910220829630e-01
    11   -5.870567727691e-02
    12    1.426101053270e+00
    13    1.447506102339e+00
    14    1.725898921982e-01
    15    4.041627369224e-03
    16    1.175740675182e-02
    17   -4.223069976001e-03
    18    1.275685346183e-01
    19    1.207238385984e-02
    20   -1.390407259444e-01
    21    1.229782983911e+00
    22   -1.665525301375e-02
    23    1.823328416353e-01
    24    1.255335720450e-02
    25    1.046424904039e-03
    26   -1.197917968432e-03
    27    1.797179731079e-02
    28    4.628861007034e-01
    29    5.036889568718e-01
    30    5.862358852812e-02
    31   -1.357232019719e+00
    32   -1.472453720542e+00
    33   -1.720194939926e-01
    34   -4.951152009835e-03
    35   -2.577546322626e-03
    36   -1.676342810968e-02
    37    1.197180206093e-01
    38    2.493865566493e-03
    39   -1.354120100787e-01
    40    1.229891940472e+00
    41    1.460447868247e-02
    42   -1.788428622956e-01
    43   -1.952761204503e-02
    44    1.388254773389e-01
    45   -1.210241913785e+00
    46   -1.802515524595e-01
    47    7.360642664298e-03
    48   -7.193437975514e-04
Sym=X
Ene= 0.969651
Spin=Alpha
Occup=0
     1   -5.812592463906e-02
     2    8.572133782629e-01
     3   -8.118817413229e-02
     4   -9.543728221865e-02
     5   -1.968703346615e-02
     6    2.678457149044e-02
     7    2.421405591417e-01
     8    5.372194130601e-01
     9    4.712657121227e-01
    10   -4.672790671287e-01
    11   -1.290643079519e-03
    12   -1.432452824711e+00
    13    1.434709092526e+00
    14    1.892459949238e-02
    15   -5.797203576086e-02
    16   -3.065647203292e-02
    17    5.653065623014e-03
    18    2.022188996741e-02
    19   -2.949720119974e-01
    20   -5.857279763086e-02
    21    9.216051526370e-01
    22    9.184517276860e-02
    23    9.532726715725e-02
    24    2.690506721320e-03
    25   -2.686580191123e-02
    26   -2.571761010403e-01
    27   -5.095432432964e-01
    28    4.943179742194e-01
    29   -4.507911045296e-01
    30   -3.408910015815e-02
    31   -1.517587499533e+00
    32    1.369886529312e+00
    33    1.070529516100e-01
    34    5.658865125053e-02
    35    2.840335515433e-02
    36   -4.467242245725e-03
    37   -1.435369565900e-02
    38    2.954828575062e-01
    39    6.344182435300e-02
    40   -8.767339764001e-01
    41    9.202285287779e-02
    42    9.025669671383e-02
    43    9.158963166292e-03
    44    6.167549023697e-02
    45   -9.272295654269e-01
    46   -9.185163657219e-02
    47   -9.639550533883e-02
    48   -1.258650707140e-02
[5D]

======= END OF MOLDEN-FORMATTED INPUT FILE =======


        *************************************************************
        *                                                           *
        *  Thank you very much for using Q-Chem.  Have a nice day.  *
        *                                                           *
        *************************************************************


