                  Welcome to Q-Chem
     A Quantum Leap Into The Future Of Chemistry


 Q-Chem 5.4 (devel), Q-Chem, Inc., Pleasanton, CA (2021)

 E. Epifanovsky,  A. T. B. Gilbert,  Xintian Feng,  Joonho Lee,  Yuezhi Mao,  
 N. Mardirossian,  P. Pokhilko,  A. White,  M. Wormit,  M. P. Coons,  
 A. L. Dempwolff,  Zhengting Gan,  D. Hait,  P. R. Horn,  L. D. Jacobson,  
 I. Kaliman,  J. Kussmann,  A. W. Lange,  Ka Un Lao,  D. S. Levine,  Jie Liu,  
 S. C. McKenzie,  A. F. Morrison,  K. Nanda,  F. Plasser,  D. R. Rehn,  
 M. L. Vidal,  Zhi-Qiang You,  Ying Zhu,  B. Alam,  B. Albrecht,  
 A. Aldossary,  E. Alguire,  J. H. Andersen,  D. Barton,  K. Begam,  A. Behn,  
 Y. A. Bernard,  E. J. Berquist,  H. Burton,  A. Carreras,  K. Carter-Fenk,  
 R. Chakraborty,  A. D. Chien,  K. D. Closser,  V. Cofer-Shabica,  
 S. Dasgupta,  Jia Deng,  M. de Wergifosse,  M. Diedenhofen,  Hainam Do,  
 S. Ehlert,  Po-Tung Fang,  S. Fatehi,  Qingguo Feng,  T. Friedhoff,  
 J. Gayvert,  Qinghui Ge,  G. Gidofalvi,  M. Goldey,  J. Gomes,  
 C. Gonzalez-Espinoza,  S. Gulania,  A. Gunina,  M. W. D. Hanson-Heine,  
 P. H. P. Harbach,  A. W. Hauser,  M. F. Herbst,  M. Hernandez Vera,  
 M. Hodecker,  Z. C. Holden,  S. Houck,  Xunkun Huang,  Kerwin Hui,  
 B. C. Huynh,  M. Ivanov,  Hyunjun Ji,  Hanjie Jiang,  B. Kaduk,  S. Kaehler,  
 K. Khistyaev,  Jaehoon Kim,  P. Klunzinger,  Z. Koczor-Benda,  
 Joong Hoon Koh,  D. Kosenkov,  L. Koulias,  T. Kowalczyk,  C. M. Krauter,  
 K. Kue,  A. Kunitsa,  T. Kus,  A. Landau,  K. V. Lawler,  D. Lefrancois,  
 S. Lehtola,  Rain Li,  Yi-Pei Li,  Jiashu Liang,  M. Liebenthal,  
 Hung-Hsuan Lin,  You-Sheng Lin,  Fenglai Liu,  Kuan-Yu Liu,  
 M. Loipersberger,  A. Luenser,  A. Manjanath,  P. Manohar,  E. Mansoor,  
 S. F. Manzer,  Shan-Ping Mao,  A. V. Marenich,  T. Markovich,  S. Mason,  
 S. A. Maurer,  P. F. McLaughlin,  M. F. S. J. Menger,  J.-M. Mewes,  
 S. A. Mewes,  P. Morgante,  J. W. Mullinax,  K. J. Oosterbaan,  G. Paran,  
 Alexander C. Paul,  Suranjan K. Paul,  F. Pavosevic,  Zheng Pei,  S. Prager,  
 E. I. Proynov,  E. Ramos,  B. Rana,  A. E. Rask,  A. Rettig,  R. M. Richard,  
 F. Rob,  E. Rossomme,  T. Scheele,  M. Scheurer,  M. Schneider,  
 N. Sergueev,  S. M. Sharada,  W. Skomorowski,  D. W. Small,  C. J. Stein,  
 Yu-Chuan Su,  E. J. Sundstrom,  Zhen Tao,  J. Thirman,  T. Tsuchimochi,  
 N. M. Tubman,  S. P. Veccham,  O. Vydrov,  J. Wenzel,  J. Witte,  A. Yamada,  
 Kun Yao,  S. Yeganeh,  S. R. Yost,  A. Zech,  Igor Ying Zhang,  Xing Zhang,  
 Yu Zhang,  D. Zuev,  A. Aspuru-Guzik,  A. T. Bell,  N. A. Besley,  
 K. B. Bravaya,  B. R. Brooks,  D. Casanova,  Jeng-Da Chai,  S. Coriani,  
 C. J. Cramer,  A. E. DePrince, III,  R. A. DiStasio Jr.,  A. Dreuw,  
 B. D. Dunietz,  T. R. Furlani,  W. A. Goddard III,  S. Grimme,  
 S. Hammes-Schiffer,  T. Head-Gordon,  W. J. Hehre,  Chao-Ping Hsu,  
 T.-C. Jagau,  Yousung Jung,  A. Klamt,  Jing Kong,  D. S. Lambrecht,  
 WanZhen Liang,  N. J. Mayhall,  C. W. McCurdy,  J. B. Neaton,  
 C. Ochsenfeld,  J. A. Parkhill,  R. Peverati,  V. A. Rassolov,  Yihan Shao,  
 L. V. Slipchenko,  T. Stauch,  R. P. Steele,  J. E. Subotnik,  
 A. J. W. Thom,  A. Tkatchenko,  D. G. Truhlar,  T. Van Voorhis,  
 T. A. Wesolowski,  K. B. Whaley,  H. L. Woodcock III,  P. M. Zimmerman,  
 S. Faraji,  P. M. W. Gill,  M. Head-Gordon,  J. M. Herbert,  A. I. Krylov

 Additional authors for Version 5.4.1: 
 S. Kotaru,  Shaozhi Li,  Xiangyuan Li,  F. Matz,  A. Molle,  Haisheng Ren,  
 Yingli Su,  Hung-Yi Tsai,  C. Utku,  Fang Wang

 Contributors to earlier versions of Q-Chem not listed above: 
 R. D. Adamson,  B. Austin,  R. Baer,  J. Baker,  G. J. O. Beran,  
 K. Brandhorst,  S. T. Brown,  E. F. C. Byrd,  A. K. Chakraborty,  
 G. K. L. Chan,  Chun-Min Chang,  Yunqing Chen,  C.-L. Cheng,  
 Siu Hung Chien,  D. M. Chipman,  D. L. Crittenden,  H. Dachsel,  
 R. J. Doerksen,  A. D. Dutoi,  R. G. Edgar,  J. Fosso-Tande,  
 L. Fusti-Molnar,  D. Ghosh,  A. Ghysels,  A. Golubeva-Zadorozhnaya,  
 J. Gonthier,  M. S. Gordon,  S. R. Gwaltney,  G. Hawkins,  J. E. Herr,  
 A. Heyden,  S. Hirata,  E. G. Hohenstein,  G. Kedziora,  F. J. Keil,  
 C. Kelley,  Jihan Kim,  R. A. King,  R. Z. Khaliullin,  P. P. Korambath,  
 W. Kurlancheek,  A. Laurent,  A. M. Lee,  M. S. Lee,  S. V. Levchenko,  
 Ching Yeh Lin,  D. Liotard,  E. Livshits,  R. C. Lochan,  I. Lotan,  
 L. A. Martinez-Martinez,  P. E. Maslen,  N. Nair,  D. P. O'Neill,  
 D. Neuhauser,  E. Neuscamman,  C. M. Oana,  R. Olivares-Amaya,  R. Olson,  
 T. M. Perrine,  B. Peters,  P. A. Pieniazek,  A. Prociuk,  Y. M. Rhee,  
 J. Ritchie,  M. A. Rohrdanz,  E. Rosta,  N. J. Russ,  H. F. Schaefer III,  
 M. W. Schmidt,  N. E. Schultz,  S. Sharma,  N. Shenvi,  C. D. Sherrill,  
 A. C. Simmonett,  A. Sodt,  T. Stein,  D. Stuck,  K. S. Thanthiriwatte,  
 V. Vanovschi,  L. Vogt,  Tao Wang,  A. Warshel,  M. A. Watson,  
 C. F. Williams,  Q. Wu,  X. Xu,  Jun Yang,  W. Zhang,  Yan Zhao

 Please cite Q-Chem as follows:
 Y. Shao et al., Mol. Phys. 113, 184-215 (2015)
 DOI: 10.1080/00268976.2014.952696

 Q-Chem 5.4.1 for Intel X86 EM64T Linux

 Parts of Q-Chem use Armadillo 9.800.1 (Horizon Scraper).
 http://arma.sourceforge.net/

 Q-Chem begins on Thu Nov 17 15:42:27 2022  

 Host: cpu198.baobab
0

     Scratch files written to /scratch/fum/qchem9046//
 Processing $rem in /home/share/wesolowski/qc5.aug2021.FDE/config/preferences:
 Processing $rem in /home/fum/.qchemrc:

 Checking the input file for inconsistencies... 	...done.

--------------------------------------------------------------
User input:
--------------------------------------------------------------
$comment
generated from CCJob.Templates
$end

$rem
sym_ignore = true
method = adc(2)
ee_states = 10
basis = cc-pVDZ
mem_static = 1024
mem_total = 40000
adc_davidson_maxiter = 900
adc_davidson_conv = 6
adc_print = 3
adc_prop_es = true
adc_prop_es2es = true
adc_prop_tpa = true
molden_format = True
state_analysis = true
print_orbitals = 15
gen_scfman = false
fde_export_density = true
fde_details = 3
$end

$molecule
0 1
H -0.0348278765 -0.2442097827 0.0636489606
C -1.0765972949 -0.5242748755 -0.0023551776
H -1.313264467 -1.5767591607 -0.0757276926
C -2.043634118 0.3926884087 0.0061254933
H -1.8137616575 1.4359188338 0.0804456828
H -3.085977293 0.114931858 -0.0593381042                     
$end
--------------------------------------------------------------
 ----------------------------------------------------------------
             Standard Nuclear Orientation (Angstroms)
    I     Atom           X                Y                Z
 ----------------------------------------------------------------
    1      H      -0.0348278765    -0.2442097827     0.0636489606
    2      C      -1.0765972949    -0.5242748755    -0.0023551776
    3      H      -1.3132644670    -1.5767591607    -0.0757276926
    4      C      -2.0436341180     0.3926884087     0.0061254933
    5      H      -1.8137616575     1.4359188338     0.0804456828
    6      H      -3.0859772930     0.1149318580    -0.0593381042
 ----------------------------------------------------------------
 Nuclear Repulsion Energy =          33.45940455 hartrees
 There are        8 alpha and        8 beta electrons
 Requested basis set is cc-pVDZ
 There are 24 shells and 48 basis functions
 Total memory of 40000 MB is distributed as follows: 
   MEM_STATIC is set to 1024 MB
   QALLOC/CCMAN JOB total memory use is  38976 MB
 Warning: actual memory use might exceed 40000 MB

 Total QAlloc Memory Limit  40000 MB
 Mega-Array Size      1001 MB
 MEM_STATIC part      1024 MB

                       Distance Matrix (Angstroms)
             H (  1)   C (  2)   H (  3)   C (  4)   H (  5)
   C (  2)  1.080776
   H (  3)  1.851895  1.081258
   C (  4)  2.108139  1.332687  2.102109
   H (  5)  2.446982  2.095859  3.057959  1.070838
   H (  6)  3.074674  2.109370  2.450428  1.080700  1.839315

 A cutoff of  1.0D-11 yielded    300 shell pairs
 There are      1220 function pairs (      1329 Cartesian)
 Smallest overlap matrix eigenvalue = 4.80E-03

 Scale SEOQF with 1.000000e-01/1.000000e-01/1.000000e+00

 Standard Electronic Orientation quadrupole field applied
 Nucleus-field energy     =     0.0000000022 hartrees
 Guess from superposition of atomic densities
 Warning:  Energy on first SCF cycle will be non-variational
 SAD guess density has 16.000000 electrons
 A restricted Hartree-Fock SCF calculation will be
 performed using Pulay DIIS extrapolation
 SCF converges when DIIS error is below 1.0E-08
 using 10 threads for integral computing
 -------------------------------------------------------
 OpenMP Integral computing Module                
 Release: version 1.0, May 2013, Q-Chem Inc. Pittsburgh 
 -------------------------------------------------------
 ---------------------------------------
  Cycle       Energy         DIIS Error
 ---------------------------------------
    1     -78.4458659357      1.01E-01
    2     -78.0175348324      7.23E-03
    3     -78.0381991600      1.85E-03
    4     -78.0396838654      5.75E-04
    5     -78.0398063897      5.90E-05
    6     -78.0398082885      1.16E-05
    7     -78.0398083609      4.79E-06
    8     -78.0398083693      9.89E-07
    9     -78.0398083700      1.68E-07
   10     -78.0398083700      5.44E-08
   11     -78.0398083700      7.86E-09 Convergence criterion met
 ---------------------------------------
 SCF time:  CPU 1.53 s  wall 2.17 s
 SCF   energy in the final basis set = -78.03980837
 Total energy in the final basis set = -78.03980837
Exporting Density Matrix to file 'Densmat_SCF.txt'.
Export successful
================================================================================
|                                                                              |
|                                 A D C  M A N                                 |
|                                                                              |
 ------------------------------------------------------------------------------ 
|                                                                              |
| Components:                                                                  |
|                                                                              |
| - libvmm - 1.3-trunk                                                         |
|   Authors:                                                                   |
|   Evgeny Epifanovsky, Ilya Kaliman                                           |
|                                                                              |
| - libtensor - 2.5-trunk                                                      |
|   Authors:                                                                   |
|   Evgeny Epifanovsky, Michael Wormit, Dmitry Zuev, Sam Manzer,               |
|   Ilya Kaliman                                                               |
|                                                                              |
| - libwfa - 1.1-trunk                                                         |
|   Authors:                                                                   |
|   Felix Plasser, Stefanie Mewes (Baeppler), Benjamin Thomitzni,              |
|   Michael Wormit, Feng Chen, Anna I. Krylov, Pavel Pokhilko                  |
|                                                                              |
| - libadc - 1.1-trunk                                                         |
|   Authors:                                                                   |
|   Michael Wormit, Adrian L. Dempwolff, Philipp H. P. Harbach,                |
|   Caroline Krauter, Dirk Rehn, Matthias Schneider, Jan Wenzel                |
|                                                                              |
| - adcman - 2.6-trunk                                                         |
|   Authors:                                                                   |
|   Michael Wormit, Adrian L. Dempwolff, Philipp H. P. Harbach,                |
|   Caroline Krauter, Daniel Lefrancois, Jan-Michael Mewes, Dirk Rehn,         |
|   Matthias Schneider, Jan Wenzel, Andreas Dreuw                              |
|                                                                              |
| Authors of earlier versions of ADCMAN:                                       |
| Andreas Dreuw, Jan Hendrik Starcke, Dirk Rehn, Michael Wormit                |
|                                                                              |
================================================================================

 Created directory /scratch/fum/qchem9046/plots
  Import QC data ...  CPU 0.00 s  wall 0.00 s

 Alpha MOs, Restricted
 -- Occupied --                  
-11.235 -11.233  -1.033  -0.791  -0.642  -0.582  -0.505  -0.374
  1 A     2 A     3 A     4 A     5 A     6 A     7 A     8 A                  
 -- Virtual --                   
  0.168   0.204   0.233   0.240   0.303   0.462   0.577   0.616
  9 A    10 A    11 A    12 A    13 A    14 A    15 A    16 A                  
  0.689   0.710   0.786   0.808   0.863   0.937   0.973   1.010
 17 A    18 A    19 A    20 A    21 A    22 A    23 A    24 A                  
  1.131   1.234   1.255   1.266   1.294   1.603   1.727   1.753
 25 A    26 A    27 A    28 A    29 A    30 A    31 A    32 A                  
  1.821   1.860   1.869   1.925   1.977   1.981   2.222   2.259
 33 A    34 A    35 A    36 A    37 A    38 A    39 A    40 A                  
  2.379   2.459   2.509   2.637   2.728   2.828   3.146   3.405
 41 A    42 A    43 A    44 A    45 A    46 A    47 A    48 A                  

 Beta MOs, Restricted
 -- Occupied --                  
-11.235 -11.233  -1.033  -0.791  -0.642  -0.582  -0.505  -0.374
  1 A     2 A     3 A     4 A     5 A     6 A     7 A     8 A                  
 -- Virtual --                   
  0.168   0.204   0.233   0.240   0.303   0.462   0.577   0.616
  9 A    10 A    11 A    12 A    13 A    14 A    15 A    16 A                  
  0.689   0.710   0.786   0.808   0.863   0.937   0.973   1.010
 17 A    18 A    19 A    20 A    21 A    22 A    23 A    24 A                  
  1.131   1.234   1.255   1.266   1.294   1.603   1.727   1.753
 25 A    26 A    27 A    28 A    29 A    30 A    31 A    32 A                  
  1.821   1.860   1.869   1.925   1.977   1.981   2.222   2.259
 33 A    34 A    35 A    36 A    37 A    38 A    39 A    40 A                  
  2.379   2.459   2.509   2.637   2.728   2.828   3.146   3.405
 41 A    42 A    43 A    44 A    45 A    46 A    47 A    48 A                  
  Import AO data ...  CPU 0.00 s  wall 0.00 s
  Using point group: C1
  Irreducible representations in point group: A
  Molecular orbitals: 
  Occupied MOs:
  Block   0:   1 (  A) A   2 (  A) A   3 (  A) A   4 (  A) A   5 (  A) A
                  -11.23      -11.23      -1.033     -0.7907      -0.642
               6 (  A) A   7 (  A) A   8 (  A) A
                 -0.5821     -0.5054     -0.3739
  Block   1:   1 (  A) B   2 (  A) B   3 (  A) B   4 (  A) B   5 (  A) B
                  -11.23      -11.23      -1.033     -0.7907      -0.642
               6 (  A) B   7 (  A) B   8 (  A) B
                 -0.5821     -0.5054     -0.3739
  Virtual MOs:
  Block   0:   9 (  A) A  10 (  A) A  11 (  A) A  12 (  A) A  13 (  A) A
                  0.1684      0.2039      0.2333      0.2399      0.3033
              14 (  A) A  15 (  A) A  16 (  A) A  17 (  A) A  18 (  A) A
                  0.4621      0.5773      0.6158      0.6892      0.7099
              19 (  A) A  20 (  A) A  21 (  A) A  22 (  A) A
                   0.786       0.808      0.8629      0.9373
  Block   1:  23 (  A) A  24 (  A) A  25 (  A) A  26 (  A) A  27 (  A) A
                  0.9729        1.01       1.131       1.234       1.255
              28 (  A) A  29 (  A) A  30 (  A) A  31 (  A) A  32 (  A) A
                   1.266       1.294       1.603       1.727       1.753
              33 (  A) A  34 (  A) A  35 (  A) A  36 (  A) A
                   1.821        1.86       1.869       1.925
  Block   2:  37 (  A) A  38 (  A) A  39 (  A) A  40 (  A) A  41 (  A) A
                   1.977       1.981       2.222       2.259       2.379
              42 (  A) A  43 (  A) A  44 (  A) A  45 (  A) A  46 (  A) A
                   2.459       2.509       2.637       2.728       2.828
              47 (  A) A  48 (  A) A
                   3.146       3.405
  Block   3:   9 (  A) B  10 (  A) B  11 (  A) B  12 (  A) B  13 (  A) B
                  0.1684      0.2039      0.2333      0.2399      0.3033
              14 (  A) B  15 (  A) B  16 (  A) B  17 (  A) B  18 (  A) B
                  0.4621      0.5773      0.6158      0.6892      0.7099
              19 (  A) B  20 (  A) B  21 (  A) B  22 (  A) B
                   0.786       0.808      0.8629      0.9373
  Block   4:  23 (  A) B  24 (  A) B  25 (  A) B  26 (  A) B  27 (  A) B
                  0.9729        1.01       1.131       1.234       1.255
              28 (  A) B  29 (  A) B  30 (  A) B  31 (  A) B  32 (  A) B
                   1.266       1.294       1.603       1.727       1.753
              33 (  A) B  34 (  A) B  35 (  A) B  36 (  A) B
                   1.821        1.86       1.869       1.925
  Block   5:  37 (  A) B  38 (  A) B  39 (  A) B  40 (  A) B  41 (  A) B
                   1.977       1.981       2.222       2.259       2.379
              42 (  A) B  43 (  A) B  44 (  A) B  45 (  A) B  46 (  A) B
                   2.459       2.509       2.637       2.728       2.828
              47 (  A) B  48 (  A) B
                   3.146       3.405
  Import MO data ...  CPU 0.01 s  wall 0.00 s
  Import HF data ...  CPU 0.08 s  wall 0.03 s
  Import 2e integrals ...  CPU 0.68 s  wall 0.13 s

--------------------------------------------------------------------------------
                                   HF Summary                                   
--------------------------------------------------------------------------------
  Energy:                                                  -78.0398083700 a.u.
  Dip. moment [a.u.]:                  [  -0.000486,    0.002414,    0.000741]
  Total dipole [Debye]:                                               0.006535
  <r^2> [a.u.]:                        [ 175.317448,   34.815534,   11.616812]
  Total <r^2> [a.u.]:                                               221.749794
--------------------------------------------------------------------------------
  HF properties ...  CPU 0.01 s  wall 0.01 s
  MP(1) calculation ...  CPU 0.01 s  wall 0.00 s
  N^6 prerequesite intermediates ...  CPU 0.52 s  wall 0.07 s
  Difference density matrix of state mp2_gs printed to ASCII file 'State_mp2_gs_Difference.txt'
Exporting MP density matrix to file 'Densmat_MP.txt'.
Export successful
  Total density matrix of state mp2_gs printed to ASCII file 'State_mp2_gs_Total.txt'
Exporting MP density matrix to file 'Densmat_MP.txt'.
Export successful

--------------------------------------------------------------------------------
                                 MP(2) Summary                                  
--------------------------------------------------------------------------------
  MP energy contribution:                                   -0.2795683216 a.u.
  Total energy:                                            -78.3193766916 a.u.
  Dip. moment [a.u.]:                  [  -0.000600,    0.002148,    0.000712]
  Total dipole [Debye]:                                               0.005950
  <r^2> [a.u.]:                        [ 175.363777,   34.857530,   11.449330]
  Total <r^2> [a.u.]:                                               221.670637

  Density matrix analysis:
  ------------------------
  NOs
    Occupation of frontier NOs:
       0.0453   1.9383
    Number of electrons: 16.000000
    Number of unpaired electrons: n_u =  0.40278, n_u,nl =  0.04496
    NO participation ratio (PR_NO): 13.848959
  
  
  Mulliken Population Analysis
  Atom      Charge (e)              h+              e-           Del q
  --------------------------------------------------------------------
   1 H        0.050808        0.014027       -0.011195        0.002831
   2 C       -0.102285        0.093319       -0.098861       -0.005542
   3 H        0.050363        0.014070       -0.011188        0.002882
   4 C       -0.096620        0.092362       -0.098599       -0.006236
   5 H        0.047470        0.014268       -0.011138        0.003130
   6 H        0.050264        0.014098       -0.011163        0.002935
  --------------------------------------------------------------------
  Sum:       -0.000000        0.242145       -0.242145        0.000000
  
  Multipole moment analysis of the density matrix
    Molecular charge:                      -0.000000
    Number of electrons:                   16.000000
      Center of electronic charge [Ang]: [ -1.560556,  -0.066298,   0.001955]
    Total nuclear charge:                  16.000000
      Center of nuclear charge [Ang]:    [ -1.560576,  -0.066227,   0.001978]
    Dipole moment [D]:                     0.005950
      Cartesian components [D]:          [ -0.001525,   0.005460,   0.001809]
    RMS size of the density [Ang]:         1.199957
      Cartesian components [Ang]:        [  0.796142,   0.778250,   0.447638]
  
  Exciton analysis of the difference density matrix
    <r_h> [Ang]:                  [ -1.559951,  -0.067957,   0.001785]
    <r_e> [Ang]:                  [ -1.559703,  -0.067377,   0.001849]
    |<r_e - r_h>| [Ang]:            0.000634
    Hole size [Ang]:                1.392458
      Cartesian components [Ang]: [  0.846699,   0.832122,   0.727745]
    Electron size [Ang]:            1.359504
      Cartesian components [Ang]: [  0.878209,   0.860855,   0.579593]
--------------------------------------------------------------------------------
  MP(2) calculation ...  CPU 0.13 s  wall 0.12 s
  Start ADC(2)-s ...  CPU 0.01 s  wall 0.00 s
  ADC(2) intermediates ...  CPU 0.02 s  wall 0.01 s
  Starting Davidson for singlet states of irrep A ... 
--------------------------------------------------------------------------------
   It NVec Conv  Avg. Norm  Max. Norm  Conv. states           Remark
--------------------------------------------------------------------------------
        10    0  1.330e-01  4.688e-01  0.4120 n n n n n n n n Guess.
    1   20    0  2.304e-02  1.108e-01  0.3262 n n n n n n n n 
    2   30    0  5.807e-03  2.472e-02  0.3215 n n n n n n n n 
    3   40    0  1.813e-03  1.075e-02  0.3211 n n n n n n n n 
    4   50    0  5.718e-04  3.905e-03  0.3211 n n n n n n n n 
    5   20    0  2.769e-04  2.025e-03  0.3211 n n n n n n n n Subspace collapsed.
    6   30    0  1.494e-04  1.248e-03  0.3211 n n n n n n n n 
    7   40    0  1.047e-04  8.541e-04  0.3211 n n n n n n n n 
    8   50    0  8.156e-05  7.443e-04  0.3211 n n n n n n n n 
    9   20    2  5.183e-05  4.703e-04  0.3211 n y n y n n n n Subspace collapsed.
   10   30    4  6.126e-05  5.828e-04  0.3211 n y y y n y n n 
   11   40    5  6.607e-05  6.551e-04  0.3211 n y y y y y n n 
   12   50    6  5.590e-05  5.577e-04  0.3211 y y y y y y n n 
   13   20    6  2.413e-05  2.406e-04  0.3211 y y y y y y n n Subspace collapsed.
   14   30    6  1.768e-05  1.761e-04  0.3211 y y y y y y n n 
   15   40    6  7.820e-06  7.765e-05  0.3211 y y y y y y n n 
   16   50    7  8.213e-06  8.200e-05  0.3211 y y y y y y n y 
   17   20    8  5.579e-06  5.574e-05  0.3211 y y y y y y n y Subspace collapsed.
   18   30    7  8.534e-06  8.531e-05  0.3211 y y y y y y n y 
   19   40    8  9.514e-06  9.513e-05  0.3211 y y y y y y y y 
   20   50    9  8.606e-06  8.606e-05  0.3211 y y y y y y y y 
   21   20    9  3.690e-06  3.690e-05  0.3211 y y y y y y y y Subspace collapsed.
   22   30    9  2.296e-06  2.296e-05  0.3211 y y y y y y y y 
   23   32    9  2.200e-06  2.200e-05  0.3211 y y y y y y y y 
   24   33    9  2.236e-06  2.236e-05  0.3211 y y y y y y y y 
   25   34    9  2.216e-06  2.216e-05  0.3211 y y y y y y y y 
   26   35    9  2.184e-06  2.184e-05  0.3211 y y y y y y y y 
   27   36    9  2.184e-06  2.184e-05  0.3211 y y y y y y y y 
   28   36    9  2.184e-06  2.184e-05  0.3211 y y y y y y y y 
   29   46    9  1.224e-06  1.224e-05  0.3211 y y y y y y y y 
   30   50    9  1.262e-06  1.262e-05  0.3211 y y y y y y y y 
   31   16    9  1.000e-06  1.000e-05  0.3211 y y y y y y y y Subspace collapsed.
   32   22    9  1.326e-06  1.326e-05  0.3211 y y y y y y y y 
   33   27    9  1.600e-06  1.600e-05  0.3211 y y y y y y y y 
   34   27    9  1.600e-06  1.600e-05  0.3211 y y y y y y y y 
   35   36    9  1.252e-06  1.252e-05  0.3211 y y y y y y y y 
   36   40    9  6.758e-07  6.758e-06  0.3211 y y y y y y y y 
   37   44    9  3.538e-07  3.538e-06  0.3211 y y y y y y y y 
   38   48    9  1.826e-07  1.826e-06  0.3211 y y y y y y y y 
   39   50   10  8.293e-08  8.293e-07  0.3211 y y y y y y y y Converged.
--------------------------------------------------------------------------------
  Davidson Summary: 
 ------------------------------------------------------------
  State  0: excitation energy =   0.3211 a.u.   (converged)
  State  1: excitation energy =   0.3333 a.u.   (converged)
  State  2: excitation energy =   0.3373 a.u.   (converged)
  State  3: excitation energy =   0.3619 a.u.   (converged)
  State  4: excitation energy =   0.3756 a.u.   (converged)
  State  5: excitation energy =   0.3874 a.u.   (converged)
  State  6: excitation energy =   0.4255 a.u.   (converged)
  State  7: excitation energy =   0.4475 a.u.   (converged)
  State  8: excitation energy =   0.4567 a.u.   (converged)
  State  9: excitation energy =   0.4657 a.u.   (converged)
 ------------------------------------------------------------

  Singlet states of irrep A ...  CPU 92.11 s  wall 32.85 s
  TDMs ...  CPU 0.67 s  wall 0.28 s
  SDMs ...  CPU 1.48 s  wall 0.52 s
  Starting TPA DIIS iterations ... 
------------------------------------ 
   It     Res. Norm  Remark
------------------------------------
                       Guess.
    1     4.406e+00  
    2     5.843e+00  
    3     1.078e+00  
    4     2.572e-01  
    5     6.593e-02  
    6     2.683e-02  
    7     8.230e-03  
    8     1.445e-03  
    9     5.353e-04  
   10     8.963e-05  
   11     2.826e-05  
   12     4.389e-06  
   13     1.431e-06  
   14     4.593e-07  Converged.
   ... Converged in 14 steps (norm: 4.59274e-07)
------------------------------------
  Starting TPA DIIS iterations ... 
------------------------------------ 
   It     Res. Norm  Remark
------------------------------------
                       Guess.
    1     4.189e+00  
    2     5.546e+00  
    3     1.027e+00  
    4     2.530e-01  
    5     6.517e-02  
    6     2.631e-02  
    7     8.061e-03  
    8     1.416e-03  
    9     5.216e-04  
   10     8.799e-05  
   11     2.744e-05  
   12     4.263e-06  
   13     1.383e-06  
   14     4.408e-07  Converged.
   ... Converged in 14 steps (norm: 4.40764e-07)
------------------------------------
  Starting TPA DIIS iterations ... 
------------------------------------ 
   It     Res. Norm  Remark
------------------------------------
                       Guess.
    1     6.879e-01  
    2     4.836e-01  
    3     1.708e-01  
    4     5.953e-02  
    5     1.826e-02  
    6     6.628e-03  
    7     1.036e-03  
    8     4.420e-04  
    9     1.275e-04  
   10     2.437e-05  
   11     7.951e-06  
   12     2.469e-06  
   13     1.705e-06  
   14     7.164e-07  Converged.
   ... Converged in 14 steps (norm: 7.164e-07)
------------------------------------
  Starting TPA DIIS iterations ... 
------------------------------------ 
   It     Res. Norm  Remark
------------------------------------
                       Guess.
    1     4.708e+00  
    2     6.386e+00  
    3     1.163e+00  
    4     2.873e-01  
    5     7.471e-02  
    6     3.067e-02  
    7     9.389e-03  
    8     1.646e-03  
    9     6.146e-04  
   10     1.035e-04  
   11     3.297e-05  
   12     5.170e-06  
   13     1.703e-06  
   14     5.508e-07  Converged.
   ... Converged in 14 steps (norm: 5.50783e-07)
------------------------------------
  Starting TPA DIIS iterations ... 
------------------------------------ 
   It     Res. Norm  Remark
------------------------------------
                       Guess.
    1     4.476e+00  
    2     6.061e+00  
    3     1.107e+00  
    4     2.824e-01  
    5     7.386e-02  
    6     3.009e-02  
    7     9.198e-03  
    8     1.612e-03  
    9     5.986e-04  
   10     1.016e-04  
   11     3.200e-05  
   12     5.023e-06  
   13     1.640e-06  
   14     5.294e-07  Converged.
   ... Converged in 14 steps (norm: 5.29415e-07)
------------------------------------
  Starting TPA DIIS iterations ... 
------------------------------------ 
   It     Res. Norm  Remark
------------------------------------
                       Guess.
    1     7.005e-01  
    2     5.019e-01  
    3     1.812e-01  
    4     6.774e-02  
    5     1.974e-02  
    6     7.275e-03  
    7     1.178e-03  
    8     5.231e-04  
    9     1.539e-04  
   10     2.711e-05  
   11     9.281e-06  
   12     2.950e-06  
   13     2.155e-06  
   14     9.194e-07  Converged.
   ... Converged in 14 steps (norm: 9.19369e-07)
------------------------------------
  Starting TPA DIIS iterations ... 
------------------------------------ 
   It     Res. Norm  Remark
------------------------------------
                       Guess.
    1     4.815e+00  
    2     6.580e+00  
    3     1.193e+00  
    4     2.983e-01  
    5     7.790e-02  
    6     3.208e-02  
    7     9.811e-03  
    8     1.719e-03  
    9     6.436e-04  
   10     1.085e-04  
   11     3.472e-05  
   12     5.460e-06  
   13     1.805e-06  
   14     5.853e-07  Converged.
   ... Converged in 14 steps (norm: 5.85333e-07)
------------------------------------
  Starting TPA DIIS iterations ... 
------------------------------------ 
   It     Res. Norm  Remark
------------------------------------
                       Guess.
    1     4.577e+00  
    2     6.245e+00  
    3     1.136e+00  
    4     2.931e-01  
    5     7.702e-02  
    6     3.148e-02  
    7     9.612e-03  
    8     1.684e-03  
    9     6.267e-04  
   10     1.066e-04  
   11     3.368e-05  
   12     5.305e-06  
   13     1.736e-06  
   14     5.630e-07  Converged.
   ... Converged in 14 steps (norm: 5.63019e-07)
------------------------------------
  Starting TPA DIIS iterations ... 
------------------------------------ 
   It     Res. Norm  Remark
------------------------------------
                       Guess.
    1     7.047e-01  
    2     5.082e-01  
    3     1.848e-01  
    4     7.078e-02  
    5     2.025e-02  
    6     7.511e-03  
    7     1.230e-03  
    8     5.533e-04  
    9     1.637e-04  
   10     2.790e-05  
   11     9.775e-06  
   12     3.133e-06  
   13     2.330e-06  
   14     1.000e-06  
   15     4.002e-07  Converged.
   ... Converged in 15 steps (norm: 4.00186e-07)
------------------------------------
  Starting TPA DIIS iterations ... 
------------------------------------ 
   It     Res. Norm  Remark
------------------------------------
                       Guess.
    1     5.568e+00  
    2     7.986e+00  
    3     1.404e+00  
    4     3.800e-01  
    5     1.017e-01  
    6     4.267e-02  
    7     1.296e-02  
    8     2.264e-03  
    9     8.621e-04  
   10     1.468e-04  
   11     4.814e-05  
   12     7.695e-06  
   13     2.616e-06  
   14     8.645e-07  Converged.
   ... Converged in 14 steps (norm: 8.64524e-07)
------------------------------------
  Starting TPA DIIS iterations ... 
------------------------------------ 
   It     Res. Norm  Remark
------------------------------------
                       Guess.
    1     5.290e+00  
    2     7.578e+00  
    3     1.336e+00  
    4     3.726e-01  
    5     1.006e-01  
    6     4.191e-02  
    7     1.271e-02  
    8     2.217e-03  
    9     8.386e-04  
   10     1.442e-04  
   11     4.663e-05  
   12     7.491e-06  
   13     2.494e-06  
   14     8.374e-07  Converged.
   ... Converged in 14 steps (norm: 8.37449e-07)
------------------------------------
  Starting TPA DIIS iterations ... 
------------------------------------ 
   It     Res. Norm  Remark
------------------------------------
                       Guess.
    1     7.320e-01  
    2     5.503e-01  
    3     2.098e-01  
    4     9.420e-02  
    5     2.386e-02  
    6     9.276e-03  
    7     1.636e-03  
    8     7.832e-04  
    9     2.376e-04  
   10     3.148e-05  
   11     1.367e-05  
   12     4.637e-06  
   13     3.819e-06  
   14     1.710e-06  
   15     6.386e-07  Converged.
   ... Converged in 15 steps (norm: 6.3863e-07)
------------------------------------
  Starting TPA DIIS iterations ... 
------------------------------------ 
   It     Res. Norm  Remark
------------------------------------
                       Guess.
    1     6.072e+00  
    2     8.960e+00  
    3     1.545e+00  
    4     4.389e-01  
    5     1.189e-01  
    6     5.039e-02  
    7     1.524e-02  
    8     2.655e-03  
    9     1.021e-03  
   10     1.747e-04  
   11     5.813e-05  
   12     9.365e-06  
   13     3.244e-06  
   14     1.089e-06  
   15     4.322e-07  Converged.
   ... Converged in 15 steps (norm: 4.32153e-07)
------------------------------------
  Starting TPA DIIS iterations ... 
------------------------------------ 
   It     Res. Norm  Remark
------------------------------------
                       Guess.
    1     5.769e+00  
    2     8.503e+00  
    3     1.470e+00  
    4     4.297e-01  
    5     1.176e-01  
    6     4.952e-02  
    7     1.494e-02  
    8     2.599e-03  
    9     9.926e-04  
   10     1.716e-04  
   11     5.625e-05  
   12     9.135e-06  
   13     3.075e-06  
   14     1.062e-06  
   15     3.141e-07  Converged.
   ... Converged in 15 steps (norm: 3.14088e-07)
------------------------------------
  Starting TPA DIIS iterations ... 
------------------------------------ 
   It     Res. Norm  Remark
------------------------------------
                       Guess.
    1     7.480e-01  
    2     5.766e-01  
    3     2.259e-01  
    4     1.117e-01  
    5     2.630e-02  
    6     1.056e-02  
    7     1.945e-03  
    8     9.423e-04  
    9     2.887e-04  
   10     3.334e-05  
   11     1.670e-05  
   12     5.872e-06  
   13     5.073e-06  
   14     2.324e-06  
   15     8.339e-07  Converged.
   ... Converged in 15 steps (norm: 8.33947e-07)
------------------------------------
  Starting TPA DIIS iterations ... 
------------------------------------ 
   It     Res. Norm  Remark
------------------------------------
                       Guess.
    1     6.570e+00  
    2     9.945e+00  
    3     1.682e+00  
    4     5.000e-01  
    5     1.366e-01  
    6     5.845e-02  
    7     1.759e-02  
    8     3.059e-03  
    9     1.187e-03  
   10     2.038e-04  
   11     6.865e-05  
   12     1.113e-05  
   13     3.926e-06  
   14     1.343e-06  
   15     5.490e-07  Converged.
   ... Converged in 15 steps (norm: 5.48965e-07)
------------------------------------
  Starting TPA DIIS iterations ... 
------------------------------------ 
   It     Res. Norm  Remark
------------------------------------
                       Guess.
    1     6.240e+00  
    2     9.437e+00  
    3     1.600e+00  
    4     4.889e-01  
    5     1.352e-01  
    6     5.747e-02  
    7     1.724e-02  
    8     2.993e-03  
    9     1.153e-03  
   10     2.002e-04  
   11     6.640e-05  
   12     1.088e-05  
   13     3.699e-06  
   14     1.320e-06  
   15     3.897e-07  Converged.
   ... Converged in 15 steps (norm: 3.89731e-07)
------------------------------------
  Starting TPA DIIS iterations ... 
------------------------------------ 
   It     Res. Norm  Remark
------------------------------------
                       Guess.
    1     7.624e-01  
    2     6.012e-01  
    3     2.413e-01  
    4     1.302e-01  
    5     2.878e-02  
    6     1.189e-02  
    7     2.276e-03  
    8     1.093e-03  
    9     3.386e-04  
   10     3.606e-05  
   11     2.003e-05  
   12     7.284e-06  
   13     6.521e-06  
   14     3.038e-06  
   15     1.072e-06  
   16     4.815e-07  Converged.
   ... Converged in 16 steps (norm: 4.81469e-07)
------------------------------------
  Starting TPA DIIS iterations ... 
------------------------------------ 
   It     Res. Norm  Remark
------------------------------------
                       Guess.
    1     8.727e+00  
    2     1.447e+01  
    3     2.269e+00  
    4     7.930e-01  
    5     2.220e-01  
    6     9.803e-02  
    7     2.891e-02  
    8     4.991e-03  
    9     1.999e-03  
   10     3.456e-04  
   11     1.199e-04  
   12     1.991e-05  
   13     7.465e-06  
   14     2.873e-06  
   15     1.257e-06  
   16     5.485e-07  Converged.
   ... Converged in 16 steps (norm: 5.48525e-07)
------------------------------------
  Starting TPA DIIS iterations ... 
------------------------------------ 
   It     Res. Norm  Remark
------------------------------------
                       Guess.
    1     8.285e+00  
    2     1.373e+01  
    3     2.157e+00  
    4     7.719e-01  
    5     2.200e-01  
    6     9.654e-02  
    7     2.835e-02  
    8     4.875e-03  
    9     1.938e-03  
   10     3.395e-04  
   11     1.160e-04  
   12     1.981e-05  
   13     6.864e-06  
   14     2.945e-06  
   15     8.929e-07  Converged.
   ... Converged in 15 steps (norm: 8.92927e-07)
------------------------------------
  Starting TPA DIIS iterations ... 
------------------------------------ 
   It     Res. Norm  Remark
------------------------------------
                       Guess.
    1     8.134e-01  
    2     6.971e-01  
    3     3.045e-01  
    4     2.208e-01  
    5     4.036e-02  
    6     1.822e-02  
    7     3.975e-03  
    8     1.579e-03  
    9     5.412e-04  
   10     6.299e-05  
   11     3.845e-05  
   12     1.591e-05  
   13     1.524e-05  
   14     7.314e-06  
   15     2.846e-06  
   16     1.270e-06  
   17     2.736e-07  Converged.
   ... Converged in 17 steps (norm: 2.73558e-07)
------------------------------------
  Starting TPA DIIS iterations ... 
------------------------------------ 
   It     Res. Norm  Remark
------------------------------------
                       Guess.
    1     1.054e+01  
    2     1.854e+01  
    3     2.748e+00  
    4     1.067e+00  
    5     3.025e-01  
    6     1.362e-01  
    7     3.956e-02  
    8     6.801e-03  
    9     2.779e-03  
   10     4.804e-04  
   11     1.669e-04  
   12     2.852e-05  
   13     1.106e-05  
   14     4.771e-06  
   15     2.137e-06  
   16     9.723e-07  Converged.
   ... Converged in 16 steps (norm: 9.72274e-07)
------------------------------------
  Starting TPA DIIS iterations ... 
------------------------------------ 
   It     Res. Norm  Remark
------------------------------------
                       Guess.
    1     1.000e+01  
    2     1.759e+01  
    3     2.612e+00  
    4     1.035e+00  
    5     2.998e-01  
    6     1.343e-01  
    7     3.880e-02  
    8     6.634e-03  
    9     2.690e-03  
   10     4.721e-04  
   11     1.619e-04  
   12     2.896e-05  
   13     9.951e-06  
   14     5.066e-06  
   15     1.694e-06  
   16     1.360e-06  
   17     6.011e-07  Converged.
   ... Converged in 17 steps (norm: 6.01061e-07)
------------------------------------
  Starting TPA DIIS iterations ... 
------------------------------------ 
   It     Res. Norm  Remark
------------------------------------
                       Guess.
    1     8.465e-01  
    2     7.674e-01  
    3     3.534e-01  
    4     3.021e-01  
    5     5.097e-02  
    6     2.381e-02  
    7     5.630e-03  
    8     1.774e-03  
    9     6.967e-04  
   10     9.539e-05  
   11     5.854e-05  
   12     2.654e-05  
   13     2.550e-05  
   14     1.223e-05  
   15     5.264e-06  
   16     2.237e-06  
   17     4.992e-07  Converged.
   ... Converged in 17 steps (norm: 4.99185e-07)
------------------------------------
  Starting TPA DIIS iterations ... 
------------------------------------ 
   It     Res. Norm  Remark
------------------------------------
                       Guess.
    1     1.148e+01  
    2     2.075e+01  
    3     2.993e+00  
    4     1.216e+00  
    5     3.470e-01  
    6     1.576e-01  
    7     4.545e-02  
    8     7.798e-03  
    9     3.214e-03  
   10     5.551e-04  
   11     1.921e-04  
   12     3.347e-05  
   13     1.320e-05  
   14     6.002e-06  
   15     2.723e-06  
   16     1.250e-06  
   17     4.485e-07  Converged.
   ... Converged in 17 steps (norm: 4.48501e-07)
------------------------------------
  Starting TPA DIIS iterations ... 
------------------------------------ 
   It     Res. Norm  Remark
------------------------------------
                       Guess.
    1     1.089e+01  
    2     1.969e+01  
    3     2.844e+00  
    4     1.179e+00  
    5     3.440e-01  
    6     1.554e-01  
    7     4.457e-02  
    8     7.602e-03  
    9     3.109e-03  
   10     5.456e-04  
   11     1.867e-04  
   12     3.435e-05  
   13     1.173e-05  
   14     6.467e-06  
   15     2.309e-06  
   16     1.832e-06  
   17     7.899e-07  Converged.
   ... Converged in 17 steps (norm: 7.89918e-07)
------------------------------------
  Starting TPA DIIS iterations ... 
------------------------------------ 
   It     Res. Norm  Remark
------------------------------------
                       Guess.
    1     8.613e-01  
    2     8.013e-01  
    3     3.776e-01  
    4     3.435e-01  
    5     5.671e-02  
    6     2.666e-02  
    7     6.538e-03  
    8     1.833e-03  
    9     7.743e-04  
   10     1.133e-04  
   11     7.051e-05  
   12     3.334e-05  
   13     3.194e-05  
   14     1.522e-05  
   15     6.825e-06  
   16     2.837e-06  
   17     6.566e-07  Converged.
   ... Converged in 17 steps (norm: 6.56586e-07)
------------------------------------
  Starting TPA DIIS iterations ... 
------------------------------------ 
   It     Res. Norm  Remark
------------------------------------
                       Guess.
    1     1.253e+01  
    2     2.330e+01  
    3     3.264e+00  
    4     1.389e+00  
    5     3.988e-01  
    6     1.827e-01  
    7     5.231e-02  
    8     8.960e-03  
    9     3.724e-03  
   10     6.422e-04  
   11     2.211e-04  
   12     3.943e-05  
   13     1.588e-05  
   14     7.593e-06  
   15     3.504e-06  
   16     1.601e-06  
   17     5.935e-07  Converged.
   ... Converged in 17 steps (norm: 5.93491e-07)
------------------------------------
  Starting TPA DIIS iterations ... 
------------------------------------ 
   It     Res. Norm  Remark
------------------------------------
                       Guess.
    1     1.190e+01  
    2     2.211e+01  
    3     3.101e+00  
    4     1.344e+00  
    5     3.954e-01  
    6     1.802e-01  
    7     5.130e-02  
    8     8.728e-03  
    9     3.602e-03  
   10     6.314e-04  
   11     2.154e-04  
   12     4.098e-05  
   13     1.392e-05  
   14     8.287e-06  
   15     3.188e-06  
   16     2.473e-06  
   17     1.021e-06  
   18     5.676e-07  Converged.
   ... Converged in 18 steps (norm: 5.67629e-07)
------------------------------------
  Starting TPA DIIS iterations ... 
------------------------------------ 
   It     Res. Norm  Remark
------------------------------------
                       Guess.
    1     8.764e-01  
    2     8.377e-01  
    3     4.039e-01  
    4     3.878e-01  
    5     6.328e-02  
    6     2.973e-02  
    7     7.580e-03  
    8     1.887e-03  
    9     8.597e-04  
   10     1.338e-04  
   11     8.510e-05  
   12     4.200e-05  
   13     4.032e-05  
   14     1.890e-05  
   15     8.817e-06  
   16     3.579e-06  
   17     8.639e-07  Converged.
   ... Converged in 17 steps (norm: 8.63908e-07)
------------------------------------
  Two-photon absorbption ...  CPU 72.83 s  wall 18.48 s
  Transition density matrix of state singlet_A_1 printed to ASCII file 'State_singlet_A_1_Transition.txt'
  Transition density matrix of state singlet_A_2 printed to ASCII file 'State_singlet_A_2_Transition.txt'
  Transition density matrix of state singlet_A_3 printed to ASCII file 'State_singlet_A_3_Transition.txt'
  Transition density matrix of state singlet_A_4 printed to ASCII file 'State_singlet_A_4_Transition.txt'
  Transition density matrix of state singlet_A_5 printed to ASCII file 'State_singlet_A_5_Transition.txt'
  Transition density matrix of state singlet_A_6 printed to ASCII file 'State_singlet_A_6_Transition.txt'
  Transition density matrix of state singlet_A_7 printed to ASCII file 'State_singlet_A_7_Transition.txt'
  Transition density matrix of state singlet_A_8 printed to ASCII file 'State_singlet_A_8_Transition.txt'
  Transition density matrix of state singlet_A_9 printed to ASCII file 'State_singlet_A_9_Transition.txt'
  Transition density matrix of state singlet_A_10 printed to ASCII file 'State_singlet_A_10_Transition.txt'
  Transition properties ...  CPU 0.16 s  wall 0.38 s
  Difference density matrix of state singlet_A_1 printed to ASCII file 'State_singlet_A_1_Difference.txt'
  Total density matrix of state singlet_A_1 printed to ASCII file 'State_singlet_A_1_Total.txt'
  Difference density matrix of state singlet_A_2 printed to ASCII file 'State_singlet_A_2_Difference.txt'
  Total density matrix of state singlet_A_2 printed to ASCII file 'State_singlet_A_2_Total.txt'
  Difference density matrix of state singlet_A_3 printed to ASCII file 'State_singlet_A_3_Difference.txt'
  Total density matrix of state singlet_A_3 printed to ASCII file 'State_singlet_A_3_Total.txt'
  Difference density matrix of state singlet_A_4 printed to ASCII file 'State_singlet_A_4_Difference.txt'
  Total density matrix of state singlet_A_4 printed to ASCII file 'State_singlet_A_4_Total.txt'
  Difference density matrix of state singlet_A_5 printed to ASCII file 'State_singlet_A_5_Difference.txt'
  Total density matrix of state singlet_A_5 printed to ASCII file 'State_singlet_A_5_Total.txt'
  Difference density matrix of state singlet_A_6 printed to ASCII file 'State_singlet_A_6_Difference.txt'
  Total density matrix of state singlet_A_6 printed to ASCII file 'State_singlet_A_6_Total.txt'
  Difference density matrix of state singlet_A_7 printed to ASCII file 'State_singlet_A_7_Difference.txt'
  Total density matrix of state singlet_A_7 printed to ASCII file 'State_singlet_A_7_Total.txt'
  Difference density matrix of state singlet_A_8 printed to ASCII file 'State_singlet_A_8_Difference.txt'
  Total density matrix of state singlet_A_8 printed to ASCII file 'State_singlet_A_8_Total.txt'
  Difference density matrix of state singlet_A_9 printed to ASCII file 'State_singlet_A_9_Difference.txt'
  Total density matrix of state singlet_A_9 printed to ASCII file 'State_singlet_A_9_Total.txt'
  Difference density matrix of state singlet_A_10 printed to ASCII file 'State_singlet_A_10_Difference.txt'
  Total density matrix of state singlet_A_10 printed to ASCII file 'State_singlet_A_10_Total.txt'
  Properties ...  CPU 0.31 s  wall 0.72 s
  ISR TDMS ...  CPU 8.90 s  wall 3.18 s
  ISR transition properties ...  CPU 0.17 s  wall 0.08 s
  Sum-over-states TPA ...  CPU 0.00 s  wall 0.00 s

--------------------------------------------------------------------------------
                   State-averaged natural transition orbitals
--------------------------------------------------------------------------------
--------------------------------------------------------------------------------
  SA-NTO decomposition ...  CPU 0.01 s  wall 0.03 s

--------------------------------------------------------------------------------
                             Excited State Summary
--------------------------------------------------------------------------------
--------------------------------------------------------------------------------

  Excited state 1 (singlet, A)                                     [converged]
  ----------------------------------------------------------------------------
  Term symbol:  2 (1) A                                     R^2 =  7.69866e-14

  Total energy:                                            -77.9983109515 a.u.
  Excitation energy:                                               8.736643 eV

  Osc. strength:                                                      0.445426
  Trans. dip. moment [a.u.]:           [   1.046372,   -0.992988,   -0.009117]
  <i|r^2|0> [a.u.]:                    [   6.172993,   -0.256206,   -0.000851]
  Two-photon absorption cross-section (SoS) [a.u.]:                   0.003235
  Two-photon absorption matrix (SoS) [a.u.]:
                                       |    0.005001   -0.013793   -0.001856 |
                                       |   -0.013793   -0.010014   -0.001912 |
                                       |   -0.001856   -0.001912    0.015343 |
  Two-photon absorption cross-section [a.u.]:                         0.002510
  Two-photon absorption matrix [a.u.]:
                                       |    0.003861   -0.010068    0.000529 |
                                       |   -0.010068   -0.009876    0.001496 |
                                       |    0.000529    0.001496    0.016036 |

  Dip. moment [a.u.]:                  [  -0.000577,    0.001839,    0.000858]
  Total dipole [Debye]:                                               0.005363
  <r^2> [a.u.]:                        [ 176.117681,   35.548971,   11.859002]
  Total <r^2> [a.u.]:                                               223.525655

  V1^2 = 0.9715, V2^2 = 0.0285

  Important amplitudes:
      occ i     occ j     vir a      vir b          v   
    -----------------------------------------------------
     8 (A) A              9 (A) A                -0.6811
     6 (A) A             14 (A) A                -0.0624
     4 (A) A             10 (A) A                -0.0604
     7 (A) A             16 (A) A                 0.0569
     5 (A) A             13 (A) A                 0.0511
     6 (A) A             23 (A) A                -0.0485
     8 (A) A             20 (A) A                 0.0350
     6 (A) A             19 (A) A                -0.0310
     3 (A) A             12 (A) A                 0.0280
     5 (A) A             22 (A) A                 0.0214
     7 (A) A             11 (A) A                 0.0210
     4 (A) A             24 (A) A                -0.0187
     3 (A) A             26 (A) A                 0.0185
     8 (A) A   8 (A) B   17 (A) A   20 (A) B     -0.0184
     8 (A) A   8 (A) B    9 (A) A   28 (A) B     -0.0168
     6 (A) A             26 (A) A                 0.0164
     7 (A) A             21 (A) A                 0.0147
     3 (A) A             14 (A) A                -0.0139
     6 (A) A             12 (A) A                -0.0130
     3 (A) A   4 (A) B    9 (A) A    9 (A) B      0.0129
     3 (A) A             19 (A) A                -0.0119
     8 (A) A   8 (A) B   18 (A) A   19 (A) B      0.0113
     7 (A) A             32 (A) A                 0.0095
     7 (A) A             36 (A) A                -0.0086
     3 (A) A             23 (A) A                -0.0080
     8 (A) A   8 (A) B   25 (A) A   29 (A) B      0.0076
     6 (A) A             35 (A) A                -0.0073
     6 (A) A             40 (A) A                 0.0068
     3 (A) A   6 (A) B    9 (A) A   28 (A) B     -0.0065
     6 (A) A   8 (A) A   19 (A) A   28 (A) A      0.0061
     5 (A) A   7 (A) B    9 (A) A    9 (A) B     -0.0060
     7 (A) A   8 (A) B   13 (A) A   20 (A) B     -0.0059
     5 (A) A   8 (A) B   16 (A) A    9 (A) B      0.0059
     5 (A) A   8 (A) B   11 (A) A   20 (A) B     -0.0059
     5 (A) A   8 (A) B   11 (A) A    9 (A) B     -0.0058
     3 (A) A   5 (A) B    9 (A) A   25 (A) B      0.0058
     3 (A) A             40 (A) A                 0.0057
     7 (A) A   8 (A) B   22 (A) A   20 (A) B     -0.0057
     6 (A) A   8 (A) A    9 (A) A   18 (A) A      0.0057
     8 (A) A   8 (A) B   19 (A) A   30 (A) B      0.0056
    -----------------------------------------------------

  Density matrix analysis:
  ------------------------
  NOs
    Occupation of frontier NOs:
       0.9496   1.0216
    Number of electrons: 16.000000
    Number of unpaired electrons: n_u =  2.31281, n_u,nl =  2.03253
    NO participation ratio (PR_NO):  2.862087
  
  
  Mulliken Population Analysis
  Atom      Charge (e)              h+              e-           Del q
  --------------------------------------------------------------------
   1 H        0.058548        0.020290       -0.012550        0.007740
   2 C       -0.117553        0.490912       -0.506180       -0.015267
   3 H        0.057904        0.020127       -0.012586        0.007541
   4 C       -0.111988        0.490720       -0.506088       -0.015368
   5 H        0.054974        0.020105       -0.012602        0.007503
   6 H        0.058116        0.020372       -0.012521        0.007851
  --------------------------------------------------------------------
  Sum:       -0.000000        1.062527       -1.062527        0.000000
  
  Multipole moment analysis of the density matrix
    Molecular charge:                      -0.000000
    Number of electrons:                   16.000000
      Center of electronic charge [Ang]: [ -1.560557,  -0.066288,   0.001950]
    Total nuclear charge:                  16.000000
      Center of nuclear charge [Ang]:    [ -1.560576,  -0.066227,   0.001978]
    Dipole moment [D]:                     0.005363
      Cartesian components [D]:          [ -0.001465,   0.004675,   0.002181]
    RMS size of the density [Ang]:         1.213409
      Cartesian components [Ang]:        [  0.804385,   0.785987,   0.455576]
  
  Exciton analysis of the difference density matrix
    <r_h> [Ang]:                  [ -1.560201,  -0.066027,   0.001684]
    <r_e> [Ang]:                  [ -1.560212,  -0.065873,   0.001611]
    |<r_e - r_h>| [Ang]:            0.000170
    Hole size [Ang]:                1.285166
      Cartesian components [Ang]: [  0.728513,   0.712040,   0.783531]
    Electron size [Ang]:            1.463053
      Cartesian components [Ang]: [  0.854041,   0.830211,   0.849641]

  Transition density matrix analysis:
  -----------------------------------
  
  CT numbers (Mulliken)
    omega =     0.9536
    <Phe> =    -0.1608
  
  Exciton analysis of the transition density matrix
    Trans. dipole moment [D]:             1.833321
      Cartesian components [D]:         [  1.329806,  -1.261961,  -0.011587]
    <r_h> [Ang]:                        [ -1.560130,  -0.065880,   0.001757]
    <r_e> [Ang]:                        [ -1.560229,  -0.065919,   0.001559]
    |<r_e - r_h>| [Ang]:                  0.000224
    Hole size [Ang]:                      1.214149
      Cartesian components [Ang]:       [  0.649645,   0.636314,   0.804503]
    Electron size [Ang]:                  1.485890
      Cartesian components [Ang]:       [  0.864472,   0.839115,   0.869738]
    RMS electron-hole separation [Ang]:   1.936723
      Cartesian components [Ang]:       [  1.106780,   1.075107,   1.170504]
    Covariance(r_h, r_e) [Ang^2]:        -0.034434
    Correlation coefficient:             -0.019087
    Center-of-mass size [Ang]:            0.950415
      Cartesian components [Ang]:       [  0.527669,   0.515306,   0.599428]

  Decomposition into state-averaged NTOs
    H- 0 -> L+ 0: -0.6699 ( 89.8%)
    H- 2 -> L+ 5:  0.0837 (  1.4%)
                   omega =  95.4%
  ----------------------------------------------------------------------------


  Excited state 2 (singlet, A)                                     [converged]
  ----------------------------------------------------------------------------
  Term symbol:  3 (1) A                                     R^2 =  1.05703e-13

  Total energy:                                            -77.9860980549 a.u.
  Excitation energy:                                               9.068973 eV

  Osc. strength:                                                      0.000069
  Trans. dip. moment [a.u.]:           [   0.004499,   -0.006502,    0.015742]
  <i|r^2|0> [a.u.]:                    [  -0.038961,   -0.086603,    0.150301]
  Two-photon absorption cross-section (SoS) [a.u.]:                   5.001646
  Two-photon absorption matrix (SoS) [a.u.]:
                                       |   -0.056767   -0.059788    0.567358 |
                                       |   -0.059788   -0.062636    0.537723 |
                                       |    0.567358    0.537723    0.118459 |
  Two-photon absorption cross-section [a.u.]:                         0.063968
  Two-photon absorption matrix [a.u.]:
                                       |    0.001341    0.006541   -0.067032 |
                                       |    0.006541    0.011528   -0.057479 |
                                       |   -0.067032   -0.057479   -0.013313 |

  Dip. moment [a.u.]:                  [   0.020323,    0.014237,    0.003200]
  Total dipole [Debye]:                                               0.063592
  <r^2> [a.u.]:                        [ 174.652824,   33.908828,   13.161747]
  Total <r^2> [a.u.]:                                               221.723398

  V1^2 = 0.9542, V2^2 = 0.0458

  Important amplitudes:
      occ i     occ j     vir a      vir b          v   
    -----------------------------------------------------
     7 (A) A              9 (A) A                -0.6688
     8 (A) A             11 (A) A                 0.1471
     7 (A) A             20 (A) A                 0.0759
     5 (A) A   8 (A) B    9 (A) A    9 (A) B     -0.0316
     8 (A) A             10 (A) A                -0.0295
     8 (A) A             16 (A) A                -0.0272
     8 (A) A             21 (A) A                 0.0175
     5 (A) A             28 (A) A                 0.0151
     4 (A) A   7 (A) B    9 (A) A   19 (A) B      0.0135
     5 (A) A   7 (A) B    9 (A) A   16 (A) B     -0.0134
     7 (A) A   8 (A) B   20 (A) A   17 (A) B     -0.0105
     8 (A) A             12 (A) A                 0.0105
     7 (A) A   8 (A) A    9 (A) A   28 (A) A      0.0098
     5 (A) A   8 (A) B    9 (A) A   20 (A) B      0.0096
     4 (A) A   6 (A) B    9 (A) A   16 (A) B     -0.0091
     5 (A) A   6 (A) A    9 (A) A   23 (A) A      0.0091
     5 (A) A   6 (A) A    9 (A) A   14 (A) A      0.0089
     5 (A) A   6 (A) B    9 (A) A   19 (A) B      0.0087
     8 (A) A   7 (A) B    9 (A) A   28 (A) B     -0.0085
     4 (A) A   5 (A) A    9 (A) A   10 (A) A     -0.0084
     6 (A) A   7 (A) B    9 (A) A   18 (A) B      0.0083
     5 (A) A   6 (A) B    9 (A) A   23 (A) B      0.0080
     3 (A) A   7 (A) B    9 (A) A   18 (A) B     -0.0080
     5 (A) A   7 (A) A    9 (A) A   16 (A) A     -0.0079
     4 (A) A   8 (A) B    9 (A) A   25 (A) B     -0.0077
     7 (A) A   8 (A) B   17 (A) A   20 (A) B     -0.0074
     4 (A) A   7 (A) B   19 (A) A    9 (A) B      0.0074
     5 (A) A   5 (A) B    9 (A) A   13 (A) B     -0.0072
     7 (A) A   8 (A) B   19 (A) A   18 (A) B      0.0072
     5 (A) A   8 (A) A    9 (A) A   20 (A) A      0.0069
     4 (A) A   5 (A) B    9 (A) A   18 (A) B      0.0067
     7 (A) A   7 (A) B   20 (A) A   22 (A) B     -0.0065
     7 (A) A   8 (A) B   17 (A) A    9 (A) B      0.0065
     5 (A) A   6 (A) B    9 (A) A   14 (A) B      0.0063
     4 (A) A   7 (A) A    9 (A) A   19 (A) A      0.0061
     4 (A) A   5 (A) B   10 (A) A    9 (A) B      0.0061
     5 (A) A   7 (A) B   11 (A) A   20 (A) B     -0.0060
     4 (A) A   7 (A) B    9 (A) A   14 (A) B     -0.0060
     6 (A) A   7 (A) A   19 (A) A   28 (A) A      0.0057
     4 (A) A   8 (A) A    9 (A) A   25 (A) A     -0.0057
    -----------------------------------------------------

  Density matrix analysis:
  ------------------------
  NOs
    Occupation of frontier NOs:
       0.9568   1.0550
    Number of electrons: 16.000000
    Number of unpaired electrons: n_u =  2.35480, n_u,nl =  2.06347
    NO participation ratio (PR_NO):  3.033215
  
  
  Mulliken Population Analysis
  Atom      Charge (e)              h+              e-           Del q
  --------------------------------------------------------------------
   1 H        0.153445        0.122574       -0.019937        0.102637
   2 C       -0.302132        0.272787       -0.472633       -0.199846
   3 H        0.149238        0.128373       -0.029499        0.098875
   4 C       -0.297334        0.270956       -0.471670       -0.200714
   5 H        0.151985        0.123836       -0.019321        0.104515
   6 H        0.144798        0.124602       -0.030068        0.094534
  --------------------------------------------------------------------
  Sum:       -0.000000        1.043128       -1.043128        0.000000
  
  Multipole moment analysis of the density matrix
    Molecular charge:                      -0.000000
    Number of electrons:                   16.000000
      Center of electronic charge [Ang]: [ -1.561248,  -0.066698,   0.001872]
    Total nuclear charge:                  16.000000
      Center of nuclear charge [Ang]:    [ -1.560576,  -0.066227,   0.001978]
    Dipole moment [D]:                     0.063592
      Cartesian components [D]:          [  0.051656,   0.036186,   0.008134]
    RMS size of the density [Ang]:         1.199419
      Cartesian components [Ang]:        [  0.786918,   0.767474,   0.479948]
  
  Exciton analysis of the difference density matrix
    <r_h> [Ang]:                  [ -1.562648,  -0.074301,   0.001465]
    <r_e> [Ang]:                  [ -1.573262,  -0.080434,   0.000203]
    |<r_e - r_h>| [Ang]:            0.012323
    Hole size [Ang]:                1.484783
      Cartesian components [Ang]: [  1.002599,   0.996128,   0.455086]
    Electron size [Ang]:            1.478009
      Cartesian components [Ang]: [  0.883778,   0.858278,   0.816581]

  Transition density matrix analysis:
  -----------------------------------
  
  CT numbers (Mulliken)
    omega =     0.9218
    <Phe> =    -0.0122
  
  Exciton analysis of the transition density matrix
    Trans. dipole moment [D]:             0.022387
      Cartesian components [D]:         [  0.005717,  -0.008263,   0.020006]
    <r_h> [Ang]:                        [ -1.562272,  -0.074614,   0.001546]
    <r_e> [Ang]:                        [ -1.574357,  -0.080879,   0.000034]
    |<r_e - r_h>| [Ang]:                  0.013696
    Hole size [Ang]:                      1.512643
      Cartesian components [Ang]:       [  1.025130,   1.019687,   0.444340]
    Electron size [Ang]:                  1.475443
      Cartesian components [Ang]:       [  0.874747,   0.848056,   0.832196]
    RMS electron-hole separation [Ang]:   2.093387
      Cartesian components [Ang]:       [  1.331796,   1.311488,   0.942650]
    Covariance(r_h, r_e) [Ang^2]:         0.041470
    Correlation coefficient:              0.018581
    Center-of-mass size [Ang]:            1.066297
      Cartesian components [Ang]:       [  0.681655,   0.670440,   0.472067]

  Decomposition into state-averaged NTOs
    H- 1 -> L+ 0: -0.6611 ( 87.4%)
    H- 0 -> L+ 2: -0.1477 (  4.4%)
                   omega =  92.2%
  ----------------------------------------------------------------------------


  Excited state 3 (singlet, A)                                     [converged]
  ----------------------------------------------------------------------------
  Term symbol:  4 (1) A                                     R^2 =  7.00519e-14

  Total energy:                                            -77.9820894371 a.u.
  Excitation energy:                                               9.178053 eV

  Osc. strength:                                                      0.025474
  Trans. dip. moment [a.u.]:           [   0.015506,    0.020359,   -0.335612]
  <i|r^2|0> [a.u.]:                    [   0.091096,   -0.001389,    0.008666]
  Two-photon absorption cross-section (SoS) [a.u.]:                   0.005059
  Two-photon absorption matrix (SoS) [a.u.]:
                                       |    0.020770    0.002150   -0.004884 |
                                       |    0.002150   -0.017341   -0.014805 |
                                       |   -0.004884   -0.014805    0.003584 |
  Two-photon absorption cross-section [a.u.]:                         0.009227
  Two-photon absorption matrix [a.u.]:
                                       |    0.019031    0.002261   -0.023668 |
                                       |    0.002261   -0.009575   -0.018500 |
                                       |   -0.023668   -0.018500   -0.000859 |

  Dip. moment [a.u.]:                  [  -0.001643,    0.061067,    0.002743]
  Total dipole [Debye]:                                               0.155430
  <r^2> [a.u.]:                        [ 180.853594,   40.489817,   11.028931]
  Total <r^2> [a.u.]:                                               232.372343

  V1^2 = 0.9588, V2^2 = 0.0412

  Important amplitudes:
      occ i     occ j     vir a      vir b          v   
    -----------------------------------------------------
     8 (A) A             10 (A) A                 0.6885
     8 (A) A             24 (A) A                 0.0506
     8 (A) A             18 (A) A                -0.0309
     7 (A) A              9 (A) A                -0.0302
     4 (A) A              9 (A) A                 0.0236
     8 (A) A   8 (A) B    9 (A) A   12 (A) B     -0.0218
     8 (A) A   8 (A) B   10 (A) A   17 (A) B      0.0173
     8 (A) A             15 (A) A                -0.0170
     5 (A) A   8 (A) B   11 (A) A   10 (A) B      0.0164
     7 (A) A   8 (A) B   13 (A) A   10 (A) B      0.0141
     4 (A) A   8 (A) B   12 (A) A   10 (A) B     -0.0110
     6 (A) A   8 (A) A   10 (A) A   15 (A) A      0.0110
     7 (A) A   8 (A) B   22 (A) A   10 (A) B      0.0108
     6 (A) A   8 (A) B   15 (A) A   10 (A) B     -0.0107
     4 (A) A   8 (A) A   10 (A) A   12 (A) A      0.0105
     7 (A) A   8 (A) A   10 (A) A   22 (A) A     -0.0099
     7 (A) A   8 (A) A   10 (A) A   13 (A) A     -0.0097
     5 (A) A   8 (A) B   21 (A) A   10 (A) B      0.0094
     5 (A) A   8 (A) A   10 (A) A   11 (A) A     -0.0093
     6 (A) A   8 (A) A   10 (A) A   18 (A) A     -0.0088
     6 (A) A   8 (A) B   10 (A) A   10 (A) B     -0.0086
     7 (A) A   8 (A) A   12 (A) A   16 (A) A      0.0081
     5 (A) A   8 (A) A   10 (A) A   21 (A) A     -0.0080
     3 (A) A   4 (A) B   10 (A) A    9 (A) B     -0.0079
     4 (A) A   8 (A) B   19 (A) A   10 (A) B      0.0075
     8 (A) A   8 (A) B    9 (A) A   23 (A) B     -0.0075
     8 (A) A   8 (A) B   10 (A) A   28 (A) B      0.0073
     3 (A) A   8 (A) B   10 (A) A   10 (A) B      0.0072
     3 (A) A   8 (A) A   10 (A) A   24 (A) A     -0.0071
     5 (A) A   8 (A) B   10 (A) A   11 (A) B      0.0071
     7 (A) A   8 (A) B   16 (A) A   12 (A) B     -0.0070
     3 (A) A   8 (A) B   10 (A) A   18 (A) B     -0.0069
     8 (A) A   8 (A) B    9 (A) A   19 (A) B      0.0067
     6 (A) A   8 (A) B   18 (A) A   10 (A) B      0.0067
     3 (A) A   6 (A) B   10 (A) A   28 (A) B      0.0062
     6 (A) A             28 (A) A                -0.0057
     7 (A) A   8 (A) B   12 (A) A   11 (A) B      0.0056
     3 (A) A   5 (A) B   10 (A) A   25 (A) B     -0.0056
     3 (A) A   8 (A) A   10 (A) A   18 (A) A     -0.0056
     5 (A) A   8 (A) A   10 (A) A   16 (A) A      0.0055
    -----------------------------------------------------

  Density matrix analysis:
  ------------------------
  NOs
    Occupation of frontier NOs:
       0.9832   0.9833
    Number of electrons: 16.000000
    Number of unpaired electrons: n_u =  2.28850, n_u,nl =  2.02514
    NO participation ratio (PR_NO):  2.699075
  
  
  Mulliken Population Analysis
  Atom      Charge (e)              h+              e-           Del q
  --------------------------------------------------------------------
   1 H       -0.163324        0.054399       -0.268530       -0.214131
   2 C        0.328433        0.539109       -0.108390        0.430719
   3 H       -0.173670        0.053316       -0.277349       -0.224033
   4 C        0.330674        0.533561       -0.106267        0.427295
   5 H       -0.158507        0.054222       -0.260199       -0.205978
   6 H       -0.163607        0.053795       -0.267666       -0.213871
  --------------------------------------------------------------------
  Sum:       -0.000000        1.288401       -1.288401        0.000000
  
  Multipole moment analysis of the density matrix
    Molecular charge:                      -0.000000
    Number of electrons:                   16.000000
      Center of electronic charge [Ang]: [ -1.560522,  -0.068247,   0.001887]
    Total nuclear charge:                  16.000000
      Center of nuclear charge [Ang]:    [ -1.560576,  -0.066227,   0.001978]
    Dipole moment [D]:                     0.155430
      Cartesian components [D]:          [ -0.004177,   0.155218,   0.006973]
    RMS size of the density [Ang]:         1.275555
      Cartesian components [Ang]:        [  0.854419,   0.839039,   0.439343]
  
  Exciton analysis of the difference density matrix
    <r_h> [Ang]:                  [ -1.558207,  -0.067925,   0.001800]
    <r_e> [Ang]:                  [ -1.557779,  -0.092124,   0.000966]
    |<r_e - r_h>| [Ang]:            0.024218
    Hole size [Ang]:                1.410369
      Cartesian components [Ang]: [  0.834809,   0.819255,   0.788071]
    Electron size [Ang]:            2.076674
      Cartesian components [Ang]: [  1.375292,   1.375303,   0.727795]

  Transition density matrix analysis:
  -----------------------------------
  
  CT numbers (Mulliken)
    omega =     0.9261
    <Phe> =    -0.0109
  
  Exciton analysis of the transition density matrix
    Trans. dipole moment [D]:             0.427759
      Cartesian components [D]:         [  0.019706,   0.025874,  -0.426520]
    <r_h> [Ang]:                        [ -1.558353,  -0.064593,   0.001825]
    <r_e> [Ang]:                        [ -1.556674,  -0.100481,   0.000673]
    |<r_e - r_h>| [Ang]:                  0.035946
    Hole size [Ang]:                      1.213680
      Cartesian components [Ang]:       [  0.637601,   0.624508,   0.822480]
    Electron size [Ang]:                  2.294840
      Cartesian components [Ang]:       [  1.518715,   1.520732,   0.804467]
    RMS electron-hole separation [Ang]:   2.586360
      Cartesian components [Ang]:       [  1.639647,   1.637366,   1.148845]
    Covariance(r_h, r_e) [Ang^2]:         0.025672
    Correlation coefficient:              0.009217
    Center-of-mass size [Ang]:            1.302944
      Cartesian components [Ang]:       [  0.827288,   0.825468,   0.576072]

  Decomposition into state-averaged NTOs
    H- 0 -> L+ 1: -0.6790 ( 92.2%)
                   omega =  92.6%
  ----------------------------------------------------------------------------


  Excited state 4 (singlet, A)                                     [converged]
  ----------------------------------------------------------------------------
  Term symbol:  5 (1) A                                     R^2 =  1.88607e-13

  Total energy:                                            -77.9574423647 a.u.
  Excitation energy:                                               9.848734 eV

  Osc. strength:                                                      0.000027
  Trans. dip. moment [a.u.]:           [  -0.001574,    0.002596,   -0.010092]
  <i|r^2|0> [a.u.]:                    [  -0.028912,   -0.016470,    0.036821]
  Two-photon absorption cross-section (SoS) [a.u.]:                 151.965252
  Two-photon absorption matrix (SoS) [a.u.]:
                                       |   -0.303993   -0.328736    3.128788 |
                                       |   -0.328736   -0.350454    2.962570 |
                                       |    3.128788    2.962570    0.653970 |
  Two-photon absorption cross-section [a.u.]:                        93.906526
  Two-photon absorption matrix [a.u.]:
                                       |   -0.243107   -0.258830    2.467852 |
                                       |   -0.258830   -0.271251    2.320063 |
                                       |    2.467852    2.320063    0.513811 |

  Dip. moment [a.u.]:                  [  -0.072159,   -0.042063,   -0.006778]
  Total dipole [Debye]:                                               0.212993
  <r^2> [a.u.]:                        [ 181.315959,   40.009919,   10.760696]
  Total <r^2> [a.u.]:                                               232.086574

  V1^2 = 0.9635, V2^2 = 0.0365

  Important amplitudes:
      occ i     occ j     vir a      vir b          v   
    -----------------------------------------------------
     8 (A) A             11 (A) A                 0.6694
     7 (A) A              9 (A) A                 0.1491
     8 (A) A             21 (A) A                 0.0780
     8 (A) A             16 (A) A                -0.0641
     8 (A) A             12 (A) A                 0.0270
     8 (A) A   8 (A) B    9 (A) A   13 (A) B     -0.0167
     5 (A) A   8 (A) B   11 (A) A   11 (A) B      0.0155
     6 (A) A              9 (A) A                -0.0147
     8 (A) A   8 (A) B   11 (A) A   17 (A) B      0.0140
     7 (A) A             20 (A) A                -0.0136
     7 (A) A   8 (A) B   13 (A) A   11 (A) B      0.0128
     5 (A) A   8 (A) A   11 (A) A   21 (A) A     -0.0110
     4 (A) A   8 (A) B   12 (A) A   11 (A) B     -0.0109
     8 (A) A   8 (A) B    9 (A) A   22 (A) B     -0.0107
     7 (A) A   8 (A) A   11 (A) A   22 (A) A     -0.0096
     6 (A) A   8 (A) B   15 (A) A   11 (A) B     -0.0090
     6 (A) A   8 (A) B   10 (A) A   11 (A) B     -0.0089
     7 (A) A   8 (A) B   22 (A) A   11 (A) B      0.0089
     3 (A) A   4 (A) B   11 (A) A    9 (A) B     -0.0083
     3 (A) A   8 (A) B   11 (A) A   18 (A) B     -0.0081
     6 (A) A   8 (A) A   11 (A) A   15 (A) A      0.0081
     7 (A) A   8 (A) A   13 (A) A   16 (A) A      0.0078
     7 (A) A   8 (A) A   11 (A) A   13 (A) A     -0.0077
     5 (A) A   8 (A) B   21 (A) A   11 (A) B      0.0071
     8 (A) A             10 (A) A                 0.0070
     4 (A) A   8 (A) B   19 (A) A   11 (A) B      0.0070
     5 (A) A   8 (A) B    9 (A) A    9 (A) B      0.0067
     4 (A) A   8 (A) A   11 (A) A   12 (A) A      0.0063
     6 (A) A   8 (A) A   11 (A) A   18 (A) A     -0.0062
     3 (A) A   6 (A) B   11 (A) A   28 (A) B      0.0060
     6 (A) A   8 (A) B   18 (A) A   11 (A) B      0.0060
     7 (A) A   8 (A) B   16 (A) A   13 (A) B     -0.0057
     3 (A) A   8 (A) A   11 (A) A   18 (A) A     -0.0056
     5 (A) A   8 (A) B   10 (A) A   10 (A) B      0.0056
     3 (A) A   8 (A) B   11 (A) A   30 (A) B     -0.0055
     3 (A) A   5 (A) B   11 (A) A   25 (A) B     -0.0054
     6 (A) A   8 (A) B   11 (A) A   10 (A) B     -0.0054
     7 (A) A   8 (A) B   12 (A) A   10 (A) B      0.0053
     8 (A) A   8 (A) B   20 (A) A   22 (A) B      0.0053
     3 (A) A   8 (A) A   11 (A) A   24 (A) A     -0.0053
    -----------------------------------------------------

  Density matrix analysis:
  ------------------------
  NOs
    Occupation of frontier NOs:
       0.9411   1.0274
    Number of electrons: 16.000000
    Number of unpaired electrons: n_u =  2.31856, n_u,nl =  2.04874
    NO participation ratio (PR_NO):  2.910890
  
  
  Mulliken Population Analysis
  Atom      Charge (e)              h+              e-           Del q
  --------------------------------------------------------------------
   1 H       -0.174263        0.045445       -0.270516       -0.225071
   2 C        0.276092        0.498710       -0.120333        0.378377
   3 H       -0.106603        0.047381       -0.204347       -0.156966
   4 C        0.279705        0.496138       -0.119813        0.376325
   5 H       -0.126834        0.047553       -0.221857       -0.174304
   6 H       -0.148097        0.045341       -0.243702       -0.198361
  --------------------------------------------------------------------
  Sum:       -0.000000        1.180568       -1.180568        0.000000
  
  Multipole moment analysis of the density matrix
    Molecular charge:                      -0.000000
    Number of electrons:                   16.000000
      Center of electronic charge [Ang]: [ -1.558190,  -0.064836,   0.002202]
    Total nuclear charge:                  16.000000
      Center of nuclear charge [Ang]:    [ -1.560576,  -0.066227,   0.001978]
    Dipole moment [D]:                     0.212993
      Cartesian components [D]:          [ -0.183409,  -0.106912,  -0.017228]
    RMS size of the density [Ang]:         1.276623
      Cartesian components [Ang]:        [  0.863364,   0.834291,   0.433966]
  
  Exciton analysis of the difference density matrix
    <r_h> [Ang]:                  [ -1.557733,  -0.065528,   0.001937]
    <r_e> [Ang]:                  [ -1.525658,  -0.045711,   0.005294]
    |<r_e - r_h>| [Ang]:            0.037852
    Hole size [Ang]:                1.394836
      Cartesian components [Ang]: [  0.818947,   0.806085,   0.790646]
    Electron size [Ang]:            2.125391
      Cartesian components [Ang]: [  1.476963,   1.368983,   0.679524]

  Transition density matrix analysis:
  -----------------------------------
  
  CT numbers (Mulliken)
    omega =     0.9299
    <Phe> =    -0.0133
  
  Exciton analysis of the transition density matrix
    Trans. dipole moment [D]:             0.013393
      Cartesian components [D]:         [ -0.002001,   0.003300,  -0.012825]
    <r_h> [Ang]:                        [ -1.560163,  -0.066206,   0.001669]
    <r_e> [Ang]:                        [ -1.518980,  -0.041949,   0.005924]
    |<r_e - r_h>| [Ang]:                  0.047985
    Hole size [Ang]:                      1.227686
      Cartesian components [Ang]:       [  0.655909,   0.651550,   0.807762]
    Electron size [Ang]:                  2.264207
      Cartesian components [Ang]:       [  1.575815,   1.456700,   0.722126]
    RMS electron-hole separation [Ang]:   2.565432
      Cartesian components [Ang]:       [  1.698656,   1.588420,   1.083019]
    Covariance(r_h, r_e) [Ang^2]:         0.027354
    Correlation coefficient:              0.009841
    Center-of-mass size [Ang]:            1.293112
      Cartesian components [Ang]:       [  0.857771,   0.801638,   0.541982]

  Decomposition into state-averaged NTOs
    H- 0 -> L+ 2: -0.6643 ( 88.2%)
    H- 1 -> L+ 0:  0.1471 (  4.3%)
                   omega =  93.0%
  ----------------------------------------------------------------------------


  Excited state 5 (singlet, A)                                     [converged]
  ----------------------------------------------------------------------------
  Term symbol:  6 (1) A                                     R^2 =  1.41726e-13

  Total energy:                                            -77.9437693593 a.u.
  Excitation energy:                                              10.220795 eV

  Osc. strength:                                                      0.000003
  Trans. dip. moment [a.u.]:           [  -0.000427,   -0.000536,    0.003621]
  <i|r^2|0> [a.u.]:                    [  -0.090030,    0.106058,   -0.019005]
  Two-photon absorption cross-section (SoS) [a.u.]:                 172.929271
  Two-photon absorption matrix (SoS) [a.u.]:
                                       |   -0.305373   -0.026329    3.171854 |
                                       |   -0.026329    0.399037   -3.379833 |
                                       |    3.171854   -3.379833   -0.102732 |
  Two-photon absorption cross-section [a.u.]:                        75.889284
  Two-photon absorption matrix [a.u.]:
                                       |   -0.202508   -0.016545    2.075021 |
[...]
    16   -1.503992232971e-03
    17   -1.766922557758e-03
    18   -3.336382696679e-04
    19   -3.475814034983e-03
    20    1.173103616693e-02
    21    9.500649967073e-01
    22   -1.506784469936e-04
    23    1.413302856547e-02
    24    8.305839081135e-04
    25    6.949811748887e-02
    26   -5.128924927400e-02
    27   -1.396853175874e+00
    28    9.893082178067e-02
    29   -8.986125353994e-02
    30   -9.169976634900e-04
    31    3.863095889813e-01
    32   -3.558628649579e-01
    33   -3.925177611590e-03
    34    1.573455211072e-02
    35   -1.461930982577e-03
    36   -1.827778662758e-03
    37    1.248668287838e-04
    38   -3.054334234556e-03
    39    8.719115762186e-03
    40    9.232374039181e-01
    41    2.425061892424e-04
    42   -1.395077323754e-02
    43   -8.406525144894e-04
    44    9.680353904112e-03
    45    9.410798048367e-01
    46    1.414539106723e-02
    47    4.385780708346e-04
    48    6.885577523140e-04
Sym=X
Ene= 0.233300
Spin=Alpha
Occup=0
     1    2.644332150914e-02
     2    1.299980043511e+00
     3   -1.539188683177e-02
     4   -4.312903315185e-03
     5   -9.748021302197e-04
     6    8.428807762853e-03
     7   -8.572866248407e-03
     8   -1.447955092436e-01
     9   -1.584846573472e-01
    10   -1.549603908467e-01
    11   -1.659027952757e-02
    12   -5.729771320038e-01
    13   -5.431373711923e-01
    14   -5.886978303917e-02
    15    1.893803803832e-03
    16   -2.368142768681e-04
    17   -2.139969425392e-04
    18   -5.747008626733e-04
    19   -1.129300102409e-03
    20   -2.331827679735e-02
    21   -1.092814084496e+00
    22   -2.007678334310e-03
    23   -1.260626873251e-02
    24   -8.406817429355e-04
    25   -7.161391492841e-03
    26    7.753198429619e-03
    27    1.066035079053e-01
    28   -1.555460082997e-01
    29   -1.544958289495e-01
    30   -1.673874067784e-02
    31   -5.573449974599e-01
    32   -5.438235509022e-01
    33   -5.950797522713e-02
    34   -1.269034251587e-03
    35    1.523121489508e-04
    36    1.121323953805e-04
    37    4.075804017604e-04
    38    7.587397736660e-04
    39    2.278192069252e-02
    40    1.111542450081e+00
    41   -2.078019529024e-03
    42   -1.312706492761e-02
    43   -8.945896115958e-04
    44   -2.744852807293e-02
    45   -1.271459078807e+00
    46   -1.490656132211e-02
    47   -4.132768802224e-03
    48   -9.564877303272e-04
Sym=X
Ene= 0.239861
Spin=Alpha
Occup=0
     1   -1.521112030345e-02
     2   -9.699990631254e-01
     3    1.551932161680e-02
     4    8.900489268026e-03
     5    1.274380335447e-03
     6   -8.556506303121e-02
     7    7.854632763550e-02
     8    1.579931330998e+00
     9    4.351870943609e-02
    10   -6.951215377825e-02
    11   -1.899294093127e-03
    12    1.728284198935e-01
    13   -2.658906082994e-01
    14   -6.802835817235e-03
    15   -2.240126883247e-02
    16    2.586621527354e-03
    17    2.959746757228e-03
    18   -9.103121633076e-04
    19    1.273081208402e-02
    20   -1.744741117602e-02
    21   -1.185101313321e+00
    22   -8.632815876430e-03
    23   -1.856015871663e-02
    24   -1.501876581377e-03
    25    8.651185305800e-02
    26   -7.894632668906e-02
    27   -1.615290056066e+00
    28    4.594810695246e-02
    29   -6.896029997966e-02
    30   -2.272588078543e-03
    31    1.828682762438e-01
    32   -2.723357674461e-01
    33   -8.938115674284e-03
    34    2.308964897124e-02
    35   -2.620024532508e-03
    36   -3.105722316265e-03
    37    9.341316099330e-04
    38   -1.289188075172e-02
    39    1.672747956610e-02
    40    1.210871737942e+00
    41   -8.773349247623e-03
    42   -1.923180872749e-02
    43   -1.591468369993e-03
    44    1.354297501711e-02
    45    9.878173722960e-01
    46    1.583904430817e-02
    47    9.203043018819e-03
    48    1.280097772820e-03
Sym=X
Ene= 0.303321
Spin=Alpha
Occup=0
     1    2.004267138363e-02
     2   -1.691362860472e+00
     3    2.287490071014e-02
     4   -2.307233985329e-04
     5    1.077700721667e-03
     6    1.191466479112e-04
     7   -4.978195177651e-04
     8    4.476298475158e-03
     9    1.336246801566e-01
    10    1.388595111201e-01
    11    1.450626474927e-02
    12    1.141663466338e+00
    13    1.194181565747e+00
    14    1.249708909273e-01
    15    9.617407244374e-05
    16    1.640267661023e-03
    17   -1.822248871207e-03
    18    3.226399022790e-02
    19    1.589349867234e-03
    20   -1.934938010115e-02
    21    1.685571428519e+00
    22   -1.440234586539e-03
    23    2.271578661340e-02
    24    1.263319690239e-03
    25    1.745727822237e-04
    26   -2.450642526493e-04
    27   -1.453087273400e-02
    28   -1.348736165570e-01
    29   -1.398560726929e-01
    30   -1.483986246378e-02
    31   -1.145665877565e+00
    32   -1.201739324664e+00
    33   -1.263460897722e-01
    34    4.330845874707e-04
    35    1.536521285552e-03
    36   -1.992708865068e-03
    37    3.260570644593e-02
    38    1.320312170865e-03
    39   -2.074796949289e-02
    40    1.716966186919e+00
    41    1.594434231296e-03
    42   -2.289568461898e-02
    43   -1.308114581243e-03
    44    1.968630975991e-02
    45   -1.702130193048e+00
    46   -2.292827153148e-02
    47    5.367741148333e-04
    48   -1.051889104345e-03
Sym=X
Ene= 0.462135
Spin=Alpha
Occup=0
     1   -1.154010924720e-01
     2   -7.179558723485e-01
     3   -1.562890684223e-02
     4   -1.026579839401e-02
     5   -1.337752855685e-03
     6    6.078565602186e-02
     7    1.692264189523e-02
     8   -3.591018685285e+00
     9    1.035687990723e-01
    10   -9.968071503743e-02
    11   -1.029606363583e-03
    12    2.427402982434e+00
    13   -2.299654101080e+00
    14   -2.062386969883e-02
    15    5.361146136529e-02
    16   -3.328762428529e-03
    17   -4.649010834812e-03
    18   -6.543507470477e-04
    19    1.803843846202e-02
    20   -1.207817450301e-01
    21   -7.012854001666e-01
    22    8.674037474117e-03
    23    1.643180388721e-02
    24    1.381842794099e-03
    25   -6.066513761978e-02
    26   -1.628151309208e-02
    27    3.578929513413e+00
    28    1.045427077139e-01
    29   -1.001490911252e-01
    30   -1.314206683804e-03
    31    2.418833222720e+00
    32   -2.308109758235e+00
    33   -2.292653091614e-02
    34   -5.256919431821e-02
    35    3.324898056816e-03
    36    4.535378418521e-03
    37    1.036533656260e-03
    38   -1.857747323659e-02
    39    1.140977656028e-01
    40    7.273655065220e-01
    41    8.434107607458e-03
    42    1.632733186562e-02
    43    1.376797695505e-03
    44    1.111453852922e-01
    45    7.128493418235e-01
    46   -1.561323509146e-02
    47   -9.945796307069e-03
    48   -1.353802623704e-03
Sym=X
Ene= 0.577325
Spin=Alpha
Occup=0
     1   -2.515586012871e-01
     2   -3.955661785329e-02
     3    1.783175239010e-02
     4   -2.547310836895e-02
     5   -6.635395719252e-04
     6    4.565996340369e-03
     7    1.564554732336e-01
     8    4.571812070599e-01
     9   -2.981515124899e-01
    10    2.870130591230e-01
    11    2.909233190405e-03
    12    7.251176750533e-01
    13   -7.021571701523e-01
    14   -7.497344751629e-03
    15    6.278051934639e-03
    16   -3.973718193347e-03
    17   -3.723641283079e-03
    18    3.320329824160e-03
    19   -6.028233609134e-02
    20   -2.523081114231e-01
    21   -3.322239511223e-02
    22    2.687389988896e-02
    23   -1.676542980239e-02
    24    2.810332493358e-04
    25    5.255285698212e-03
    26    1.562667877457e-01
    27    4.269553969427e-01
    28    2.961953968350e-01
    29   -2.861455681925e-01
    30   -2.908456091898e-03
    31   -7.487352593702e-01
    32    7.380748028189e-01
    33    8.837197026956e-03
    34    5.907199816672e-03
    35   -3.884894350834e-03
    36   -3.754610328334e-03
    37    4.425772530824e-03
    38   -6.015655676984e-02
    39   -2.566402289811e-01
    40   -5.468339329333e-02
    41   -2.596452994290e-02
    42    1.549526640409e-02
    43   -2.898449756061e-04
    44   -2.454367075478e-01
    45   -5.264888014778e-02
    46   -1.858598305355e-02
    47    2.609109209540e-02
    48    6.977781614179e-04
Sym=X
Ene= 0.615774
Spin=Alpha
Occup=0
     1   -5.197414411274e-01
     2    2.050498771647e-01
     3   -6.166637525750e-02
     4    3.815760150391e-02
     5   -6.892830800461e-04
     6   -6.398175967958e-04
     7    8.957426511577e-04
     8   -2.134594029079e-02
     9   -3.904403113206e-02
    10   -3.916543624286e-02
    11   -4.241983716303e-03
    12    2.943762250621e-01
    13    2.846271049960e-01
    14    3.048367601795e-02
    15    1.492249417496e-03
    16   -7.548395276966e-03
    17    8.359940013625e-03
    18   -1.485020938238e-01
    19   -5.460574585630e-03
    20    5.125164170263e-01
    21   -2.042096269611e-01
    22    4.151557649556e-02
    23   -5.867593623566e-02
    24   -1.513337996840e-03
    25    7.619583687154e-04
    26   -4.079894585877e-03
    27    2.971790635512e-02
    28   -4.304678461225e-02
    29   -4.141175928604e-02
    30   -4.471904983989e-03
    31    3.155959109283e-01
    32    3.010285299901e-01
    33    3.338814468953e-02
    34   -3.628750337906e-03
    35    7.601040188437e-03
    36   -8.279634776112e-03
    37    1.480161177519e-01
    38    7.295933262960e-03
    39   -5.031495794354e-01
    40    1.791709809599e-01
    41    4.138124928784e-02
    42   -5.804345891696e-02
    43   -1.536231917336e-03
    44    5.295063344161e-01
    45   -2.004905605406e-01
    46   -6.179188619669e-02
    47    3.702111584053e-02
    48   -6.618270785731e-04
Sym=X
Ene= 0.689249
Spin=Alpha
Occup=0
     1    5.105562437519e-04
     2    2.264599772918e-04
     3    1.079816157020e-03
     4    1.279463906668e-03
     5   -2.101385027773e-02
     6    3.624967176556e-05
     7    3.854422843547e-04
     8    3.126449584891e-05
     9    3.149314889753e-02
    10    3.988639508965e-02
    11   -6.704974507477e-01
    12   -2.938578031869e-02
    13   -3.579691299831e-02
    14    6.134785689453e-01
    15   -1.434613392373e-03
    16    8.254483609535e-02
    17   -7.830530343880e-02
    18   -8.655015694869e-03
    19   -1.070835426689e-03
    20    5.745065435132e-04
    21   -1.353995657869e-04
    22    9.062899687559e-04
    23    1.127399490504e-03
    24   -2.097382759721e-02
    25    1.154424960918e-05
    26    6.187848508372e-04
    27   -6.237193459626e-04
    28    3.203541304540e-02
    29    4.006646286182e-02
    30   -6.698000899005e-01
    31   -3.008834674910e-02
    32   -3.616961836661e-02
    33    6.136220604924e-01
    34    1.133606289635e-03
    35   -8.272498169421e-02
    36    7.872803692558e-02
    37    8.549451154405e-03
    38    1.177688940583e-03
    39    1.819391558838e-04
    40   -8.102956623547e-04
    41    1.114949530167e-03
    42    1.534361024635e-03
    43   -2.277680147559e-02
    44    9.986616038033e-05
    45   -4.514377070558e-04
    46    8.610675846279e-04
    47    1.272654411716e-03
    48   -2.095552851496e-02
Sym=X
Ene= 0.709850
Spin=Alpha
Occup=0
     1   -4.874938298155e-01
     2    1.696709658054e-01
     3   -8.299078818788e-02
     4   -4.399416934558e-02
     5   -6.582260130410e-03
     6   -4.902533006239e-02
     7   -3.188089687951e-01
     8    5.185902482787e-01
     9    2.032196635414e-01
    10   -1.915187292005e-01
    11   -2.344426212640e-03
    12   -1.049787866340e-01
    13    8.878036873016e-02
    14    5.082753878670e-04
    15    1.970292039696e-01
    16   -2.080639647966e-02
    17   -2.417665744696e-02
    18    1.690566981257e-03
    19   -7.770835770020e-02
    20   -4.792128683233e-01
    21    1.545223364839e-01
    22    4.180421619655e-02
    23    8.241220377179e-02
    24    6.818929468279e-03
    25   -4.593403426011e-02
    26   -3.282723322820e-01
    27    4.673100322195e-01
    28   -2.092337205921e-01
    29    1.890579300243e-01
    30    7.484909042784e-04
    31    7.340408265851e-02
    32   -2.920405385789e-02
    33    2.938757270134e-03
    34    1.915815863140e-01
    35   -2.029569250979e-02
    36   -2.371666137649e-02
    37    2.529443881413e-03
    38   -7.530291887752e-02
    39   -4.636844999019e-01
    40    1.029027899644e-01
    41   -4.042969097846e-02
    42   -7.994365146371e-02
    43   -6.712248165528e-03
    44   -4.640467145284e-01
    45    1.477575808398e-01
    46    7.961936034546e-02
    47    4.419773015039e-02
    48    6.440565969963e-03
Sym=X
Ene= 0.786029
Spin=Alpha
Occup=0
     1    5.155943327094e-01
     2   -4.668865220454e-01
     3    1.090130158157e-01
     4    2.633281165770e-02
     5    6.729567132789e-03
     6    9.039837376564e-02
     7   -2.237920482487e-01
     8   -6.299160593909e-01
     9    1.137974703202e-01
    10   -1.106265661221e-01
    11    3.178682691442e-05
    12    3.148235005934e-01
    13   -2.874506382442e-01
    14   -4.312151759185e-03
    15   -2.036111815891e-01
    16    1.720852919107e-02
    17    2.132734813000e-02
    18   -1.013563682126e-03
    19    7.709539228431e-03
    20    5.349786831340e-01
    21   -4.647654894187e-01
    22   -1.862027738706e-02
    23   -1.117175862767e-01
    24   -7.463366479216e-03
    25   -9.258335412012e-02
    26    2.002174138127e-01
    27    6.803492501641e-01
    28    1.011781806878e-01
    29   -1.156539567048e-01
    30   -3.092268150033e-03
    31    3.312334289818e-01
    32   -2.546257380983e-01
    33    2.759419892407e-03
    34    2.118009348737e-01
    35   -1.804314649320e-02
    36   -2.275079765989e-02
    37   -6.891165030679e-04
    38   -9.551083732964e-03
    39   -5.441288817523e-01
    40    4.290341324317e-01
    41   -2.019782370375e-02
    42   -1.126992308056e-01
    43   -7.751012993247e-03
    44   -5.372686512365e-01
    45    4.845006155743e-01
    46    1.136471309474e-01
    47    2.795796128310e-02
    48    7.075140673943e-03
Sym=X
Ene= 0.808029
Spin=Alpha
Occup=0
     1    6.838777103656e-04
     2   -1.278171492864e-03
     3    1.843842657805e-03
     4    2.036103616655e-03
     5   -3.376913591934e-02
     6    1.399345778517e-04
     7   -4.887045100325e-04
     8   -1.492784815134e-04
     9    3.630785433020e-02
    10    4.469183932404e-02
    11   -7.629052205098e-01
    12   -5.278433492319e-02
    13   -6.668009676525e-02
    14    1.127110298740e+00
    15    6.397836323089e-04
    16   -6.503750858509e-02
    17    6.189701010246e-02
    18    6.909364420733e-03
    19    8.311073263044e-04
    20    7.042516049983e-04
    21   -2.571886576154e-04
    22    1.695165208340e-03
    23    1.907912587829e-03
    24   -3.446878638253e-02
    25   -1.253909453877e-04
    26    6.942263896772e-05
    27    4.295528276010e-04
    28   -3.615907911525e-02
    29   -4.619174071901e-02
    30    7.628763659269e-01
    31    5.435333291550e-02
    32    6.755389180409e-02
    33   -1.127559046276e+00
    34    1.412744690944e-03
    35   -6.515816367978e-02
    36    6.174129370378e-02
    37    6.635066380681e-03
    38    9.840610199685e-04
    39   -7.024930898343e-04
    40    3.203565864805e-04
    41   -1.627024632956e-03
    42   -2.398030156346e-03
    43    3.617296682837e-02
    44   -7.149448908114e-04
    45    1.396247089884e-03
    46   -1.251168100492e-03
    47   -2.002688154903e-03
    48    3.358202823048e-02
Sym=X
Ene= 0.862949
Spin=Alpha
Occup=0
     1    1.322858396394e-02
     2   -1.103256750370e+00
     3    1.493829006101e-01
     4    5.627582027116e-02
     5    1.039319078893e-02
     6   -7.740328575419e-04
     7    7.080397264188e-03
     8   -7.801864426015e-03
     9   -4.150290122762e-01
    10   -4.315614441758e-01
    11   -4.485638620237e-02
    12    9.603469699949e-01
    13    1.010147814734e+00
    14    1.045309822009e-01
    15    1.432156454223e-03
    16    1.175277020095e-02
    17   -1.381798395542e-02
    18    2.373575188204e-01
    19    1.093357228169e-02
    20   -2.148657508915e-02
    21    1.120794555442e+00
    22    4.979578484251e-02
    23    1.549814050870e-01
    24    1.156542125904e-02
    25    1.498107231240e-03
    26    8.211712257665e-03
    27   -5.733906573089e-03
    28   -4.046076082476e-01
    29   -4.175134871218e-01
    30   -4.462969394764e-02
    31    9.433688687939e-01
    32    9.868797508331e-01
    33    1.048062940647e-01
    34   -4.716882419102e-03
    35   -1.138780261555e-02
    36    1.418994246831e-02
    37   -2.366847542569e-01
    38   -1.059832214704e-02
    39    1.412925975656e-02
    40   -1.100910862249e+00
    41    4.866045522917e-02
    42    1.516928730372e-01
    43    1.148055088052e-02
    44   -2.430211796648e-03
    45    1.087274452365e+00
    46    1.458818543547e-01
    47    5.563408000199e-02
    48    1.018477154939e-02
Sym=X
Ene= 0.937264
Spin=Alpha
Occup=0
     1   -1.105027914313e-01
     2    1.266461972549e+00
     3   -1.798348246331e-01
     4    7.014743101268e-03
     5   -8.158649120837e-03
     6   -1.098860410895e-03
     7    1.129199290626e-02
     8   -4.341474969704e-02
     9    4.586658013957e-01
    10    5.046107674814e-01
    11    5.164798041214e-02
    12   -1.441351910573e+00
    13   -1.562998073690e+00
    14   -1.609950739341e-01
    15    1.427477149243e-03
    16   -5.488117695941e-03
    17    6.672130611328e-03
    18   -1.158090270914e-01
    19    3.368440182802e-03
    20    1.104358374044e-01
    21   -1.282562160989e+00
    22    1.043815884712e-02
    23   -1.798755418367e-01
    24   -1.006937975838e-02
    25    2.029978707887e-03
    26    2.042328883918e-02
    27   -1.177743151035e-02
    28   -4.923616951132e-01
    29   -4.872245090098e-01
    30   -5.256855603019e-02
    31    1.530704766040e+00
    32    1.520494196437e+00
    33    1.637347624116e-01
    34   -7.037248287846e-03
    35   -5.933654153673e-03
    36    7.800592191045e-03
    37   -1.241060216996e-01
    38   -1.114714771562e-02
    39    1.167116186190e-01
    40   -1.283658382732e+00
    41   -1.548903523785e-02
    42    1.823748986177e-01
    43    1.022294259813e-02
    44   -1.084910897311e-01
    45    1.332585025867e+00
    46    1.854928560601e-01
    47   -2.861822189422e-03
    48    8.643285805709e-03
Sym=X
Ene= 0.972854
Spin=Alpha
Occup=0
     1   -6.695960078825e-02
     2    9.668000073876e-01
     3   -9.666572434239e-02
     4   -9.936203404377e-02
     5   -1.051093479353e-02
     6    2.511902082891e-02
     7    2.707134244824e-01
     8    4.890843992794e-01
     9    4.921136265331e-01
    10   -4.467249556619e-01
    11   -2.947535838964e-03
    12   -1.538373790824e+00
    13    1.381042191915e+00
    14    8.323582230291e-03
    15   -5.332074075884e-02
    16   -1.308580016409e-02
    17   -9.791151231051e-03
    18    1.246266874198e-02
    19   -3.033262141952e-01
    20   -6.419482618333e-02
    21    8.977629297724e-01
    22    9.645988600860e-02
    23    9.213543311233e-02
    24    1.004048552461e-02
    25   -2.443379212963e-02
    26   -2.187458526591e-01
    27   -5.759299833524e-01
    28    4.618001250588e-01
    29   -4.641466894906e-01
    30   -6.181722904621e-03
    31   -1.434332863910e+00
    32    1.459486006439e+00
    33    2.002212124611e-02
    34    5.056516376051e-02
    35    1.257712383160e-02
    36    1.023224927722e-02
    37   -1.929630535202e-02
    38    2.974188281184e-01
    39    6.327947512822e-02
    40   -9.455426002091e-01
    41    9.420687644635e-02
    42    9.706074723808e-02
    43    1.039854798621e-02
    44    6.567473889576e-02
    45   -8.603778033807e-01
    46   -8.220409970336e-02
    47   -9.691232531299e-02
    48   -9.555655514375e-03
[5D]

======= END OF MOLDEN-FORMATTED INPUT FILE =======


        *************************************************************
        *                                                           *
        *  Thank you very much for using Q-Chem.  Have a nice day.  *
        *                                                           *
        *************************************************************


