                  Welcome to Q-Chem
     A Quantum Leap Into The Future Of Chemistry


 Q-Chem 5.4 (devel), Q-Chem, Inc., Pleasanton, CA (2021)

 E. Epifanovsky,  A. T. B. Gilbert,  Xintian Feng,  Joonho Lee,  Yuezhi Mao,  
 N. Mardirossian,  P. Pokhilko,  A. White,  M. Wormit,  M. P. Coons,  
 A. L. Dempwolff,  Zhengting Gan,  D. Hait,  P. R. Horn,  L. D. Jacobson,  
 I. Kaliman,  J. Kussmann,  A. W. Lange,  Ka Un Lao,  D. S. Levine,  Jie Liu,  
 S. C. McKenzie,  A. F. Morrison,  K. Nanda,  F. Plasser,  D. R. Rehn,  
 M. L. Vidal,  Zhi-Qiang You,  Ying Zhu,  B. Alam,  B. Albrecht,  
 A. Aldossary,  E. Alguire,  J. H. Andersen,  D. Barton,  K. Begam,  A. Behn,  
 Y. A. Bernard,  E. J. Berquist,  H. Burton,  A. Carreras,  K. Carter-Fenk,  
 R. Chakraborty,  A. D. Chien,  K. D. Closser,  V. Cofer-Shabica,  
 S. Dasgupta,  Jia Deng,  M. de Wergifosse,  M. Diedenhofen,  Hainam Do,  
 S. Ehlert,  Po-Tung Fang,  S. Fatehi,  Qingguo Feng,  T. Friedhoff,  
 J. Gayvert,  Qinghui Ge,  G. Gidofalvi,  M. Goldey,  J. Gomes,  
 C. Gonzalez-Espinoza,  S. Gulania,  A. Gunina,  M. W. D. Hanson-Heine,  
 P. H. P. Harbach,  A. W. Hauser,  M. F. Herbst,  M. Hernandez Vera,  
 M. Hodecker,  Z. C. Holden,  S. Houck,  Xunkun Huang,  Kerwin Hui,  
 B. C. Huynh,  M. Ivanov,  Hyunjun Ji,  Hanjie Jiang,  B. Kaduk,  S. Kaehler,  
 K. Khistyaev,  Jaehoon Kim,  P. Klunzinger,  Z. Koczor-Benda,  
 Joong Hoon Koh,  D. Kosenkov,  L. Koulias,  T. Kowalczyk,  C. M. Krauter,  
 K. Kue,  A. Kunitsa,  T. Kus,  A. Landau,  K. V. Lawler,  D. Lefrancois,  
 S. Lehtola,  Rain Li,  Yi-Pei Li,  Jiashu Liang,  M. Liebenthal,  
 Hung-Hsuan Lin,  You-Sheng Lin,  Fenglai Liu,  Kuan-Yu Liu,  
 M. Loipersberger,  A. Luenser,  A. Manjanath,  P. Manohar,  E. Mansoor,  
 S. F. Manzer,  Shan-Ping Mao,  A. V. Marenich,  T. Markovich,  S. Mason,  
 S. A. Maurer,  P. F. McLaughlin,  M. F. S. J. Menger,  J.-M. Mewes,  
 S. A. Mewes,  P. Morgante,  J. W. Mullinax,  K. J. Oosterbaan,  G. Paran,  
 Alexander C. Paul,  Suranjan K. Paul,  F. Pavosevic,  Zheng Pei,  S. Prager,  
 E. I. Proynov,  E. Ramos,  B. Rana,  A. E. Rask,  A. Rettig,  R. M. Richard,  
 F. Rob,  E. Rossomme,  T. Scheele,  M. Scheurer,  M. Schneider,  
 N. Sergueev,  S. M. Sharada,  W. Skomorowski,  D. W. Small,  C. J. Stein,  
 Yu-Chuan Su,  E. J. Sundstrom,  Zhen Tao,  J. Thirman,  T. Tsuchimochi,  
 N. M. Tubman,  S. P. Veccham,  O. Vydrov,  J. Wenzel,  J. Witte,  A. Yamada,  
 Kun Yao,  S. Yeganeh,  S. R. Yost,  A. Zech,  Igor Ying Zhang,  Xing Zhang,  
 Yu Zhang,  D. Zuev,  A. Aspuru-Guzik,  A. T. Bell,  N. A. Besley,  
 K. B. Bravaya,  B. R. Brooks,  D. Casanova,  Jeng-Da Chai,  S. Coriani,  
 C. J. Cramer,  A. E. DePrince, III,  R. A. DiStasio Jr.,  A. Dreuw,  
 B. D. Dunietz,  T. R. Furlani,  W. A. Goddard III,  S. Grimme,  
 S. Hammes-Schiffer,  T. Head-Gordon,  W. J. Hehre,  Chao-Ping Hsu,  
 T.-C. Jagau,  Yousung Jung,  A. Klamt,  Jing Kong,  D. S. Lambrecht,  
 WanZhen Liang,  N. J. Mayhall,  C. W. McCurdy,  J. B. Neaton,  
 C. Ochsenfeld,  J. A. Parkhill,  R. Peverati,  V. A. Rassolov,  Yihan Shao,  
 L. V. Slipchenko,  T. Stauch,  R. P. Steele,  J. E. Subotnik,  
 A. J. W. Thom,  A. Tkatchenko,  D. G. Truhlar,  T. Van Voorhis,  
 T. A. Wesolowski,  K. B. Whaley,  H. L. Woodcock III,  P. M. Zimmerman,  
 S. Faraji,  P. M. W. Gill,  M. Head-Gordon,  J. M. Herbert,  A. I. Krylov

 Additional authors for Version 5.4.1: 
 S. Kotaru,  Shaozhi Li,  Xiangyuan Li,  F. Matz,  A. Molle,  Haisheng Ren,  
 Yingli Su,  Hung-Yi Tsai,  C. Utku,  Fang Wang

 Contributors to earlier versions of Q-Chem not listed above: 
 R. D. Adamson,  B. Austin,  R. Baer,  J. Baker,  G. J. O. Beran,  
 K. Brandhorst,  S. T. Brown,  E. F. C. Byrd,  A. K. Chakraborty,  
 G. K. L. Chan,  Chun-Min Chang,  Yunqing Chen,  C.-L. Cheng,  
 Siu Hung Chien,  D. M. Chipman,  D. L. Crittenden,  H. Dachsel,  
 R. J. Doerksen,  A. D. Dutoi,  R. G. Edgar,  J. Fosso-Tande,  
 L. Fusti-Molnar,  D. Ghosh,  A. Ghysels,  A. Golubeva-Zadorozhnaya,  
 J. Gonthier,  M. S. Gordon,  S. R. Gwaltney,  G. Hawkins,  J. E. Herr,  
 A. Heyden,  S. Hirata,  E. G. Hohenstein,  G. Kedziora,  F. J. Keil,  
 C. Kelley,  Jihan Kim,  R. A. King,  R. Z. Khaliullin,  P. P. Korambath,  
 W. Kurlancheek,  A. Laurent,  A. M. Lee,  M. S. Lee,  S. V. Levchenko,  
 Ching Yeh Lin,  D. Liotard,  E. Livshits,  R. C. Lochan,  I. Lotan,  
 L. A. Martinez-Martinez,  P. E. Maslen,  N. Nair,  D. P. O'Neill,  
 D. Neuhauser,  E. Neuscamman,  C. M. Oana,  R. Olivares-Amaya,  R. Olson,  
 T. M. Perrine,  B. Peters,  P. A. Pieniazek,  A. Prociuk,  Y. M. Rhee,  
 J. Ritchie,  M. A. Rohrdanz,  E. Rosta,  N. J. Russ,  H. F. Schaefer III,  
 M. W. Schmidt,  N. E. Schultz,  S. Sharma,  N. Shenvi,  C. D. Sherrill,  
 A. C. Simmonett,  A. Sodt,  T. Stein,  D. Stuck,  K. S. Thanthiriwatte,  
 V. Vanovschi,  L. Vogt,  Tao Wang,  A. Warshel,  M. A. Watson,  
 C. F. Williams,  Q. Wu,  X. Xu,  Jun Yang,  W. Zhang,  Yan Zhao

 Please cite Q-Chem as follows:
 Y. Shao et al., Mol. Phys. 113, 184-215 (2015)
 DOI: 10.1080/00268976.2014.952696

 Q-Chem 5.4.1 for Intel X86 EM64T Linux

 Parts of Q-Chem use Armadillo 9.800.1 (Horizon Scraper).
 http://arma.sourceforge.net/

 Q-Chem begins on Wed Mar 15 17:53:09 2023  

 Host: cpu121.yggdrasil
0

     Scratch files written to /srv/beegfs/scratch/users/f/fum/qchem93235//
 Processing $rem in /home/share/wesolowski/qc5.aug2021.FDE/config/preferences:
 Processing $rem in /home/fum/.qchemrc:

 Checking the input file for inconsistencies... 	...done.

--------------------------------------------------------------
User input:
--------------------------------------------------------------
$comment
generated from CCJob.Templates
$end

$rem
sym_ignore = true
method = adc(2)
ee_states = 10
basis = cc-pVDZ
mem_static = 1024
mem_total = 40000
adc_davidson_maxiter = 900
adc_davidson_conv = 6
adc_print = 3
adc_prop_es = true
adc_prop_es2es = true
adc_prop_tpa = true
molden_format = True
state_analysis = true
print_orbitals = 15
gen_scfman = false
fde_export_density = true
fde_details = 3
$end

$molecule
0 1
H -0.0348278765 -0.2442097827 0.0636489606
C -1.0765972949 -0.4842748755 -0.0023551776
H -1.313264467 -1.5767591607 -0.0757276926
C -2.043634118 0.3926884087 0.0061254933
H -1.8137616575 1.4459188338 0.0804456828
H -3.085977293 0.114931858 -0.0593381042                     
$end
--------------------------------------------------------------
 ----------------------------------------------------------------
             Standard Nuclear Orientation (Angstroms)
    I     Atom           X                Y                Z
 ----------------------------------------------------------------
    1      H      -0.0348278765    -0.2442097827     0.0636489606
    2      C      -1.0765972949    -0.4842748755    -0.0023551776
    3      H      -1.3132644670    -1.5767591607    -0.0757276926
    4      C      -2.0436341180     0.3926884087     0.0061254933
    5      H      -1.8137616575     1.4459188338     0.0804456828
    6      H      -3.0859772930     0.1149318580    -0.0593381042
 ----------------------------------------------------------------
 Nuclear Repulsion Energy =          33.68155388 hartrees
 There are        8 alpha and        8 beta electrons
 Requested basis set is cc-pVDZ
 There are 24 shells and 48 basis functions
 Total memory of 40000 MB is distributed as follows: 
   MEM_STATIC is set to 1024 MB
   QALLOC/CCMAN JOB total memory use is  38976 MB
 Warning: actual memory use might exceed 40000 MB

 Total QAlloc Memory Limit  40000 MB
 Mega-Array Size      1001 MB
 MEM_STATIC part      1024 MB

                       Distance Matrix (Angstroms)
             H (  1)   C (  2)   H (  3)   C (  4)   H (  5)
   C (  2)  1.071108
   H (  3)  1.851895  1.120231
   C (  4)  2.108139  1.305487  2.102109
   H (  5)  2.453859  2.067829  3.067812  1.080583
   H (  6)  3.074674  2.097595  2.450428  1.080700  1.846510

 A cutoff of  1.0D-11 yielded    300 shell pairs
 There are      1220 function pairs (      1329 Cartesian)
 Smallest overlap matrix eigenvalue = 4.34E-03

 Scale SEOQF with 1.000000e-01/1.000000e-01/1.000000e+00

 Standard Electronic Orientation quadrupole field applied
 Nucleus-field energy     =     0.0000000021 hartrees
 Guess from superposition of atomic densities
 Warning:  Energy on first SCF cycle will be non-variational
 SAD guess density has 16.000000 electrons
 A restricted Hartree-Fock SCF calculation will be
 performed using Pulay DIIS extrapolation
 SCF converges when DIIS error is below 1.0E-08
 using 10 threads for integral computing
 -------------------------------------------------------
 OpenMP Integral computing Module                
 Release: version 1.0, May 2013, Q-Chem Inc. Pittsburgh 
 -------------------------------------------------------
 ---------------------------------------
  Cycle       Energy         DIIS Error
 ---------------------------------------
    1     -78.4738800515      1.03E-01
    2     -78.0159628096      7.32E-03
    3     -78.0368507916      1.90E-03
    4     -78.0383769299      6.18E-04
    5     -78.0385184380      6.05E-05
    6     -78.0385204014      1.26E-05
    7     -78.0385204871      5.57E-06
    8     -78.0385204983      1.10E-06
    9     -78.0385204994      3.42E-07
   10     -78.0385204995      7.92E-08
   11     -78.0385204995      6.13E-09 Convergence criterion met
 ---------------------------------------
 SCF time:  CPU 2.12 s  wall 3.25 s
 SCF   energy in the final basis set = -78.03852050
 Total energy in the final basis set = -78.03852050
Exporting Density Matrix to file 'Densmat_SCF.txt'.
Export successful
================================================================================
|                                                                              |
|                                 A D C  M A N                                 |
|                                                                              |
 ------------------------------------------------------------------------------ 
|                                                                              |
| Components:                                                                  |
|                                                                              |
| - libvmm - 1.3-trunk                                                         |
|   Authors:                                                                   |
|   Evgeny Epifanovsky, Ilya Kaliman                                           |
|                                                                              |
| - libtensor - 2.5-trunk                                                      |
|   Authors:                                                                   |
|   Evgeny Epifanovsky, Michael Wormit, Dmitry Zuev, Sam Manzer,               |
|   Ilya Kaliman                                                               |
|                                                                              |
| - libwfa - 1.1-trunk                                                         |
|   Authors:                                                                   |
|   Felix Plasser, Stefanie Mewes (Baeppler), Benjamin Thomitzni,              |
|   Michael Wormit, Feng Chen, Anna I. Krylov, Pavel Pokhilko                  |
|                                                                              |
| - libadc - 1.1-trunk                                                         |
|   Authors:                                                                   |
|   Michael Wormit, Adrian L. Dempwolff, Philipp H. P. Harbach,                |
|   Caroline Krauter, Dirk Rehn, Matthias Schneider, Jan Wenzel                |
|                                                                              |
| - adcman - 2.6-trunk                                                         |
|   Authors:                                                                   |
|   Michael Wormit, Adrian L. Dempwolff, Philipp H. P. Harbach,                |
|   Caroline Krauter, Daniel Lefrancois, Jan-Michael Mewes, Dirk Rehn,         |
|   Matthias Schneider, Jan Wenzel, Andreas Dreuw                              |
|                                                                              |
| Authors of earlier versions of ADCMAN:                                       |
| Andreas Dreuw, Jan Hendrik Starcke, Dirk Rehn, Michael Wormit                |
|                                                                              |
================================================================================

 Created directory /srv/beegfs/scratch/users/f/fum/qchem93235/plots
  Import QC data ...  CPU 0.00 s  wall 0.01 s

 Alpha MOs, Restricted
 -- Occupied --                  
-11.234 -11.230  -1.040  -0.786  -0.640  -0.589  -0.495  -0.381
  1 A     2 A     3 A     4 A     5 A     6 A     7 A     8 A                  
 -- Virtual --                   
  0.175   0.204   0.231   0.239   0.305   0.468   0.574   0.614
  9 A    10 A    11 A    12 A    13 A    14 A    15 A    16 A                  
  0.683   0.707   0.789   0.811   0.856   0.936   0.987   1.009
 17 A    18 A    19 A    20 A    21 A    22 A    23 A    24 A                  
  1.128   1.243   1.253   1.274   1.299   1.590   1.732   1.755
 25 A    26 A    27 A    28 A    29 A    30 A    31 A    32 A                  
  1.820   1.863   1.874   1.923   1.960   1.987   2.240   2.273
 33 A    34 A    35 A    36 A    37 A    38 A    39 A    40 A                  
  2.375   2.443   2.513   2.653   2.693   2.832   3.129   3.425
 41 A    42 A    43 A    44 A    45 A    46 A    47 A    48 A                  

 Beta MOs, Restricted
 -- Occupied --                  
-11.234 -11.230  -1.040  -0.786  -0.640  -0.589  -0.495  -0.381
  1 A     2 A     3 A     4 A     5 A     6 A     7 A     8 A                  
 -- Virtual --                   
  0.175   0.204   0.231   0.239   0.305   0.468   0.574   0.614
  9 A    10 A    11 A    12 A    13 A    14 A    15 A    16 A                  
  0.683   0.707   0.789   0.811   0.856   0.936   0.987   1.009
 17 A    18 A    19 A    20 A    21 A    22 A    23 A    24 A                  
  1.128   1.243   1.253   1.274   1.299   1.590   1.732   1.755
 25 A    26 A    27 A    28 A    29 A    30 A    31 A    32 A                  
  1.820   1.863   1.874   1.923   1.960   1.987   2.240   2.273
 33 A    34 A    35 A    36 A    37 A    38 A    39 A    40 A                  
  2.375   2.443   2.513   2.653   2.693   2.832   3.129   3.425
 41 A    42 A    43 A    44 A    45 A    46 A    47 A    48 A                  
  Import AO data ...  CPU 0.01 s  wall 0.06 s
  Using point group: C1
  Irreducible representations in point group: A
  Molecular orbitals: 
  Occupied MOs:
  Block   0:   1 (  A) A   2 (  A) A   3 (  A) A   4 (  A) A   5 (  A) A
                  -11.23      -11.23       -1.04     -0.7857     -0.6399
               6 (  A) A   7 (  A) A   8 (  A) A
                 -0.5889      -0.495     -0.3811
  Block   1:   1 (  A) B   2 (  A) B   3 (  A) B   4 (  A) B   5 (  A) B
                  -11.23      -11.23       -1.04     -0.7857     -0.6399
               6 (  A) B   7 (  A) B   8 (  A) B
                 -0.5889      -0.495     -0.3811
  Virtual MOs:
  Block   0:   9 (  A) A  10 (  A) A  11 (  A) A  12 (  A) A  13 (  A) A
                  0.1746      0.2036      0.2306      0.2386      0.3046
              14 (  A) A  15 (  A) A  16 (  A) A  17 (  A) A  18 (  A) A
                  0.4679      0.5738      0.6141      0.6829      0.7068
              19 (  A) A  20 (  A) A  21 (  A) A  22 (  A) A
                  0.7894      0.8108      0.8564      0.9361
  Block   1:  23 (  A) A  24 (  A) A  25 (  A) A  26 (  A) A  27 (  A) A
                  0.9875       1.009       1.128       1.243       1.253
              28 (  A) A  29 (  A) A  30 (  A) A  31 (  A) A  32 (  A) A
                   1.274       1.299        1.59       1.732       1.755
              33 (  A) A  34 (  A) A  35 (  A) A  36 (  A) A
                    1.82       1.863       1.874       1.923
  Block   2:  37 (  A) A  38 (  A) A  39 (  A) A  40 (  A) A  41 (  A) A
                    1.96       1.987        2.24       2.273       2.375
              42 (  A) A  43 (  A) A  44 (  A) A  45 (  A) A  46 (  A) A
                   2.443       2.513       2.653       2.693       2.832
              47 (  A) A  48 (  A) A
                   3.129       3.425
  Block   3:   9 (  A) B  10 (  A) B  11 (  A) B  12 (  A) B  13 (  A) B
                  0.1746      0.2036      0.2306      0.2386      0.3046
              14 (  A) B  15 (  A) B  16 (  A) B  17 (  A) B  18 (  A) B
                  0.4679      0.5738      0.6141      0.6829      0.7068
              19 (  A) B  20 (  A) B  21 (  A) B  22 (  A) B
                  0.7894      0.8108      0.8564      0.9361
  Block   4:  23 (  A) B  24 (  A) B  25 (  A) B  26 (  A) B  27 (  A) B
                  0.9875       1.009       1.128       1.243       1.253
              28 (  A) B  29 (  A) B  30 (  A) B  31 (  A) B  32 (  A) B
                   1.274       1.299        1.59       1.732       1.755
              33 (  A) B  34 (  A) B  35 (  A) B  36 (  A) B
                    1.82       1.863       1.874       1.923
  Block   5:  37 (  A) B  38 (  A) B  39 (  A) B  40 (  A) B  41 (  A) B
                    1.96       1.987        2.24       2.273       2.375
              42 (  A) B  43 (  A) B  44 (  A) B  45 (  A) B  46 (  A) B
                   2.443       2.513       2.653       2.693       2.832
              47 (  A) B  48 (  A) B
                   3.129       3.425
  Import MO data ...  CPU 0.01 s  wall 0.02 s
  Import HF data ...  CPU 0.07 s  wall 0.03 s
  Import 2e integrals ...  CPU 0.83 s  wall 0.14 s

--------------------------------------------------------------------------------
                                   HF Summary                                   
--------------------------------------------------------------------------------
  Energy:                                                  -78.0385204995 a.u.
  Dip. moment [a.u.]:                  [   0.004265,    0.007472,    0.002387]
  Total dipole [Debye]:                                               0.022694
  <r^2> [a.u.]:                        [ 175.269355,   34.176960,   11.571202]
  Total <r^2> [a.u.]:                                               221.017517
--------------------------------------------------------------------------------
  HF properties ...  CPU 0.01 s  wall 0.01 s
  MP(1) calculation ...  CPU 0.01 s  wall 0.01 s
  N^6 prerequesite intermediates ...  CPU 0.42 s  wall 0.08 s
  Difference density matrix of state mp2_gs printed to ASCII file 'State_mp2_gs_Difference.txt'
Exporting MP density matrix to file 'Densmat_MP.txt'.
Export successful
  Total density matrix of state mp2_gs printed to ASCII file 'State_mp2_gs_Total.txt'
Exporting MP density matrix to file 'Densmat_MP.txt'.
Export successful

--------------------------------------------------------------------------------
                                 MP(2) Summary                                  
--------------------------------------------------------------------------------
  MP energy contribution:                                   -0.2785943540 a.u.
  Total energy:                                            -78.3171148535 a.u.
  Dip. moment [a.u.]:                  [   0.003117,    0.006122,    0.002231]
  Total dipole [Debye]:                                               0.018358
  <r^2> [a.u.]:                        [ 175.320444,   34.209138,   11.419167]
  Total <r^2> [a.u.]:                                               220.948748

  Density matrix analysis:
  ------------------------
  NOs
    Occupation of frontier NOs:
       0.0431   1.9402
    Number of electrons: 16.000000
    Number of unpaired electrons: n_u =  0.39865, n_u,nl =  0.04333
    NO participation ratio (PR_NO): 14.098519
  
  
  Mulliken Population Analysis
  Atom      Charge (e)              h+              e-           Del q
  --------------------------------------------------------------------
   1 H        0.048025        0.014100       -0.011259        0.002841
   2 C       -0.110424        0.092086       -0.097591       -0.005505
   3 H        0.053029        0.014030       -0.011230        0.002800
   4 C       -0.088311        0.090237       -0.096270       -0.006033
   5 H        0.047323        0.014250       -0.011117        0.003133
   6 H        0.050357        0.013958       -0.011193        0.002765
  --------------------------------------------------------------------
  Sum:       -0.000000        0.238660       -0.238660       -0.000000
  
  Multipole moment analysis of the density matrix
    Molecular charge:                      -0.000000
    Number of electrons:                   16.000000
      Center of electronic charge [Ang]: [ -1.560679,  -0.050805,   0.001904]
    Total nuclear charge:                  16.000000
      Center of nuclear charge [Ang]:    [ -1.560576,  -0.050602,   0.001978]
    Dipole moment [D]:                     0.018358
      Cartesian components [D]:          [  0.007921,   0.015560,   0.005671]
    RMS size of the density [Ang]:         1.195279
      Cartesian components [Ang]:        [  0.795425,   0.772101,   0.447048]
  
  Exciton analysis of the difference density matrix
    <r_h> [Ang]:                  [ -1.560554,  -0.057255,   0.001251]
    <r_e> [Ang]:                  [ -1.558008,  -0.054261,   0.001597]
    |<r_e - r_h>| [Ang]:            0.003945
    Hole size [Ang]:                1.386049
      Cartesian components [Ang]: [  0.843282,   0.835066,   0.716012]
    Electron size [Ang]:            1.359675
      Cartesian components [Ang]: [  0.882615,   0.857569,   0.578172]
--------------------------------------------------------------------------------
  MP(2) calculation ...  CPU 0.11 s  wall 0.33 s
  Start ADC(2)-s ...  CPU 0.01 s  wall 0.00 s
  ADC(2) intermediates ...  CPU 0.02 s  wall 0.01 s
  Starting Davidson for singlet states of irrep A ... 
--------------------------------------------------------------------------------
   It NVec Conv  Avg. Norm  Max. Norm  Conv. states           Remark
--------------------------------------------------------------------------------
        10    0  1.333e-01  4.720e-01  0.4172 n n n n n n n n Guess.
    1   20    0  2.650e-02  1.641e-01  0.3331 n n n n n n n n 
    2   30    0  6.745e-03  4.364e-02  0.3303 n n n n n n n n 
    3   40    0  2.372e-03  1.870e-02  0.3299 n n n n n n n n 
    4   50    0  9.044e-04  8.086e-03  0.3299 n n n n n n n n 
    5   20    0  6.359e-04  6.046e-03  0.3299 n n n n n n n n Subspace collapsed.
    6   30    0  1.244e-03  1.240e-02  0.3299 n n n n n n n n 
    7   40    0  8.415e-04  8.391e-03  0.3299 n n n n n n n n 
    8   50    0  5.031e-04  5.019e-03  0.3299 n n n n n n n n 
    9   20    0  2.891e-04  2.886e-03  0.3299 n n n n n n n n Subspace collapsed.
   10   30    2  2.107e-04  2.103e-03  0.3299 n y n y n n n n 
   11   40    4  9.092e-05  9.074e-04  0.3299 n y y y y n n n 
   12   50    6  7.582e-05  7.575e-04  0.3299 y y y y y y n n 
   13   20    6  5.150e-05  5.146e-04  0.3299 y y y y y y n n Subspace collapsed.
   14   30    6  7.672e-05  7.666e-04  0.3299 y y y y y y n n 
   15   40    6  7.873e-05  7.864e-04  0.3299 y y y y y y n n 
   16   50    6  5.287e-05  5.272e-04  0.3299 y y y y y y n n 
   17   20    6  3.004e-05  2.996e-04  0.3299 y y y y y y n n Subspace collapsed.
   18   30    7  2.363e-05  2.357e-04  0.3299 y y y y y y n y 
   19   40    7  1.207e-05  1.203e-04  0.3299 y y y y y y n y 
   20   50    8  1.116e-05  1.111e-04  0.3299 y y y y y y y y 
   21   20    8  7.117e-06  7.083e-05  0.3299 y y y y y y y y Subspace collapsed.
   22   30    8  1.065e-05  1.058e-04  0.3299 y y y y y y y y 
   23   31    8  1.062e-05  1.055e-04  0.3299 y y y y y y y y 
   24   40    8  9.755e-06  9.632e-05  0.3299 y y y y y y y y 
   25   49    8  7.579e-06  7.387e-05  0.3299 y y y y y y y y 
   26   50    8  7.593e-06  7.396e-05  0.3299 y y y y y y y y 
   27   17    8  4.220e-06  4.108e-05  0.3299 y y y y y y y y Subspace collapsed.
   28   24    8  3.074e-06  2.994e-05  0.3299 y y y y y y y y 
   29   30    8  1.875e-06  1.818e-05  0.3299 y y y y y y y y 
   30   35    8  1.523e-06  1.456e-05  0.3299 y y y y y y y y 
   31   40    8  1.763e-06  1.636e-05  0.3299 y y y y y y y y 
   32   44    8  1.373e-06  1.156e-05  0.3299 y y y y y y y y 
   33   48    8  9.127e-07  6.692e-06  0.3299 y y y y y y y y 
   34   50    8  3.356e-07  2.467e-06  0.3299 y y y y y y y y 
   35   14    8  1.763e-07  1.317e-06  0.3299 y y y y y y y y Subspace collapsed.
   36   18   10  9.716e-08  7.492e-07  0.3299 y y y y y y y y Converged.
--------------------------------------------------------------------------------
  Davidson Summary: 
 ------------------------------------------------------------
  State  0: excitation energy =   0.3299 a.u.   (converged)
  State  1: excitation energy =   0.3309 a.u.   (converged)
  State  2: excitation energy =   0.3409 a.u.   (converged)
  State  3: excitation energy =   0.3620 a.u.   (converged)
  State  4: excitation energy =   0.3813 a.u.   (converged)
  State  5: excitation energy =   0.3969 a.u.   (converged)
  State  6: excitation energy =   0.4175 a.u.   (converged)
  State  7: excitation energy =   0.4523 a.u.   (converged)
  State  8: excitation energy =   0.4548 a.u.   (converged)
  State  9: excitation energy =   0.4615 a.u.   (converged)
 ------------------------------------------------------------

  Singlet states of irrep A ...  CPU 116.50 s  wall 28.57 s
  TDMs ...  CPU 0.59 s  wall 0.23 s
  SDMs ...  CPU 1.50 s  wall 0.46 s
  Starting TPA DIIS iterations ... 
------------------------------------ 
   It     Res. Norm  Remark
------------------------------------
                       Guess.
    1     4.177e+00  
    2     5.423e+00  
    3     1.031e+00  
    4     2.311e-01  
    5     5.728e-02  
    6     2.382e-02  
    7     7.573e-03  
    8     1.389e-03  
    9     5.352e-04  
   10     8.805e-05  
   11     2.814e-05  
   12     4.399e-06  
   13     1.718e-06  
   14     5.203e-07  Converged.
   ... Converged in 14 steps (norm: 5.20347e-07)
------------------------------------
  Starting TPA DIIS iterations ... 
------------------------------------ 
   It     Res. Norm  Remark
------------------------------------
                       Guess.
    1     3.758e+00  
    2     4.895e+00  
    3     9.882e-01  
    4     2.485e-01  
    5     5.697e-02  
    6     2.544e-02  
    7     7.605e-03  
    8     1.595e-03  
    9     5.976e-04  
   10     9.671e-05  
   11     3.327e-05  
   12     4.926e-06  
   13     1.835e-06  
   14     5.040e-07  Converged.
   ... Converged in 14 steps (norm: 5.04038e-07)
------------------------------------
  Starting TPA DIIS iterations ... 
------------------------------------ 
   It     Res. Norm  Remark
------------------------------------
                       Guess.
    1     6.875e-01  
    2     4.814e-01  
    3     1.692e-01  
    4     6.239e-02  
    5     1.816e-02  
    6     6.734e-03  
    7     1.229e-03  
    8     4.458e-04  
    9     2.077e-04  
   10     4.887e-05  
   11     2.935e-05  
   12     9.342e-06  
   13     5.103e-06  
   14     2.326e-06  
   15     6.652e-07  Converged.
   ... Converged in 15 steps (norm: 6.65232e-07)
------------------------------------
  Starting TPA DIIS iterations ... 
------------------------------------ 
   It     Res. Norm  Remark
------------------------------------
                       Guess.
    1     4.199e+00  
    2     5.461e+00  
    3     1.038e+00  
    4     2.331e-01  
    5     5.786e-02  
    6     2.408e-02  
    7     7.656e-03  
    8     1.404e-03  
    9     5.414e-04  
   10     8.913e-05  
   11     2.850e-05  
   12     4.460e-06  
   13     1.745e-06  
   14     5.285e-07  Converged.
   ... Converged in 14 steps (norm: 5.28487e-07)
------------------------------------
  Starting TPA DIIS iterations ... 
------------------------------------ 
   It     Res. Norm  Remark
------------------------------------
                       Guess.
    1     3.778e+00  
    2     4.929e+00  
    3     9.942e-01  
    4     2.506e-01  
    5     5.755e-02  
    6     2.573e-02  
    7     7.691e-03  
    8     1.613e-03  
    9     6.046e-04  
   10     9.790e-05  
   11     3.370e-05  
   12     4.994e-06  
   13     1.862e-06  
   14     5.115e-07  Converged.
   ... Converged in 14 steps (norm: 5.11482e-07)
------------------------------------
  Starting TPA DIIS iterations ... 
------------------------------------ 
   It     Res. Norm  Remark
------------------------------------
                       Guess.
    1     6.885e-01  
    2     4.828e-01  
    3     1.700e-01  
    4     6.303e-02  
    5     1.828e-02  
    6     6.786e-03  
    7     1.242e-03  
    8     4.507e-04  
    9     2.103e-04  
   10     4.979e-05  
   11     2.980e-05  
   12     9.495e-06  
   13     5.205e-06  
   14     2.380e-06  
   15     6.787e-07  Converged.
   ... Converged in 15 steps (norm: 6.78656e-07)
------------------------------------
  Starting TPA DIIS iterations ... 
------------------------------------ 
   It     Res. Norm  Remark
------------------------------------
                       Guess.
    1     4.423e+00  
    2     5.855e+00  
    3     1.102e+00  
    4     2.544e-01  
    5     6.398e-02  
    6     2.685e-02  
    7     8.533e-03  
    8     1.564e-03  
    9     6.074e-04  
   10     1.005e-04  
   11     3.241e-05  
   12     5.119e-06  
   13     2.039e-06  
   14     6.171e-07  Converged.
   ... Converged in 14 steps (norm: 6.17102e-07)
------------------------------------
  Starting TPA DIIS iterations ... 
------------------------------------ 
   It     Res. Norm  Remark
------------------------------------
                       Guess.
    1     3.977e+00  
    2     5.284e+00  
    3     1.055e+00  
    4     2.734e-01  
    5     6.363e-02  
    6     2.877e-02  
    7     8.591e-03  
    8     1.804e-03  
    9     6.792e-04  
   10     1.106e-04  
   11     3.832e-05  
   12     5.730e-06  
   13     2.156e-06  
   14     5.919e-07  Converged.
   ... Converged in 14 steps (norm: 5.919e-07)
------------------------------------
  Starting TPA DIIS iterations ... 
------------------------------------ 
   It     Res. Norm  Remark
------------------------------------
                       Guess.
    1     6.989e-01  
    2     4.976e-01  
    3     1.783e-01  
    4     6.984e-02  
    5     1.951e-02  
    6     7.335e-03  
    7     1.382e-03  
    8     5.012e-04  
    9     2.378e-04  
   10     5.982e-05  
   11     3.474e-05  
   12     1.119e-05  
   13     6.347e-06  
   14     2.986e-06  
   15     8.235e-07  Converged.
   ... Converged in 15 steps (norm: 8.23477e-07)
------------------------------------
  Starting TPA DIIS iterations ... 
------------------------------------ 
   It     Res. Norm  Remark
------------------------------------
                       Guess.
    1     4.964e+00  
    2     6.834e+00  
    3     1.258e+00  
    4     3.093e-01  
    5     7.971e-02  
    6     3.406e-02  
    7     1.080e-02  
    8     1.975e-03  
    9     7.794e-04  
   10     1.304e-04  
   11     4.287e-05  
   12     6.896e-06  
   13     2.876e-06  
   14     8.691e-07  Converged.
   ... Converged in 14 steps (norm: 8.69077e-07)
------------------------------------
  Starting TPA DIIS iterations ... 
------------------------------------ 
   It     Res. Norm  Remark
------------------------------------
                       Guess.
    1     4.461e+00  
    2     6.165e+00  
    3     1.203e+00  
    4     3.318e-01  
    5     7.929e-02  
    6     3.671e-02  
    7     1.092e-02  
    8     2.296e-03  
    9     8.737e-04  
   10     1.438e-04  
   11     5.061e-05  
   12     7.718e-06  
   13     2.971e-06  
   14     8.145e-07  Converged.
   ... Converged in 14 steps (norm: 8.14504e-07)
------------------------------------
  Starting TPA DIIS iterations ... 
------------------------------------ 
   It     Res. Norm  Remark
------------------------------------
                       Guess.
    1     7.217e-01  
    2     5.316e-01  
    3     1.980e-01  
    4     8.777e-02  
    5     2.247e-02  
    6     8.739e-03  
    7     1.749e-03  
    8     6.244e-04  
    9     3.090e-04  
   10     8.845e-05  
   11     4.866e-05  
   12     1.628e-05  
   13     9.872e-06  
   14     4.852e-06  
   15     1.224e-06  
   16     3.885e-07  Converged.
   ... Converged in 16 steps (norm: 3.88539e-07)
------------------------------------
  Starting TPA DIIS iterations ... 
------------------------------------ 
   It     Res. Norm  Remark
------------------------------------
                       Guess.
    1     5.565e+00  
    2     7.958e+00  
    3     1.430e+00  
    4     3.753e-01  
    5     9.862e-02  
    6     4.287e-02  
    7     1.353e-02  
    8     2.472e-03  
    9     9.902e-04  
   10     1.672e-04  
   11     5.611e-05  
   12     9.159e-06  
   13     4.031e-06  
   14     1.224e-06  
   15     7.297e-07  Converged.
   ... Converged in 15 steps (norm: 7.2972e-07)
------------------------------------
  Starting TPA DIIS iterations ... 
------------------------------------ 
   It     Res. Norm  Remark
------------------------------------
                       Guess.
    1     4.998e+00  
    2     7.177e+00  
    3     1.365e+00  
    4     4.022e-01  
    5     9.816e-02  
    6     4.646e-02  
    7     1.375e-02  
    8     2.892e-03  
    9     1.112e-03  
   10     1.846e-04  
   11     6.599e-05  
   12     1.026e-05  
   13     4.051e-06  
   14     1.112e-06  
   15     3.985e-07  Converged.
   ... Converged in 15 steps (norm: 3.98489e-07)
------------------------------------
  Starting TPA DIIS iterations ... 
------------------------------------ 
   It     Res. Norm  Remark
------------------------------------
                       Guess.
    1     7.441e-01  
    2     5.670e-01  
    3     2.192e-01  
    4     1.099e-01  
    5     2.581e-02  
    6     1.043e-02  
    7     2.207e-03  
    8     7.570e-04  
    9     3.951e-04  
   10     1.273e-04  
   11     6.760e-05  
   12     2.382e-05  
   13     1.538e-05  
   14     7.573e-06  
   15     1.784e-06  
   16     5.644e-07  Converged.
   ... Converged in 16 steps (norm: 5.64411e-07)
------------------------------------
  Starting TPA DIIS iterations ... 
------------------------------------ 
   It     Res. Norm  Remark
------------------------------------
                       Guess.
    1     6.144e+00  
    2     9.075e+00  
    3     1.595e+00  
    4     4.436e-01  
    5     1.181e-01  
    6     5.208e-02  
    7     1.636e-02  
    8     2.984e-03  
    9     1.211e-03  
   10     2.059e-04  
   11     7.035e-05  
   12     1.160e-05  
   13     5.387e-06  
   14     1.663e-06  
   15     1.059e-06  
   16     4.081e-07  Converged.
   ... Converged in 16 steps (norm: 4.0812e-07)
------------------------------------
  Starting TPA DIIS iterations ... 
------------------------------------ 
   It     Res. Norm  Remark
------------------------------------
                       Guess.
    1     5.515e+00  
    2     8.183e+00  
    3     1.520e+00  
    4     4.751e-01  
    5     1.177e-01  
    6     5.671e-02  
    7     1.669e-02  
    8     3.510e-03  
    9     1.361e-03  
   10     2.275e-04  
   11     8.227e-05  
   12     1.302e-05  
   13     5.258e-06  
   14     1.454e-06  
   15     5.434e-07  Converged.
   ... Converged in 15 steps (norm: 5.43377e-07)
------------------------------------
  Starting TPA DIIS iterations ... 
------------------------------------ 
   It     Res. Norm  Remark
------------------------------------
                       Guess.
    1     7.632e-01  
    2     5.990e-01  
    3     2.390e-01  
    4     1.332e-01  
    5     2.915e-02  
    6     1.217e-02  
    7     2.694e-03  
    8     8.775e-04  
    9     4.842e-04  
   10     1.712e-04  
   11     8.946e-05  
   12     3.322e-05  
   13     2.263e-05  
   14     1.082e-05  
   15     2.494e-06  
   16     7.806e-07  Converged.
   ... Converged in 16 steps (norm: 7.80605e-07)
------------------------------------
  Starting TPA DIIS iterations ... 
------------------------------------ 
   It     Res. Norm  Remark
------------------------------------
                       Guess.
    1     7.069e+00  
    2     1.092e+01  
    3     1.856e+00  
    4     5.615e-01  
    5     1.517e-01  
    6     6.819e-02  
    7     2.125e-02  
    8     3.868e-03  
    9     1.599e-03  
   10     2.737e-04  
   11     9.574e-05  
   12     1.597e-05  
   13     8.092e-06  
   14     2.646e-06  
   15     1.770e-06  
   16     7.448e-07  Converged.
   ... Converged in 16 steps (norm: 7.44841e-07)
------------------------------------
  Starting TPA DIIS iterations ... 
------------------------------------ 
   It     Res. Norm  Remark
------------------------------------
                       Guess.
    1     6.342e+00  
    2     9.850e+00  
    3     1.765e+00  
    4     6.008e-01  
    5     1.513e-01  
    6     7.470e-02  
    7     2.179e-02  
    8     4.578e-03  
    9     1.797e-03  
   10     3.026e-04  
   11     1.106e-04  
   12     1.804e-05  
   13     7.500e-06  
   14     2.119e-06  
   15     8.308e-07  Converged.
   ... Converged in 15 steps (norm: 8.30806e-07)
------------------------------------
  Starting TPA DIIS iterations ... 
------------------------------------ 
   It     Res. Norm  Remark
------------------------------------
                       Guess.
    1     7.900e-01  
    2     6.467e-01  
    3     2.695e-01  
    4     1.736e-01  
    5     3.475e-02  
    6     1.514e-02  
    7     3.552e-03  
    8     1.059e-03  
    9     6.382e-04  
   10     2.540e-04  
   11     1.319e-04  
   12     5.281e-05  
   13     3.830e-05  
   14     1.728e-05  
   15     4.069e-06  
   16     1.238e-06  
   17     4.493e-07  Converged.
   ... Converged in 17 steps (norm: 4.49271e-07)
------------------------------------
  Starting TPA DIIS iterations ... 
------------------------------------ 
   It     Res. Norm  Remark
------------------------------------
                       Guess.
    1     9.248e+00  
    2     1.557e+01  
    3     2.458e+00  
    4     8.743e-01  
    5     2.409e-01  
    6     1.121e-01  
    7     3.429e-02  
    8     6.218e-03  
    9     2.657e-03  
   10     4.582e-04  
   11     1.649e-04  
   12     2.822e-05  
   13     1.746e-05  
   14     7.232e-06  
   15     4.491e-06  
   16     2.123e-06  
   17     1.036e-06  
   18     4.503e-07  Converged.
   ... Converged in 18 steps (norm: 4.50293e-07)
------------------------------------
  Starting TPA DIIS iterations ... 
------------------------------------ 
   It     Res. Norm  Remark
------------------------------------
                       Guess.
    1     8.295e+00  
    2     1.404e+01  
    3     2.331e+00  
    4     9.338e-01  
    5     2.409e-01  
    6     1.240e-01  
    7     3.546e-02  
    8     7.429e-03  
    9     2.984e-03  
   10     5.069e-04  
   11     1.843e-04  
   12     3.327e-05  
   13     1.415e-05  
   14     4.240e-06  
   15     1.913e-06  
   16     5.815e-07  Converged.
   ... Converged in 16 steps (norm: 5.81457e-07)
------------------------------------
  Starting TPA DIIS iterations ... 
------------------------------------ 
   It     Res. Norm  Remark
------------------------------------
                       Guess.
    1     8.406e-01  
    2     7.473e-01  
    3     3.371e-01  
    4     2.761e-01  
    5     4.912e-02  
    6     2.263e-02  
    7     5.868e-03  
    8     1.531e-03  
    9     1.053e-03  
   10     5.016e-04  
   11     2.672e-04  
   12     1.183e-04  
   13     8.825e-05  
   14     3.877e-05  
   15     1.018e-05  
   16     3.080e-06  
   17     9.915e-07  Converged.
   ... Converged in 17 steps (norm: 9.91479e-07)
------------------------------------
  Starting TPA DIIS iterations ... 
------------------------------------ 
   It     Res. Norm  Remark
------------------------------------
                       Guess.
    1     9.447e+00  
    2     1.601e+01  
    3     2.512e+00  
    4     9.049e-01  
    5     2.497e-01  
    6     1.165e-01  
    7     3.558e-02  
    8     6.449e-03  
    9     2.763e-03  
   10     4.766e-04  
   11     1.717e-04  
   12     2.947e-05  
   13     1.856e-05  
   14     7.859e-06  
   15     4.823e-06  
   16     2.292e-06  
   17     1.099e-06  
   18     4.800e-07  Converged.
   ... Converged in 18 steps (norm: 4.80035e-07)
------------------------------------
  Starting TPA DIIS iterations ... 
------------------------------------ 
   It     Res. Norm  Remark
------------------------------------
                       Guess.
    1     8.474e+00  
    2     1.444e+01  
    3     2.381e+00  
    4     9.663e-01  
    5     2.498e-01  
    6     1.289e-01  
    7     3.681e-02  
    8     7.710e-03  
    9     3.102e-03  
   10     5.272e-04  
   11     1.914e-04  
   12     3.494e-05  
   13     1.485e-05  
   14     4.473e-06  
   15     2.055e-06  
   16     6.225e-07  Converged.
   ... Converged in 16 steps (norm: 6.22478e-07)
------------------------------------
  Starting TPA DIIS iterations ... 
------------------------------------ 
   It     Res. Norm  Remark
------------------------------------
                       Guess.
    1     8.446e-01  
    2     7.559e-01  
    3     3.430e-01  
    4     2.855e-01  
    5     5.051e-02  
    6     2.332e-02  
    7     6.094e-03  
    8     1.582e-03  
    9     1.094e-03  
   10     5.274e-04  
   11     2.819e-04  
   12     1.253e-04  
   13     9.312e-05  
   14     4.118e-05  
   15     1.091e-05  
   16     3.317e-06  
   17     1.059e-06  
   18     3.487e-07  Converged.
   ... Converged in 18 steps (norm: 3.48741e-07)
------------------------------------
  Starting TPA DIIS iterations ... 
------------------------------------ 
   It     Res. Norm  Remark
------------------------------------
                       Guess.
    1     1.001e+01  
    2     1.728e+01  
    3     2.665e+00  
    4     9.933e-01  
    5     2.751e-01  
    6     1.292e-01  
    7     3.929e-02  
    8     7.118e-03  
    9     3.070e-03  
   10     5.298e-04  
   11     1.914e-04  
   12     3.314e-05  
   13     2.188e-05  
   14     9.838e-06  
   15     5.852e-06  
   16     2.819e-06  
   17     1.286e-06  
   18     5.662e-07  Converged.
   ... Converged in 18 steps (norm: 5.66197e-07)
------------------------------------
  Starting TPA DIIS iterations ... 
------------------------------------ 
   It     Res. Norm  Remark
------------------------------------
                       Guess.
    1     8.981e+00  
    2     1.558e+01  
    3     2.525e+00  
    4     1.060e+00  
    5     2.753e-01  
    6     1.433e-01  
    7     4.073e-02  
    8     8.524e-03  
    9     3.447e-03  
   10     5.862e-04  
   11     2.118e-04  
   12     3.994e-05  
   13     1.693e-05  
   14     5.175e-06  
   15     2.505e-06  
   16     7.484e-07  Converged.
   ... Converged in 16 steps (norm: 7.48372e-07)
------------------------------------
  Starting TPA DIIS iterations ... 
------------------------------------ 
   It     Res. Norm  Remark
------------------------------------
                       Guess.
    1     8.554e-01  
    2     7.796e-01  
    3     3.595e-01  
    4     3.120e-01  
    5     5.447e-02  
    6     2.527e-02  
    7     6.745e-03  
    8     1.737e-03  
    9     1.214e-03  
   10     6.028e-04  
   11     3.257e-04  
   12     1.461e-04  
   13     1.067e-04  
   14     4.842e-05  
   15     1.311e-05  
   16     4.066e-06  
   17     1.270e-06  
   18     4.440e-07  Converged.
   ... Converged in 18 steps (norm: 4.44025e-07)
------------------------------------
  Two-photon absorbption ...  CPU 111.87 s  wall 20.39 s
  Transition density matrix of state singlet_A_1 printed to ASCII file 'State_singlet_A_1_Transition.txt'
  Transition density matrix of state singlet_A_2 printed to ASCII file 'State_singlet_A_2_Transition.txt'
  Transition density matrix of state singlet_A_3 printed to ASCII file 'State_singlet_A_3_Transition.txt'
  Transition density matrix of state singlet_A_4 printed to ASCII file 'State_singlet_A_4_Transition.txt'
  Transition density matrix of state singlet_A_5 printed to ASCII file 'State_singlet_A_5_Transition.txt'
  Transition density matrix of state singlet_A_6 printed to ASCII file 'State_singlet_A_6_Transition.txt'
  Transition density matrix of state singlet_A_7 printed to ASCII file 'State_singlet_A_7_Transition.txt'
  Transition density matrix of state singlet_A_8 printed to ASCII file 'State_singlet_A_8_Transition.txt'
  Transition density matrix of state singlet_A_9 printed to ASCII file 'State_singlet_A_9_Transition.txt'
  Transition density matrix of state singlet_A_10 printed to ASCII file 'State_singlet_A_10_Transition.txt'
  Transition properties ...  CPU 0.14 s  wall 0.72 s
  Difference density matrix of state singlet_A_1 printed to ASCII file 'State_singlet_A_1_Difference.txt'
  Total density matrix of state singlet_A_1 printed to ASCII file 'State_singlet_A_1_Total.txt'
  Difference density matrix of state singlet_A_2 printed to ASCII file 'State_singlet_A_2_Difference.txt'
  Total density matrix of state singlet_A_2 printed to ASCII file 'State_singlet_A_2_Total.txt'
  Difference density matrix of state singlet_A_3 printed to ASCII file 'State_singlet_A_3_Difference.txt'
  Total density matrix of state singlet_A_3 printed to ASCII file 'State_singlet_A_3_Total.txt'
  Difference density matrix of state singlet_A_4 printed to ASCII file 'State_singlet_A_4_Difference.txt'
  Total density matrix of state singlet_A_4 printed to ASCII file 'State_singlet_A_4_Total.txt'
  Difference density matrix of state singlet_A_5 printed to ASCII file 'State_singlet_A_5_Difference.txt'
  Total density matrix of state singlet_A_5 printed to ASCII file 'State_singlet_A_5_Total.txt'
  Difference density matrix of state singlet_A_6 printed to ASCII file 'State_singlet_A_6_Difference.txt'
  Total density matrix of state singlet_A_6 printed to ASCII file 'State_singlet_A_6_Total.txt'
  Difference density matrix of state singlet_A_7 printed to ASCII file 'State_singlet_A_7_Difference.txt'
  Total density matrix of state singlet_A_7 printed to ASCII file 'State_singlet_A_7_Total.txt'
  Difference density matrix of state singlet_A_8 printed to ASCII file 'State_singlet_A_8_Difference.txt'
  Total density matrix of state singlet_A_8 printed to ASCII file 'State_singlet_A_8_Total.txt'
  Difference density matrix of state singlet_A_9 printed to ASCII file 'State_singlet_A_9_Difference.txt'
  Total density matrix of state singlet_A_9 printed to ASCII file 'State_singlet_A_9_Total.txt'
  Difference density matrix of state singlet_A_10 printed to ASCII file 'State_singlet_A_10_Difference.txt'
  Total density matrix of state singlet_A_10 printed to ASCII file 'State_singlet_A_10_Total.txt'
  Properties ...  CPU 0.26 s  wall 0.94 s
  ISR TDMS ...  CPU 7.75 s  wall 2.68 s
  ISR transition properties ...  CPU 0.15 s  wall 0.07 s
  Sum-over-states TPA ...  CPU 0.00 s  wall 0.00 s

--------------------------------------------------------------------------------
                   State-averaged natural transition orbitals
--------------------------------------------------------------------------------
--------------------------------------------------------------------------------
  SA-NTO decomposition ...  CPU 0.01 s  wall 0.03 s

--------------------------------------------------------------------------------
                             Excited State Summary
--------------------------------------------------------------------------------
--------------------------------------------------------------------------------

  Excited state 1 (singlet, A)                                     [converged]
  ----------------------------------------------------------------------------
  Term symbol:  2 (1) A                                     R^2 =  4.85137e-13

  Total energy:                                            -77.9871824225 a.u.
  Excitation energy:                                               8.977918 eV

  Osc. strength:                                                      0.456184
  Trans. dip. moment [a.u.]:           [  -1.050482,    0.985050,    0.012284]
  <i|r^2|0> [a.u.]:                    [  -6.217607,    0.214413,    0.007108]
  Two-photon absorption cross-section (SoS) [a.u.]:                   0.047480
  Two-photon absorption matrix (SoS) [a.u.]:
                                       |   -0.005794    0.038767    0.020994 |
                                       |    0.038767    0.073628    0.021486 |
                                       |    0.020994    0.021486   -0.015740 |
  Two-photon absorption cross-section [a.u.]:                         0.032345
  Two-photon absorption matrix [a.u.]:
                                       |   -0.059517    0.020171    0.001882 |
                                       |    0.020171    0.039341   -0.009045 |
                                       |    0.001882   -0.009045   -0.028641 |

  Dip. moment [a.u.]:                  [   0.001865,    0.005137,    0.002103]
  Total dipole [Debye]:                                               0.014883
  <r^2> [a.u.]:                        [ 176.111852,   34.870487,   11.871525]
  Total <r^2> [a.u.]:                                               222.853865

  V1^2 = 0.9713, V2^2 = 0.0287

  Important amplitudes:
      occ i     occ j     vir a      vir b          v   
    -----------------------------------------------------
     8 (A) A              9 (A) A                 0.6807
     4 (A) A             10 (A) A                 0.0627
     7 (A) A             16 (A) A                 0.0585
     6 (A) A             14 (A) A                 0.0566
     5 (A) A             13 (A) A                 0.0532
     6 (A) A             23 (A) A                 0.0468
     8 (A) A             20 (A) A                 0.0340
     3 (A) A             12 (A) A                -0.0276
     7 (A) A              9 (A) A                -0.0258
     6 (A) A             19 (A) A                 0.0253
     5 (A) A             22 (A) A                -0.0219
     4 (A) A             24 (A) A                 0.0191
     6 (A) A             12 (A) A                 0.0181
     8 (A) A   8 (A) B   17 (A) A   20 (A) B     -0.0181
     7 (A) A             11 (A) A                -0.0180
     3 (A) A             26 (A) A                 0.0176
     8 (A) A   8 (A) B    9 (A) A   28 (A) B     -0.0163
     6 (A) A             26 (A) A                 0.0161
     7 (A) A             21 (A) A                -0.0156
     3 (A) A             14 (A) A                 0.0136
     3 (A) A   4 (A) B    9 (A) A    9 (A) B     -0.0127
     3 (A) A             19 (A) A                 0.0111
     8 (A) A   8 (A) B   18 (A) A   19 (A) B     -0.0110
     7 (A) A             32 (A) A                -0.0096
     7 (A) A             36 (A) A                 0.0086
     3 (A) A             23 (A) A                 0.0078
     8 (A) A   8 (A) B   25 (A) A   29 (A) B     -0.0073
     3 (A) A             27 (A) A                 0.0068
     6 (A) A             16 (A) A                 0.0068
     6 (A) A             40 (A) A                -0.0067
     5 (A) A   8 (A) B   11 (A) A    9 (A) B      0.0065
     5 (A) A             10 (A) A                -0.0064
     6 (A) A             22 (A) A                -0.0063
     3 (A) A   6 (A) B    9 (A) A   28 (A) B     -0.0063
     5 (A) A   8 (A) B   16 (A) A    9 (A) B      0.0060
     7 (A) A   8 (A) B   13 (A) A   20 (A) B      0.0060
     5 (A) A   8 (A) B   11 (A) A   20 (A) B     -0.0060
     5 (A) A   7 (A) B    9 (A) A    9 (A) B      0.0059
     3 (A) A   5 (A) B    9 (A) A   25 (A) B     -0.0058
     7 (A) A             23 (A) A                -0.0058
    -----------------------------------------------------

  Density matrix analysis:
  ------------------------
  NOs
    Occupation of frontier NOs:
       0.9496   1.0219
    Number of electrons: 16.000000
    Number of unpaired electrons: n_u =  2.31273, n_u,nl =  2.03207
    NO participation ratio (PR_NO):  2.863059
  
  
  Mulliken Population Analysis
  Atom      Charge (e)              h+              e-           Del q
  --------------------------------------------------------------------
   1 H        0.057325        0.021684       -0.012385        0.009300
   2 C       -0.129274        0.491969       -0.510819       -0.018850
   3 H        0.061990        0.021661       -0.012700        0.008961
   4 C       -0.105357        0.492310       -0.509356       -0.017047
   5 H        0.055617        0.021198       -0.012904        0.008294
   6 H        0.059699        0.021812       -0.012470        0.009342
  --------------------------------------------------------------------
  Sum:       -0.000000        1.070635       -1.070635       -0.000000
  
  Multipole moment analysis of the density matrix
    Molecular charge:                      0.000000
    Number of electrons:                   16.000000
      Center of electronic charge [Ang]: [ -1.560638,  -0.050772,   0.001909]
    Total nuclear charge:                  16.000000
      Center of nuclear charge [Ang]:    [ -1.560576,  -0.050602,   0.001978]
    Dipole moment [D]:                     0.014883
      Cartesian components [D]:          [  0.004740,   0.013056,   0.005346]
    RMS size of the density [Ang]:         1.209201
      Cartesian components [Ang]:        [  0.804165,   0.779563,   0.455817]
  
  Exciton analysis of the difference density matrix
    <r_h> [Ang]:                  [ -1.560446,  -0.047731,   0.000875]
    <r_e> [Ang]:                  [ -1.559827,  -0.047244,   0.000938]
    |<r_e - r_h>| [Ang]:            0.000790
    Hole size [Ang]:                1.282439
      Cartesian components [Ang]: [  0.731756,   0.707340,   0.780291]
    Electron size [Ang]:            1.464553
      Cartesian components [Ang]: [  0.862782,   0.820582,   0.852742]

  Transition density matrix analysis:
  -----------------------------------
  
  CT numbers (Mulliken)
    omega =     0.9533
    <Phe> =    -0.1531
  
  Exciton analysis of the transition density matrix
    Trans. dipole moment [D]:             1.830228
      Cartesian components [D]:         [ -1.335030,   1.251874,   0.015612]
    <r_h> [Ang]:                        [ -1.560834,  -0.046234,   0.001291]
    <r_e> [Ang]:                        [ -1.559906,  -0.047644,   0.000856]
    |<r_e - r_h>| [Ang]:                  0.001743
    Hole size [Ang]:                      1.204244
      Cartesian components [Ang]:       [  0.646928,   0.625617,   0.800182]
    Electron size [Ang]:                  1.490878
      Cartesian components [Ang]:       [  0.875290,   0.830795,   0.875422]
    RMS electron-hole separation [Ang]:   1.929424
      Cartesian components [Ang]:       [  1.112457,   1.055020,   1.171344]
    Covariance(r_h, r_e) [Ang^2]:        -0.024876
    Correlation coefficient:             -0.013856
    Center-of-mass size [Ang]:            0.951731
      Cartesian components [Ang]:       [  0.531916,   0.512389,   0.600263]

  Decomposition into state-averaged NTOs
    H- 0 -> L+ 0:  0.6697 ( 89.7%)
    H- 2 -> L+ 5: -0.0780 (  1.2%)
                   omega =  95.3%
  ----------------------------------------------------------------------------


  Excited state 2 (singlet, A)                                     [converged]
  ----------------------------------------------------------------------------
  Term symbol:  3 (1) A                                     R^2 =  8.60832e-14

  Total energy:                                            -77.9861671723 a.u.
  Excitation energy:                                               9.005544 eV

  Osc. strength:                                                      0.001024
  Trans. dip. moment [a.u.]:           [   0.037687,   -0.041330,    0.038885]
  <i|r^2|0> [a.u.]:                    [   0.174990,   -0.112397,    0.150912]
  Two-photon absorption cross-section (SoS) [a.u.]:                   4.038120
  Two-photon absorption matrix (SoS) [a.u.]:
                                       |   -0.051382   -0.053448    0.482710 |
                                       |   -0.053448   -0.064837    0.509682 |
                                       |    0.482710    0.509682    0.106563 |
  Two-photon absorption cross-section [a.u.]:                         0.330366
  Two-photon absorption matrix [a.u.]:
                                       |    0.018014    0.008702    0.025434 |
                                       |    0.008702   -0.000265   -0.200477 |
                                       |    0.025434   -0.200477   -0.020848 |

  Dip. moment [a.u.]:                  [   0.072822,   -0.034730,    0.005508]
  Total dipole [Debye]:                                               0.205544
  <r^2> [a.u.]:                        [ 175.334848,   32.835784,   13.129687]
  Total <r^2> [a.u.]:                                               221.300319

  V1^2 = 0.9554, V2^2 = 0.0446

  Important amplitudes:
      occ i     occ j     vir a      vir b          v   
    -----------------------------------------------------
     7 (A) A              9 (A) A                -0.6662
     8 (A) A             11 (A) A                 0.1420
     7 (A) A             20 (A) A                -0.0762
     8 (A) A             10 (A) A                -0.0727
     5 (A) A   8 (A) B    9 (A) A    9 (A) B     -0.0299
     8 (A) A             16 (A) A                 0.0272
     8 (A) A              9 (A) A                -0.0260
     8 (A) A             21 (A) A                 0.0168
     5 (A) A             28 (A) A                -0.0145
     6 (A) A              9 (A) A                 0.0140
     4 (A) A   7 (A) B    9 (A) A   19 (A) B      0.0134
     5 (A) A   7 (A) B    9 (A) A   16 (A) B      0.0131
     7 (A) A   8 (A) B   20 (A) A   17 (A) B      0.0105
     8 (A) A             12 (A) A                 0.0098
     5 (A) A   8 (A) B    9 (A) A   20 (A) B     -0.0093
     7 (A) A   8 (A) A    9 (A) A   28 (A) A     -0.0093
     4 (A) A   6 (A) B    9 (A) A   16 (A) B      0.0088
     5 (A) A   6 (A) A    9 (A) A   23 (A) A      0.0087
     6 (A) A   7 (A) B    9 (A) A   18 (A) B      0.0083
     8 (A) A   7 (A) B    9 (A) A   28 (A) B      0.0083
     4 (A) A   5 (A) A    9 (A) A   10 (A) A     -0.0082
     5 (A) A   6 (A) A    9 (A) A   14 (A) A      0.0082
     3 (A) A   7 (A) B    9 (A) A   18 (A) B     -0.0078
     5 (A) A   6 (A) B    9 (A) A   23 (A) B      0.0078
     5 (A) A   7 (A) A    9 (A) A   16 (A) A      0.0077
     5 (A) A   6 (A) B    9 (A) A   19 (A) B      0.0076
     4 (A) A   8 (A) B    9 (A) A   25 (A) B     -0.0075
     4 (A) A   7 (A) B   19 (A) A    9 (A) B      0.0073
     7 (A) A   8 (A) B   17 (A) A   20 (A) B      0.0072
     5 (A) A   5 (A) B    9 (A) A   13 (A) B      0.0071
     7 (A) A   8 (A) B   19 (A) A   18 (A) B      0.0070
     4 (A) A   5 (A) B    9 (A) A   18 (A) B      0.0068
     5 (A) A   8 (A) A    9 (A) A   20 (A) A     -0.0068
     3 (A) A              9 (A) A                 0.0066
     7 (A) A   7 (A) B   20 (A) A   22 (A) B      0.0065
     5 (A) A   7 (A) B   11 (A) A   20 (A) B      0.0061
     4 (A) A   7 (A) A    9 (A) A   19 (A) A      0.0061
     4 (A) A   5 (A) B   10 (A) A    9 (A) B      0.0060
     4 (A) A   7 (A) B    9 (A) A   14 (A) B     -0.0059
     7 (A) A   8 (A) B   17 (A) A    9 (A) B      0.0059
    -----------------------------------------------------

  Density matrix analysis:
  ------------------------
  NOs
    Occupation of frontier NOs:
       0.9494   1.0595
    Number of electrons: 16.000000
    Number of unpaired electrons: n_u =  2.35150, n_u,nl =  2.06671
    NO participation ratio (PR_NO):  3.059957
  
  
  Mulliken Population Analysis
  Atom      Charge (e)              h+              e-           Del q
  --------------------------------------------------------------------
   1 H        0.138619        0.103340       -0.012746        0.090594
   2 C       -0.304143        0.285210       -0.478929       -0.193720
   3 H        0.172705        0.159551       -0.039875        0.119676
   4 C       -0.288984        0.260307       -0.460980       -0.200673
   5 H        0.162449        0.131486       -0.016360        0.115126
   6 H        0.119353        0.102269       -0.033272        0.068997
  --------------------------------------------------------------------
  Sum:       -0.000000        1.042162       -1.042162        0.000000
  
  Multipole moment analysis of the density matrix
    Molecular charge:                      0.000000
    Number of electrons:                   16.000000
      Center of electronic charge [Ang]: [ -1.562985,  -0.049454,   0.001796]
    Total nuclear charge:                  16.000000
      Center of nuclear charge [Ang]:    [ -1.560576,  -0.050602,   0.001978]
    Dipole moment [D]:                     0.205544
      Cartesian components [D]:          [  0.185095,  -0.088274,   0.014000]
    RMS size of the density [Ang]:         1.194897
      Cartesian components [Ang]:        [  0.791044,   0.756465,   0.479364]
  
  Exciton analysis of the difference density matrix
    <r_h> [Ang]:                  [ -1.544279,  -0.111000,  -0.000294]
    <r_e> [Ang]:                  [ -1.579673,  -0.090257,  -0.001958]
    |<r_e - r_h>| [Ang]:            0.041058
    Hole size [Ang]:                1.486247
      Cartesian components [Ang]: [  0.940399,   1.054402,   0.461320]
    Electron size [Ang]:            1.482227
      Cartesian components [Ang]: [  0.881845,   0.864244,   0.820017]

  Transition density matrix analysis:
  -----------------------------------
  
  CT numbers (Mulliken)
    omega =     0.9237
    <Phe> =    -0.0117
  
  Exciton analysis of the transition density matrix
    Trans. dipole moment [D]:             0.086574
      Cartesian components [D]:         [  0.047895,  -0.052526,   0.049418]
    <r_h> [Ang]:                        [ -1.540685,  -0.118419,  -0.000498]
    <r_e> [Ang]:                        [ -1.583772,  -0.085866,  -0.002231]
    |<r_e - r_h>| [Ang]:                  0.054030
    Hole size [Ang]:                      1.512187
      Cartesian components [Ang]:       [  0.954120,   1.082987,   0.451113]
    Electron size [Ang]:                  1.479873
      Cartesian components [Ang]:       [  0.874649,   0.852905,   0.835205]
    RMS electron-hole separation [Ang]:   2.098022
      Cartesian components [Ang]:       [  1.278998,   1.366136,   0.948436]
    Covariance(r_h, r_e) [Ang^2]:         0.038979
    Correlation coefficient:              0.017418
    Center-of-mass size [Ang]:            1.067086
      Cartesian components [Ang]:       [  0.655120,   0.695584,   0.475030]

  Decomposition into state-averaged NTOs
    H- 1 -> L+ 0: -0.6590 ( 86.8%)
    H- 0 -> L+ 2:  0.1501 (  4.5%)
                   omega =  92.4%
  ----------------------------------------------------------------------------


  Excited state 3 (singlet, A)                                     [converged]
  ----------------------------------------------------------------------------
  Term symbol:  4 (1) A                                     R^2 =  3.92494e-13

  Total energy:                                            -77.9761755629 a.u.
  Excitation energy:                                               9.277430 eV

  Osc. strength:                                                      0.023136
  Trans. dip. moment [a.u.]:           [   0.021249,    0.012910,   -0.318075]
  <i|r^2|0> [a.u.]:                    [   0.122108,   -0.009292,    0.015105]
  Two-photon absorption cross-section (SoS) [a.u.]:                   0.867689
  Two-photon absorption matrix (SoS) [a.u.]:
                                       |    0.032549    0.023015   -0.202329 |
                                       |    0.023015    0.020308   -0.256083 |
                                       |   -0.202329   -0.256083   -0.034524 |
  Two-photon absorption cross-section [a.u.]:                         0.550674
  Two-photon absorption matrix [a.u.]:
                                       |    0.028074    0.015525   -0.134827 |
                                       |    0.015525    0.026218   -0.221532 |
                                       |   -0.134827   -0.221532   -0.030174 |

  Dip. moment [a.u.]:                  [   0.234346,    0.420071,    0.033779]
  Total dipole [Debye]:                                               1.225637
  <r^2> [a.u.]:                        [ 181.934035,   39.977554,   11.022183]
  Total <r^2> [a.u.]:                                               232.933772

  V1^2 = 0.9582, V2^2 = 0.0418

  Important amplitudes:
      occ i     occ j     vir a      vir b          v   
    -----------------------------------------------------
     8 (A) A             10 (A) A                 0.6827
     7 (A) A              9 (A) A                -0.0821
     8 (A) A             24 (A) A                 0.0496
     8 (A) A             11 (A) A                -0.0370
     8 (A) A             18 (A) A                -0.0315
     4 (A) A              9 (A) A                 0.0243
     8 (A) A   8 (A) B    9 (A) A   12 (A) B     -0.0211
     8 (A) A   8 (A) B   10 (A) A   17 (A) B      0.0174
     5 (A) A   8 (A) B   11 (A) A   10 (A) B      0.0167
     8 (A) A             15 (A) A                 0.0147
     7 (A) A   8 (A) B   13 (A) A   10 (A) B     -0.0142
     8 (A) A             13 (A) A                -0.0132
     6 (A) A   8 (A) A   10 (A) A   15 (A) A     -0.0111
     4 (A) A   8 (A) B   12 (A) A   10 (A) B     -0.0111
     6 (A) A   8 (A) B   15 (A) A   10 (A) B      0.0108
     8 (A) A             21 (A) A                -0.0107
     7 (A) A   8 (A) B   22 (A) A   10 (A) B      0.0107
     4 (A) A   8 (A) A   10 (A) A   12 (A) A      0.0107
     7 (A) A   8 (A) A   10 (A) A   22 (A) A     -0.0098
     7 (A) A   8 (A) A   10 (A) A   13 (A) A      0.0098
     5 (A) A   8 (A) A   10 (A) A   11 (A) A     -0.0097
     5 (A) A   8 (A) B   21 (A) A   10 (A) B      0.0092
     6 (A) A   8 (A) B   10 (A) A   10 (A) B     -0.0091
     8 (A) A             16 (A) A                -0.0091
     7 (A) A             20 (A) A                -0.0088
     7 (A) A   8 (A) A   12 (A) A   16 (A) A     -0.0082
     6 (A) A   8 (A) A   10 (A) A   18 (A) A     -0.0082
     5 (A) A   8 (A) A   10 (A) A   21 (A) A     -0.0079
     3 (A) A   4 (A) B   10 (A) A    9 (A) B     -0.0078
     4 (A) A   8 (A) B   19 (A) A   10 (A) B      0.0075
     7 (A) A   8 (A) B   16 (A) A   12 (A) B      0.0070
     8 (A) A   8 (A) B    9 (A) A   19 (A) B      0.0070
     8 (A) A   8 (A) B   10 (A) A   28 (A) B     -0.0070
     3 (A) A   8 (A) B   10 (A) A   10 (A) B      0.0070
     5 (A) A   8 (A) B   10 (A) A   11 (A) B      0.0070
     3 (A) A   8 (A) A   10 (A) A   24 (A) A     -0.0069
     8 (A) A   8 (A) B    9 (A) A   23 (A) B     -0.0069
     3 (A) A   8 (A) B   10 (A) A   18 (A) B     -0.0068
     8 (A) A             22 (A) A                 0.0068
     6 (A) A   8 (A) B   18 (A) A   10 (A) B      0.0062
    -----------------------------------------------------

  Density matrix analysis:
  ------------------------
  NOs
    Occupation of frontier NOs:
       0.9714   0.9957
    Number of electrons: 16.000000
    Number of unpaired electrons: n_u =  2.31364, n_u,nl =  2.03112
    NO participation ratio (PR_NO):  2.754266
  
  
  Mulliken Population Analysis
  Atom      Charge (e)              h+              e-           Del q
  --------------------------------------------------------------------
   1 H       -0.110810        0.055817       -0.214652       -0.158835
   2 C        0.303999        0.531760       -0.117337        0.414423
   3 H       -0.221191        0.055625       -0.329845       -0.274220
   4 C        0.319624        0.519641       -0.111706        0.407935
   5 H       -0.097921        0.057191       -0.202435       -0.145244
   6 H       -0.193702        0.053971       -0.298030       -0.244059
  --------------------------------------------------------------------
  Sum:        0.000000        1.274004       -1.274004        0.000000
  
  Multipole moment analysis of the density matrix
    Molecular charge:                      0.000000
    Number of electrons:                   16.000000
      Center of electronic charge [Ang]: [ -1.568327,  -0.064496,   0.000861]
    Total nuclear charge:                  16.000000
      Center of nuclear charge [Ang]:    [ -1.560576,  -0.050602,   0.001978]
    Dipole moment [D]:                     1.225636
      Cartesian components [D]:          [  0.595649,   1.067715,   0.085859]
    RMS size of the density [Ang]:         1.270018
      Cartesian components [Ang]:        [  0.851188,   0.833978,   0.439212]
  
  Exciton analysis of the difference density matrix
    <r_h> [Ang]:                  [ -1.560037,  -0.058895,   0.000971]
    <r_e> [Ang]:                  [ -1.656082,  -0.230836,  -0.012133]
    |<r_e - r_h>| [Ang]:            0.197382
    Hole size [Ang]:                1.408101
      Cartesian components [Ang]: [  0.835848,   0.818547,   0.783637]
    Electron size [Ang]:            2.063546
      Cartesian components [Ang]: [  1.357729,   1.374085,   0.725730]

  Transition density matrix analysis:
  -----------------------------------
  
  CT numbers (Mulliken)
    omega =     0.9262
    <Phe> =    -0.0113
  
  Exciton analysis of the transition density matrix
    Trans. dipole moment [D]:             0.405466
      Cartesian components [D]:         [  0.027005,   0.016407,  -0.404233]
    <r_h> [Ang]:                        [ -1.556757,  -0.041856,   0.001675]
    <r_e> [Ang]:                        [ -1.688248,  -0.289042,  -0.016692]
    |<r_e - r_h>| [Ang]:                  0.280586
    Hole size [Ang]:                      1.206519
      Cartesian components [Ang]:       [  0.639572,   0.619244,   0.814354]
    Electron size [Ang]:                  2.265523
      Cartesian components [Ang]:       [  1.488236,   1.509504,   0.799466]
    RMS electron-hole separation [Ang]:   2.571917
      Cartesian components [Ang]:       [  1.617413,   1.643094,   1.139725]
    Covariance(r_h, r_e) [Ang^2]:         0.026127
    Correlation coefficient:              0.009559
    Center-of-mass size [Ang]:            1.288462
      Cartesian components [Ang]:       [  0.813797,   0.819370,   0.571402]

  Decomposition into state-averaged NTOs
    H- 0 -> L+ 1: -0.6645 ( 88.3%)
    H- 0 -> L+ 2: -0.1177 (  2.8%)
    H- 1 -> L+ 0: -0.0813 (  1.3%)
                   omega =  92.6%
  ----------------------------------------------------------------------------


  Excited state 4 (singlet, A)                                     [converged]
  ----------------------------------------------------------------------------
  Term symbol:  5 (1) A                                     R^2 =  3.83658e-13

  Total energy:                                            -77.9551568681 a.u.
  Excitation energy:                                               9.849378 eV

  Osc. strength:                                                      0.000956
  Trans. dip. moment [a.u.]:           [  -0.001562,   -0.005492,    0.062697]
  <i|r^2|0> [a.u.]:                    [   0.008679,    0.016752,   -0.035983]
  Two-photon absorption cross-section (SoS) [a.u.]:                 130.361049
  Two-photon absorption matrix (SoS) [a.u.]:
                                       |    0.254959    0.299550   -2.743185 |
                                       |    0.299550    0.357394   -2.897784 |
                                       |   -2.743185   -2.897784   -0.611265 |
  Two-photon absorption cross-section [a.u.]:                        75.686381
  Two-photon absorption matrix [a.u.]:
                                       |    0.160593    0.227280   -2.030713 |
                                       |    0.227280    0.304822   -2.262136 |
                                       |   -2.030713   -2.262136   -0.466331 |

  Dip. moment [a.u.]:                  [  -0.398146,   -0.404028,   -0.045450]
  Total dipole [Debye]:                                               1.446395
  <r^2> [a.u.]:                        [ 178.224879,   40.261610,   10.715334]
  Total <r^2> [a.u.]:                                               229.201823

  V1^2 = 0.9634, V2^2 = 0.0366

  Important amplitudes:
      occ i     occ j     vir a      vir b          v   
    -----------------------------------------------------
     8 (A) A             11 (A) A                -0.6695
     7 (A) A              9 (A) A                -0.1390
     8 (A) A             21 (A) A                -0.0767
     8 (A) A             16 (A) A                -0.0667
     8 (A) A             10 (A) A                -0.0540
     5 (A) A   8 (A) B   11 (A) A   11 (A) B     -0.0159
     8 (A) A   8 (A) B    9 (A) A   13 (A) B     -0.0158
     8 (A) A             12 (A) A                -0.0145
     8 (A) A   8 (A) B   11 (A) A   17 (A) B     -0.0141
     6 (A) A              9 (A) A                 0.0136
     7 (A) A   8 (A) B   13 (A) A   11 (A) B      0.0128
     7 (A) A             20 (A) A                -0.0125
     4 (A) A   8 (A) B   12 (A) A   11 (A) B      0.0111
     5 (A) A   8 (A) A   11 (A) A   21 (A) A      0.0109
     8 (A) A   8 (A) B    9 (A) A   22 (A) B      0.0105
     8 (A) A             14 (A) A                -0.0098
     7 (A) A   8 (A) A   11 (A) A   22 (A) A      0.0094
     6 (A) A   8 (A) B   15 (A) A   11 (A) B     -0.0092
     8 (A) A             24 (A) A                -0.0092
     6 (A) A   8 (A) B   10 (A) A   11 (A) B      0.0090
     7 (A) A   8 (A) B   22 (A) A   11 (A) B     -0.0089
     8 (A) A             19 (A) A                 0.0085
     3 (A) A   4 (A) B   11 (A) A    9 (A) B      0.0082
     6 (A) A   8 (A) A   11 (A) A   15 (A) A      0.0082
     3 (A) A   8 (A) B   11 (A) A   18 (A) B      0.0081
     7 (A) A   8 (A) A   13 (A) A   16 (A) A     -0.0077
     7 (A) A   8 (A) A   11 (A) A   13 (A) A     -0.0075
     4 (A) A   8 (A) B   19 (A) A   11 (A) B     -0.0071
     5 (A) A   8 (A) B   21 (A) A   11 (A) B     -0.0070
     4 (A) A   8 (A) A   11 (A) A   12 (A) A     -0.0063
     5 (A) A   8 (A) B    9 (A) A    9 (A) B     -0.0059
     3 (A) A   6 (A) B   11 (A) A   28 (A) B      0.0059
     6 (A) A   8 (A) A   11 (A) A   18 (A) A      0.0057
     3 (A) A   8 (A) B   11 (A) A   30 (A) B      0.0057
     6 (A) A   8 (A) B   18 (A) A   11 (A) B     -0.0056
     3 (A) A   8 (A) A   11 (A) A   18 (A) A      0.0056
     7 (A) A   8 (A) B   16 (A) A   13 (A) B      0.0055
     3 (A) A   5 (A) B   11 (A) A   25 (A) B      0.0055
     8 (A) A   8 (A) B   20 (A) A   22 (A) B      0.0053
     7 (A) A   8 (A) B   12 (A) A   10 (A) B     -0.0053
    -----------------------------------------------------

  Density matrix analysis:
  ------------------------
  NOs
    Occupation of frontier NOs:
       0.9476   1.0218
    Number of electrons: 16.000000
    Number of unpaired electrons: n_u =  2.31693, n_u,nl =  2.04448
    NO participation ratio (PR_NO):  2.873381
  
  
  Mulliken Population Analysis
  Atom      Charge (e)              h+              e-           Del q
  --------------------------------------------------------------------
   1 H       -0.199351        0.045109       -0.292485       -0.247376
   2 C        0.262289        0.503335       -0.130622        0.372712
   3 H       -0.070788        0.047265       -0.171082       -0.123817
   4 C        0.288385        0.500928       -0.124233        0.376695
   5 H       -0.232183        0.047563       -0.327069       -0.279506
   6 H       -0.048352        0.043388       -0.142097       -0.098709
  --------------------------------------------------------------------
  Sum:       -0.000000        1.187588       -1.187588       -0.000000
  
  Multipole moment analysis of the density matrix
    Molecular charge:                      -0.000000
    Number of electrons:                   16.000000
      Center of electronic charge [Ang]: [ -1.547408,  -0.037240,   0.003481]
    Total nuclear charge:                  16.000000
      Center of nuclear charge [Ang]:    [ -1.560576,  -0.050602,   0.001978]
    Dipole moment [D]:                     1.446395
      Cartesian components [D]:          [ -1.011986,  -1.026936,  -0.115522]
    RMS size of the density [Ang]:         1.271051
      Cartesian components [Ang]:        [  0.851341,   0.838608,   0.433042]
  
  Exciton analysis of the difference density matrix
    <r_h> [Ang]:                  [ -1.547737,  -0.039029,   0.002648]
    <r_e> [Ang]:                  [ -1.368938,   0.143729,   0.023894]
    |<r_e - r_h>| [Ang]:            0.256556
    Hole size [Ang]:                1.384989
      Cartesian components [Ang]: [  0.809084,   0.802038,   0.787599]
    Electron size [Ang]:            2.089506
      Cartesian components [Ang]: [  1.364173,   1.432229,   0.673638]

  Transition density matrix analysis:
  -----------------------------------
  
  CT numbers (Mulliken)
    omega =     0.9305
    <Phe> =    -0.0139
  
  Exciton analysis of the transition density matrix
    Trans. dipole moment [D]:             0.080010
      Cartesian components [D]:         [ -0.001986,  -0.006980,   0.079680]
    <r_h> [Ang]:                        [ -1.559333,  -0.049485,   0.001141]
    <r_e> [Ang]:                        [ -1.330026,   0.181229,   0.028251]
    |<r_e - r_h>| [Ang]:                  0.326414
    Hole size [Ang]:                      1.214380
      Cartesian components [Ang]:       [  0.646431,   0.638840,   0.805437]
    Electron size [Ang]:                  2.226120
      Cartesian components [Ang]:       [  1.449761,   1.529815,   0.716567]
    RMS electron-hole separation [Ang]:   2.545988
      Cartesian components [Ang]:       [  1.595893,   1.665362,   1.077845]
    Covariance(r_h, r_e) [Ang^2]:         0.027411
    Correlation coefficient:              0.010140
    Center-of-mass size [Ang]:            1.273298
      Cartesian components [Ang]:       [  0.797664,   0.833172,   0.539300]

  Decomposition into state-averaged NTOs
    H- 0 -> L+ 2: -0.6530 ( 85.3%)
    H- 1 -> L+ 0: -0.1372 (  3.8%)
    H- 0 -> L+ 1:  0.1328 (  3.5%)
                   omega =  93.0%
  ----------------------------------------------------------------------------


  Excited state 5 (singlet, A)                                     [converged]
  ----------------------------------------------------------------------------
  Term symbol:  6 (1) A                                     R^2 =  1.70263e-13

  Total energy:                                            -77.9358426677 a.u.
  Excitation energy:                                              10.374944 eV

  Osc. strength:                                                      0.000065
  Trans. dip. moment [a.u.]:           [   0.000334,   -0.002700,    0.015814]
  <i|r^2|0> [a.u.]:                    [  -0.076269,    0.081265,   -0.001991]
  Two-photon absorption cross-section (SoS) [a.u.]:                 266.791089
  Two-photon absorption matrix (SoS) [a.u.]:
                                       |   -0.407081   -0.118554    4.381124 |
                                       |   -0.118554    0.453456   -3.735532 |
                                       |    4.381124   -3.735532   -0.037270 |
  Two-photon absorption cross-section [a.u.]:                       155.034783
  Two-photon absorption matrix [a.u.]:
[...]
    16   -1.677314645078e-03
    17   -1.431602294653e-03
    18   -2.970073268979e-03
    19   -3.020224550370e-03
    20    1.525532390344e-02
    21    9.886226678269e-01
    22    7.012404738752e-04
    23    1.332711421664e-02
    24    7.665626132101e-04
    25    6.750496855826e-02
    26   -4.775302514611e-02
    27   -1.378307853292e+00
    28    1.063490245550e-01
    29   -8.370449637787e-02
    30    6.980103199742e-04
    31    4.111051481670e-01
    32   -3.155698435994e-01
    33    3.068703226926e-03
    34    1.482943291316e-02
    35   -1.443580246465e-03
    36   -1.641934590065e-03
    37    3.389099241370e-05
    38   -2.801281699968e-03
    39    3.587674406679e-03
    40    8.264166126533e-01
    41    6.561884094636e-04
    42   -1.251967065583e-02
    43   -6.937476653063e-04
    44    1.508530694919e-02
    45    9.883688604995e-01
    46    1.479337503655e-02
    47    4.090439301142e-04
    48    7.551018225401e-04
Sym=X
Ene= 0.230606
Spin=Alpha
Occup=0
     1    2.542582571691e-02
     2    1.237530239973e+00
     3   -1.418397704906e-02
     4   -4.005477077398e-03
     5   -9.177687070704e-04
     6    3.817523191175e-03
     7   -5.758594225431e-03
     8   -8.052973994163e-02
     9   -1.574181531969e-01
    10   -1.629910868028e-01
    11   -1.703854156685e-02
    12   -5.802797347087e-01
    13   -4.968230969432e-01
    14   -5.669749200429e-02
    15    6.539557745889e-04
    16   -1.217713476149e-04
    17   -2.473815483394e-04
    18    1.127402747557e-03
    19   -5.970011388313e-04
    20   -3.407334148480e-02
    21   -1.087682670699e+00
    22   -1.494838583805e-03
    23   -1.220711232950e-02
    24   -7.771091334225e-04
    25    5.377916142057e-03
    26   -6.420350086939e-05
    27   -1.762553473764e-01
    28   -1.404243088105e-01
    29   -1.701609108006e-01
    30   -1.692130618046e-02
    31   -5.205877708586e-01
    32   -5.718464197217e-01
    33   -5.906729483810e-02
    34    3.009350701565e-03
    35   -4.191517150942e-04
    36   -1.639654423735e-04
    37   -2.966457234484e-03
    38   -1.450137152454e-03
    39    3.070709743210e-02
    40    1.271708969728e+00
    41   -2.345582183772e-03
    42   -1.559599719114e-02
    43   -1.041541023423e-03
    44   -2.978625779260e-02
    45   -1.099377216304e+00
    46   -1.108763360103e-02
    47   -3.372622462720e-03
    48   -7.446114060719e-04
Sym=X
Ene= 0.238605
Spin=Alpha
Occup=0
     1   -1.884841569205e-02
     2   -1.117787175884e+00
     3    1.737058020496e-02
     4    9.074301976050e-03
     5    1.443517399803e-03
     6   -8.386767286999e-02
     7    7.802172885936e-02
     8    1.505791695223e+00
     9    5.920219693841e-02
    10   -5.949602908356e-02
    11    3.484525857708e-04
    12    2.638883699428e-01
    13   -2.262788329376e-01
    14    3.090635056075e-03
    15   -2.138885436299e-02
    16    2.620894886895e-03
    17    2.668993873381e-03
    18    1.202296797005e-03
    19    1.222672721242e-02
    20   -1.666927358096e-02
    21   -1.003585140878e+00
    22   -9.019914690385e-03
    23   -1.493632532686e-02
    24   -1.248941121627e-03
    25    8.739476793179e-02
    26   -8.212679801681e-02
    27   -1.592014248151e+00
    28    6.431018750842e-02
    29   -5.589737151031e-02
    30   -7.985094831711e-04
    31    2.606140606020e-01
    32   -2.485282264665e-01
    33   -4.915497797218e-03
    34    2.305083352272e-02
    35   -2.583770636684e-03
    36   -3.111374111799e-03
    37    3.257660777655e-04
    38   -1.301660982767e-02
    39    1.711561367874e-02
    40    1.104292258023e+00
    41   -8.373112588006e-03
    42   -1.769075174268e-02
    43   -1.479048678405e-03
    44    1.430720938680e-02
    45    1.127648963214e+00
    46    1.730182362133e-02
    47    9.437444526390e-03
    48    1.352359317128e-03
Sym=X
Ene= 0.304592
Spin=Alpha
Occup=0
     1   -2.578085241757e-02
     2    1.713465020050e+00
     3   -2.312688087046e-02
     4    2.275188703148e-04
     5   -1.093175824796e-03
     6   -8.134609598520e-04
     7    1.406136652904e-03
     8   -7.074547836420e-02
     9   -1.355369996771e-01
    10   -1.399829574241e-01
    11   -1.467602287749e-02
    12   -1.162101783052e+00
    13   -1.180249873164e+00
    14   -1.251280473885e-01
    15    8.641214007802e-04
    16   -1.945045816371e-03
    17    1.471088161332e-03
    18   -3.170497323026e-02
    19   -3.603154008211e-03
    20    1.238382346767e-02
    21   -1.614089967978e+00
    22    2.864761184579e-03
    23   -2.271223853606e-02
    24   -1.187669820789e-03
    25    6.850026645332e-04
    26    9.520461929932e-04
    27   -5.951363493074e-02
    28    1.360586593521e-01
    29    1.378364710552e-01
    30    1.467933436000e-02
    31    1.149289446281e+00
    32    1.234703590449e+00
    33    1.281170870796e-01
    34    4.900698380738e-04
    35   -1.754927092372e-03
    36    1.924756659577e-03
    37   -3.405131267496e-02
    38   -3.115432777260e-03
    39    2.224835399049e-02
    40   -1.683438049155e+00
    41   -2.577189383157e-03
    42    2.286428149185e-02
    43    1.293746760202e-03
    44   -2.720415536961e-02
    45    1.726548569399e+00
    46    2.377008534639e-02
    47   -1.315291665141e-04
    48    1.066234807178e-03
Sym=X
Ene= 0.467888
Spin=Alpha
Occup=0
     1   -7.913655222178e-02
     2   -8.240341361424e-01
     3   -1.612721403247e-02
     4   -1.224381902962e-02
     5   -1.456842334487e-03
     6    6.148951995219e-02
     7    1.777379564508e-02
     8   -3.989147554414e+00
     9    9.980246536712e-02
    10   -1.010679981759e-01
    11   -2.228504212258e-04
    12    2.600341981374e+00
    13   -2.319543899116e+00
    14   -1.798089602841e-02
    15    5.560459094971e-02
    16   -2.984787960913e-03
    17   -4.694080205075e-03
    18    1.063917247927e-03
    19    2.428017387356e-02
    20   -1.338779423649e-01
    21   -6.176095376794e-01
    22    4.777004295472e-03
    23    1.881479236789e-02
    24    1.369889163027e-03
    25   -6.011236648808e-02
    26   -2.409166366358e-02
    27    3.950201989582e+00
    28    9.134652359427e-02
    29   -8.644514666863e-02
    30   -6.090494306486e-04
    31    2.601230888956e+00
    32   -2.385318795559e+00
    33   -2.581614204446e-02
    34   -5.861216060147e-02
    35    3.677484504627e-03
    36    5.249287043626e-03
    37   -1.076192467874e-03
    38   -1.903052931566e-02
    39    1.441678037082e-01
    40    6.926926137836e-01
    41    6.682883061554e-03
    42    1.973021697668e-02
    43    1.500731641468e-03
    44    1.072301726355e-01
    45    7.487135214369e-01
    46   -1.658370692259e-02
    47   -1.235216016346e-02
    48   -1.530570941774e-03
Sym=X
Ene= 0.573810
Spin=Alpha
Occup=0
     1    2.004639152515e-01
     2    1.612852831107e-01
     3   -2.315312051987e-02
     4    2.557090795853e-02
     5    3.772332657613e-04
     6   -1.099937569404e-02
     7   -1.853347549118e-01
     8   -2.425312664322e-01
     9    2.910254356847e-01
    10   -2.930161444782e-01
    11   -4.416806060758e-03
    12   -8.604682505377e-01
    13    8.180347137239e-01
    14    7.768136502951e-03
    15   -3.338481852259e-03
    16    2.693253407057e-03
    17    3.685757856389e-03
    18   -1.474273741740e-02
    19    5.217083250326e-02
    20    2.445655989463e-01
    21    1.358029289844e-02
    22   -2.998819376491e-02
    23    2.056944837223e-02
    24   -2.300038300983e-04
    25   -4.851013874247e-03
    26   -1.796751730614e-01
    27   -5.675688806107e-01
    28   -3.033078449548e-01
    29    2.988117394304e-01
    30    3.879440533925e-03
    31    6.477747441854e-01
    32   -6.464886076021e-01
    33   -7.918321214440e-03
    34   -1.975434363922e-03
    35    2.651190691012e-03
    36    3.464303440892e-03
    37   -1.303192982209e-02
    38    5.189693477480e-02
    39    2.415162938289e-01
    40   -1.629297381479e-02
    41    2.605969926413e-02
    42   -1.689391152430e-02
    43    1.925953026723e-04
    44    2.138139185790e-01
    45    5.036590113667e-02
    46    2.192091729553e-02
    47   -2.234737854439e-02
    48   -3.292762201103e-04
Sym=X
Ene= 0.614129
Spin=Alpha
Occup=0
     1    5.443978608169e-01
     2   -1.925228193839e-01
     3    6.432909342349e-02
     4   -3.308741313408e-02
     5    1.190223264138e-03
     6    2.723681297651e-03
     7    1.271744454439e-02
     8    1.260421319100e-01
     9    4.426372170670e-02
    10    1.634859856754e-02
    11    2.927816333193e-03
    12   -4.319339915821e-01
    13   -7.951863896583e-02
    14   -2.492483137974e-02
    15   -4.215543918846e-03
    16    8.104193854882e-03
    17   -8.342376029221e-03
    18    1.550170726054e-01
    19   -2.399347677788e-04
    20   -5.144288487272e-01
    21    3.567206219794e-01
    22   -4.343286224044e-02
    23    5.927971930936e-02
    24    1.338650913261e-03
    25   -2.689564845514e-03
    26    1.240089516110e-03
    27   -2.142509415631e-01
    28    3.902328172670e-02
    29    3.248016062730e-02
    30    3.634717330509e-03
    31   -4.182622335311e-01
    32   -1.486347695635e-01
    33   -2.828435960418e-02
    34    1.156960684060e-02
    35   -7.996802642771e-03
    36    7.485374968722e-03
    37   -1.461962362888e-01
    38   -5.307240198760e-03
    39    4.747211400482e-01
    40   -2.411271788812e-01
    41   -4.358586249950e-02
    42    5.516933797152e-02
    43    1.315883273468e-03
    44   -5.447189827247e-01
    45    1.829657749075e-01
    46    6.523420617037e-02
    47   -3.455113303523e-02
    48    9.310323273590e-04
Sym=X
Ene= 0.682945
Spin=Alpha
Occup=0
     1    3.483908632344e-04
     2   -2.612962242567e-03
     3    1.543369873932e-03
     4    1.297353869380e-03
     5   -2.211271397155e-02
     6    5.850370119586e-05
     7    1.929610362042e-03
     8   -3.599112731478e-03
     9    3.083194004862e-02
    10    3.992796218853e-02
    11   -6.637642319143e-01
    12   -2.481835588381e-02
    13   -3.994216486699e-02
    14    6.113854575476e-01
    15   -1.728858344545e-03
    16    8.510861079705e-02
    17   -7.631621993388e-02
    18   -8.576009436780e-03
    19   -1.621834951347e-03
    20    5.417175032517e-04
    21   -2.695488961968e-03
    22    6.633545604572e-04
    23    3.298798688525e-04
    24   -1.356521495986e-02
    25    1.078333109306e-04
    26    1.053053381610e-03
    27    1.599085482450e-03
    28    3.161804397773e-02
    29    3.938829663464e-02
    30   -6.627145933167e-01
    31   -2.572487724241e-02
    32   -3.970420288671e-02
    33    6.130530690855e-01
    34    7.711746786265e-04
    35   -8.485473211271e-02
    36    7.683742294023e-02
    37    8.553064608580e-03
    38    1.967421663508e-03
    39    1.848822165259e-03
    40    7.822197324613e-04
    41    1.157461971309e-03
    42    1.463565485963e-03
    43   -1.999877142632e-02
    44    1.910928367276e-03
    45    9.295297185462e-04
    46    6.865829545432e-04
    47    1.000578471633e-03
    48   -2.001690230425e-02
Sym=X
Ene= 0.706788
Spin=Alpha
Occup=0
     1   -4.996225661581e-01
     2    1.119551741028e-01
     3   -8.304895919205e-02
     4   -4.215212824356e-02
     5   -6.364671304770e-03
     6   -4.747647439486e-02
     7   -2.977366157759e-01
     8    4.217655670812e-01
     9    1.724463623203e-01
    10   -1.845653505612e-01
    11   -4.804241604060e-03
    12    1.933094690710e-02
    13    2.361455207739e-02
    14    6.632529682158e-03
    15    1.980857909110e-01
    16   -2.068648659668e-02
    17   -2.438058399001e-02
    18    1.258249055430e-03
    19   -7.718138603230e-02
    20   -5.190107750909e-01
    21    2.087121901031e-01
    22    4.446975726510e-02
    23    7.819220463108e-02
    24    6.837686101733e-03
    25   -4.518601302741e-02
    26   -3.199462375218e-01
    27    5.857430286642e-01
    28   -1.980489386348e-01
    29    1.649763378828e-01
    30   -1.240216291205e-03
    31    1.209912216592e-01
    32   -2.159445854623e-02
    33    4.334094728648e-03
    34    1.843295160648e-01
    35   -1.980359765889e-02
    36   -2.340604728585e-02
    37    3.692690788897e-03
    38   -8.181993203892e-02
    39   -4.894021327197e-01
    40    1.070536003716e-01
    41   -4.006526182982e-02
    42   -7.379438535803e-02
    43   -6.494863368887e-03
    44   -4.534874010121e-01
    45    1.622722126456e-01
    46    7.597311865776e-02
    47    4.583305852407e-02
    48    6.134115856524e-03
Sym=X
Ene= 0.789436
Spin=Alpha
Occup=0
     1    4.876010687659e-01
     2   -3.933115923893e-01
     3    9.617832581348e-02
     4    2.657223662101e-02
     5    6.139848309612e-03
     6    8.771511762039e-02
     7   -2.511819032341e-01
     8   -7.481545427169e-01
     9    1.327150220096e-01
    10   -2.707445010434e-02
    11    7.509738027156e-03
    12    3.314786528288e-01
    13   -4.989530280764e-01
    14   -2.089072358055e-02
    15   -1.948414283916e-01
    16    1.643985963328e-02
    17    2.132030276128e-02
    18   -1.934608437132e-02
    19    1.410372680457e-02
    20    5.737512911192e-01
    21   -6.610348512710e-01
    22   -2.522022641190e-02
    23   -1.248224080738e-01
    24   -8.493199735600e-03
    25   -9.223188206404e-02
    26    1.864946898175e-01
    27    8.237261912934e-01
    28    8.314711164781e-02
    29   -5.484584548761e-02
    30   -3.168839810285e-03
    31    4.431530366231e-01
    32   -4.071601640999e-01
    33    2.432262743289e-03
    34    2.130077612176e-01
    35   -1.774201785295e-02
    36   -2.463608132906e-02
    37    1.621281885757e-02
    38   -2.226928833352e-02
    39   -5.591407751075e-01
    40    5.411056122240e-01
    41   -2.576036244155e-02
    42   -1.254183684424e-01
    43   -8.872546802509e-03
    44   -5.325202117075e-01
    45    4.891806469013e-01
    46    1.101389701296e-01
    47    2.911538777706e-02
    48    6.823407965710e-03
Sym=X
Ene= 0.810785
Spin=Alpha
Occup=0
     1   -2.024968512438e-03
     2    2.431923283545e-03
     3   -2.367819906083e-03
     4   -1.858956401204e-03
     5    3.325162665870e-02
     6   -3.597664327106e-04
     7    2.305047459815e-04
     8    2.440931434180e-03
     9   -3.688762499061e-02
    10   -4.523335679424e-02
    11    7.638428060528e-01
    12    5.202786138630e-02
    13    7.087052113811e-02
    14   -1.139869519080e+00
    15    5.421229469521e-05
    16    7.448853645633e-02
    17   -6.763443159621e-02
    18   -7.461540923237e-03
    19   -1.268373904475e-03
    20   -2.372880659341e-03
    21    3.842315994560e-03
    22   -1.533061099215e-03
    23   -7.631093307835e-04
    24    2.951758871245e-02
    25    4.559000624480e-04
    26   -1.536214189409e-03
    27   -1.889376788184e-03
    28    3.476284935580e-02
    29    4.690351642333e-02
    30   -7.631157793535e-01
    31   -5.510649741910e-02
    32   -6.764393864796e-02
    33    1.141632006524e+00
    34   -2.257041422806e-03
    35    7.474146859739e-02
    36   -6.722903937446e-02
    37   -7.556407799466e-03
    38   -1.588310591229e-03
    39    2.362704526744e-03
    40   -2.583298302217e-03
    41    1.708996177528e-03
    42    2.785169953536e-03
    43   -3.663416923681e-02
    44    2.220655590561e-03
    45   -2.741147460101e-03
    46    9.925511918737e-04
    47    1.959186371693e-03
    48   -3.306997847394e-02
Sym=X
Ene= 0.856416
Spin=Alpha
Occup=0
     1    4.277509937262e-02
     2   -1.106806024553e+00
     3    1.577630543810e-01
     4    4.866224611271e-02
     5    1.059389516378e-02
     6    1.011609566444e-02
     7    1.645624583523e-02
     8   -1.845435657758e-02
     9   -3.941384173536e-01
    10   -4.718344832373e-01
    11   -4.656624333654e-02
    12    9.532849025955e-01
    13    1.037183386478e+00
    14    1.062098014382e-01
    15   -3.121391789856e-02
    16    1.366385581235e-02
    17   -1.035088579913e-02
    18    2.310055202618e-01
    19    6.790921289943e-04
    20    2.958759409712e-02
    21    1.084402890938e+00
    22    4.816413860821e-02
    23    1.438251715698e-01
    24    1.051777029705e-02
    25   -6.954269198140e-03
    26    4.930483508234e-02
    27   -2.547484700939e-02
    28   -3.659599007327e-01
    29   -4.312475324597e-01
    30   -4.311636780546e-02
    31    8.992292021366e-01
    32    9.843077635593e-01
    33    1.016805233797e-01
    34    1.507143097334e-02
    35   -1.209049089633e-02
    36    1.166286198103e-02
    37   -2.256566526756e-01
    38   -2.330167253242e-03
    39   -3.357772394224e-02
    40   -1.055263715900e+00
    41    4.983138998277e-02
    42    1.350251106859e-01
    43    1.036899776584e-02
    44   -2.118335260516e-02
    45    1.080562647765e+00
    46    1.470526085198e-01
    47    5.670838690375e-02
    48    1.042404810872e-02
Sym=X
Ene= 0.936076
Spin=Alpha
Occup=0
     1   -1.264982146302e-01
     2    1.110242430635e+00
     3   -1.614994893094e-01
     4    2.464248146410e-02
     5   -6.048909844725e-03
     6   -8.322415353032e-03
     7   -1.062507427676e-01
     8    9.641050014599e-02
     9    4.033314728861e-01
    10    5.410124962061e-01
    11    5.123549832201e-02
    12   -1.283189428653e+00
    13   -1.573712453880e+00
    14   -1.540459203959e-01
    15    1.983557475665e-02
    16   -4.509117168840e-03
    17    5.404981589469e-03
    18   -1.028738342948e-01
    19    3.493318381532e-02
    20    1.142124564892e-01
    21   -1.275323131934e+00
    22    2.827129675684e-03
    23   -1.836656487418e-01
    24   -1.068022802691e-02
    25    5.057883750367e-03
    26   -7.634210141115e-02
    27    1.557527772448e-01
    28   -5.065814413697e-01
    29   -4.920209255972e-01
    30   -5.339568708716e-02
    31    1.540598336835e+00
    32    1.501742402314e+00
    33    1.624778627676e-01
    34   -1.508623905210e-02
    35   -5.070746959317e-03
    36    9.310416631634e-03
    37   -1.282647057061e-01
    38   -1.185945421989e-02
    39    1.469379870277e-01
    40   -1.308912574746e+00
    41   -1.429125403234e-02
    42    1.981418961142e-01
    43    1.155873578465e-02
    44   -1.050980543740e-01
    45    1.298933950984e+00
    46    1.772870348001e-01
    47   -5.180076877769e-03
    48    7.707164413531e-03
Sym=X
Ene= 0.987485
Spin=Alpha
Occup=0
     1   -3.497201416987e-02
     2    1.084024618269e+00
     3   -1.108125741759e-01
     4   -9.581449056272e-02
     5   -1.140977693306e-02
     6    3.411013846218e-02
     7    2.896931004910e-01
     8    3.281655504107e-01
     9    5.263952893858e-01
    10   -4.028518412654e-01
    11    1.641425094279e-03
    12   -1.622911900329e+00
    13    1.129569366507e+00
    14   -1.144668122985e-02
    15   -6.777520255930e-02
    16   -1.283084476948e-02
    17   -5.812469400525e-03
    18   -6.720124773984e-03
    19   -2.917080122130e-01
    20   -2.272297114022e-02
    21    6.958537162618e-01
    22    9.636391533769e-02
    23    6.566328500731e-02
    24    7.911683669341e-03
    25   -3.403435119655e-02
    26   -2.971956482675e-01
    27   -3.159032633816e-01
    28    4.492272647205e-01
    29   -4.755871543593e-01
    30   -8.305888689690e-03
    31   -1.281616573087e+00
    32    1.451140387139e+00
    33    2.972969749110e-02
    34    6.767681987374e-02
    35    1.200761267327e-02
    36    7.938874878719e-03
    37   -1.930381857592e-02
    38    2.986127848809e-01
    39    6.171039441463e-03
    40   -9.680378251710e-01
    41    9.847401922922e-02
    42    9.833427309911e-02
    43    1.053380186191e-02
    44    4.525959555947e-02
    45   -8.134609535547e-01
    46   -7.807232230660e-02
    47   -9.842694239833e-02
    48   -9.640739420008e-03
[5D]

======= END OF MOLDEN-FORMATTED INPUT FILE =======


        *************************************************************
        *                                                           *
        *  Thank you very much for using Q-Chem.  Have a nice day.  *
        *                                                           *
        *************************************************************


