                  Welcome to Q-Chem
     A Quantum Leap Into The Future Of Chemistry


 Q-Chem 5.4 (devel), Q-Chem, Inc., Pleasanton, CA (2021)

 E. Epifanovsky,  A. T. B. Gilbert,  Xintian Feng,  Joonho Lee,  Yuezhi Mao,  
 N. Mardirossian,  P. Pokhilko,  A. White,  M. Wormit,  M. P. Coons,  
 A. L. Dempwolff,  Zhengting Gan,  D. Hait,  P. R. Horn,  L. D. Jacobson,  
 I. Kaliman,  J. Kussmann,  A. W. Lange,  Ka Un Lao,  D. S. Levine,  Jie Liu,  
 S. C. McKenzie,  A. F. Morrison,  K. Nanda,  F. Plasser,  D. R. Rehn,  
 M. L. Vidal,  Zhi-Qiang You,  Ying Zhu,  B. Alam,  B. Albrecht,  
 A. Aldossary,  E. Alguire,  J. H. Andersen,  D. Barton,  K. Begam,  A. Behn,  
 Y. A. Bernard,  E. J. Berquist,  H. Burton,  A. Carreras,  K. Carter-Fenk,  
 R. Chakraborty,  A. D. Chien,  K. D. Closser,  V. Cofer-Shabica,  
 S. Dasgupta,  Jia Deng,  M. de Wergifosse,  M. Diedenhofen,  Hainam Do,  
 S. Ehlert,  Po-Tung Fang,  S. Fatehi,  Qingguo Feng,  T. Friedhoff,  
 J. Gayvert,  Qinghui Ge,  G. Gidofalvi,  M. Goldey,  J. Gomes,  
 C. Gonzalez-Espinoza,  S. Gulania,  A. Gunina,  M. W. D. Hanson-Heine,  
 P. H. P. Harbach,  A. W. Hauser,  M. F. Herbst,  M. Hernandez Vera,  
 M. Hodecker,  Z. C. Holden,  S. Houck,  Xunkun Huang,  Kerwin Hui,  
 B. C. Huynh,  M. Ivanov,  Hyunjun Ji,  Hanjie Jiang,  B. Kaduk,  S. Kaehler,  
 K. Khistyaev,  Jaehoon Kim,  P. Klunzinger,  Z. Koczor-Benda,  
 Joong Hoon Koh,  D. Kosenkov,  L. Koulias,  T. Kowalczyk,  C. M. Krauter,  
 K. Kue,  A. Kunitsa,  T. Kus,  A. Landau,  K. V. Lawler,  D. Lefrancois,  
 S. Lehtola,  Rain Li,  Yi-Pei Li,  Jiashu Liang,  M. Liebenthal,  
 Hung-Hsuan Lin,  You-Sheng Lin,  Fenglai Liu,  Kuan-Yu Liu,  
 M. Loipersberger,  A. Luenser,  A. Manjanath,  P. Manohar,  E. Mansoor,  
 S. F. Manzer,  Shan-Ping Mao,  A. V. Marenich,  T. Markovich,  S. Mason,  
 S. A. Maurer,  P. F. McLaughlin,  M. F. S. J. Menger,  J.-M. Mewes,  
 S. A. Mewes,  P. Morgante,  J. W. Mullinax,  K. J. Oosterbaan,  G. Paran,  
 Alexander C. Paul,  Suranjan K. Paul,  F. Pavosevic,  Zheng Pei,  S. Prager,  
 E. I. Proynov,  E. Ramos,  B. Rana,  A. E. Rask,  A. Rettig,  R. M. Richard,  
 F. Rob,  E. Rossomme,  T. Scheele,  M. Scheurer,  M. Schneider,  
 N. Sergueev,  S. M. Sharada,  W. Skomorowski,  D. W. Small,  C. J. Stein,  
 Yu-Chuan Su,  E. J. Sundstrom,  Zhen Tao,  J. Thirman,  T. Tsuchimochi,  
 N. M. Tubman,  S. P. Veccham,  O. Vydrov,  J. Wenzel,  J. Witte,  A. Yamada,  
 Kun Yao,  S. Yeganeh,  S. R. Yost,  A. Zech,  Igor Ying Zhang,  Xing Zhang,  
 Yu Zhang,  D. Zuev,  A. Aspuru-Guzik,  A. T. Bell,  N. A. Besley,  
 K. B. Bravaya,  B. R. Brooks,  D. Casanova,  Jeng-Da Chai,  S. Coriani,  
 C. J. Cramer,  A. E. DePrince, III,  R. A. DiStasio Jr.,  A. Dreuw,  
 B. D. Dunietz,  T. R. Furlani,  W. A. Goddard III,  S. Grimme,  
 S. Hammes-Schiffer,  T. Head-Gordon,  W. J. Hehre,  Chao-Ping Hsu,  
 T.-C. Jagau,  Yousung Jung,  A. Klamt,  Jing Kong,  D. S. Lambrecht,  
 WanZhen Liang,  N. J. Mayhall,  C. W. McCurdy,  J. B. Neaton,  
 C. Ochsenfeld,  J. A. Parkhill,  R. Peverati,  V. A. Rassolov,  Yihan Shao,  
 L. V. Slipchenko,  T. Stauch,  R. P. Steele,  J. E. Subotnik,  
 A. J. W. Thom,  A. Tkatchenko,  D. G. Truhlar,  T. Van Voorhis,  
 T. A. Wesolowski,  K. B. Whaley,  H. L. Woodcock III,  P. M. Zimmerman,  
 S. Faraji,  P. M. W. Gill,  M. Head-Gordon,  J. M. Herbert,  A. I. Krylov

 Additional authors for Version 5.4.1: 
 S. Kotaru,  Shaozhi Li,  Xiangyuan Li,  F. Matz,  A. Molle,  Haisheng Ren,  
 Yingli Su,  Hung-Yi Tsai,  C. Utku,  Fang Wang

 Contributors to earlier versions of Q-Chem not listed above: 
 R. D. Adamson,  B. Austin,  R. Baer,  J. Baker,  G. J. O. Beran,  
 K. Brandhorst,  S. T. Brown,  E. F. C. Byrd,  A. K. Chakraborty,  
 G. K. L. Chan,  Chun-Min Chang,  Yunqing Chen,  C.-L. Cheng,  
 Siu Hung Chien,  D. M. Chipman,  D. L. Crittenden,  H. Dachsel,  
 R. J. Doerksen,  A. D. Dutoi,  R. G. Edgar,  J. Fosso-Tande,  
 L. Fusti-Molnar,  D. Ghosh,  A. Ghysels,  A. Golubeva-Zadorozhnaya,  
 J. Gonthier,  M. S. Gordon,  S. R. Gwaltney,  G. Hawkins,  J. E. Herr,  
 A. Heyden,  S. Hirata,  E. G. Hohenstein,  G. Kedziora,  F. J. Keil,  
 C. Kelley,  Jihan Kim,  R. A. King,  R. Z. Khaliullin,  P. P. Korambath,  
 W. Kurlancheek,  A. Laurent,  A. M. Lee,  M. S. Lee,  S. V. Levchenko,  
 Ching Yeh Lin,  D. Liotard,  E. Livshits,  R. C. Lochan,  I. Lotan,  
 L. A. Martinez-Martinez,  P. E. Maslen,  N. Nair,  D. P. O'Neill,  
 D. Neuhauser,  E. Neuscamman,  C. M. Oana,  R. Olivares-Amaya,  R. Olson,  
 T. M. Perrine,  B. Peters,  P. A. Pieniazek,  A. Prociuk,  Y. M. Rhee,  
 J. Ritchie,  M. A. Rohrdanz,  E. Rosta,  N. J. Russ,  H. F. Schaefer III,  
 M. W. Schmidt,  N. E. Schultz,  S. Sharma,  N. Shenvi,  C. D. Sherrill,  
 A. C. Simmonett,  A. Sodt,  T. Stein,  D. Stuck,  K. S. Thanthiriwatte,  
 V. Vanovschi,  L. Vogt,  Tao Wang,  A. Warshel,  M. A. Watson,  
 C. F. Williams,  Q. Wu,  X. Xu,  Jun Yang,  W. Zhang,  Yan Zhao

 Please cite Q-Chem as follows:
 Y. Shao et al., Mol. Phys. 113, 184-215 (2015)
 DOI: 10.1080/00268976.2014.952696

 Q-Chem 5.4.1 for Intel X86 EM64T Linux

 Parts of Q-Chem use Armadillo 9.800.1 (Horizon Scraper).
 http://arma.sourceforge.net/

 Q-Chem begins on Mon Mar 20 12:09:53 2023  

 Host: cpu198.baobab
0

     Scratch files written to /scratch/fum/qchem16162//
 Processing $rem in /home/share/wesolowski/qc5.aug2021.FDE/config/preferences:
 Processing $rem in /home/fum/.qchemrc:

 Checking the input file for inconsistencies... 	...done.

--------------------------------------------------------------
User input:
--------------------------------------------------------------
$molecule
0 1
 H        -0.1124474321   -0.4690617682   -0.5779191310
 C        -1.0734705817   -0.5288275903   -0.0017100316
 H        -1.0774615914   -1.4980317716    0.5633119047
 C        -2.0492112913    0.3981501872    0.0074728569
 H        -2.1049614108    1.2924898782    0.6825046162
 H        -2.9505103996    0.4135763464   -0.6608610529
$end

$rem
  JOBTYPE                opt
  METHOD                 b3lyp
  BASIS                  cc-pvdz
  SYM_IGNORE             true
$end

--------------------------------------------------------------
 ----------------------------------------------------------------
             Standard Nuclear Orientation (Angstroms)
    I     Atom           X                Y                Z
 ----------------------------------------------------------------
    1      H      -0.1124474321    -0.4690617682    -0.5779191310
    2      C      -1.0734705817    -0.5288275903    -0.0017100316
    3      H      -1.0774615914    -1.4980317716     0.5633119047
    4      C      -2.0492112913     0.3981501872     0.0074728569
    5      H      -2.1049614108     1.2924898782     0.6825046162
    6      H      -2.9505103996     0.4135763464    -0.6608610529
 ----------------------------------------------------------------
 Nuclear Repulsion Energy =          32.54067502 hartrees
 There are        8 alpha and        8 beta electrons
 Requested basis set is cc-pVDZ
 There are 24 shells and 48 basis functions

 Total QAlloc Memory Limit   2000 MB
 Mega-Array Size       188 MB
 MEM_STATIC part       192 MB
 A cutoff of  1.0D-11 yielded    300 shell pairs
 There are      1220 function pairs (      1329 Cartesian)
 Smallest overlap matrix eigenvalue = 5.12E-03

 Scale SEOQF with 1.000000e-01/1.000000e-01/1.000000e+00

 Standard Electronic Orientation quadrupole field applied
 Nucleus-field energy     =     0.0000000005 hartrees
 Guess from superposition of atomic densities
 Warning:  Energy on first SCF cycle will be non-variational
 SAD guess density has 16.000000 electrons

 -----------------------------------------------------------------------
  General SCF calculation program by
  Eric Jon Sundstrom, Paul Horn, Yuezhi Mao, Dmitri Zuev, Alec White,
  David Stuck, Shaama M.S., Shane Yost, Joonho Lee, David Small,
  Daniel Levine, Susi Lehtola, Hugh Burton, Evgeny Epifanovsky,
  Bang C. Huynh
 -----------------------------------------------------------------------
 Exchange:     0.2000 Hartree-Fock + 0.0800 Slater + 0.7200 B88
 Correlation:  0.1900 VWN1RPA + 0.8100 LYP
 Using SG-1 standard quadrature grid
 using 8 threads for integral computing
 -------------------------------------------------------
 OpenMP Integral computing Module                
 Release: version 1.0, May 2013, Q-Chem Inc. Pittsburgh 
 -------------------------------------------------------
 A restricted SCF calculation will be
 performed using DIIS
 SCF converges when DIIS error is below 1.0e-08
 ---------------------------------------
  Cycle       Energy         DIIS error
 ---------------------------------------
    1     -78.6612452739      8.82e-02  
    2     -78.3936670060      1.23e-02  
    3     -78.3842957466      1.35e-02  
    4     -78.4461936284      2.56e-04  
    5     -78.4462124412      8.42e-05  
    6     -78.4462097873      1.20e-04  
    7     -78.4462146698      5.76e-06  
    8     -78.4462146815      1.47e-07  
    9     -78.4462146815      4.59e-08  
   10     -78.4462146815      1.48e-08  
   11     -78.4462146815      1.82e-09  Convergence criterion met
 ---------------------------------------
 SCF time:   CPU 3.82s  wall 2.00s 
 SCF   energy in the final basis set =      -78.4462146815
 Total energy in the final basis set =      -78.4462146815

 --------------------------------------------------------------

                    Orbital Energies (a.u.)
 --------------------------------------------------------------

 Alpha MOs
 -- Occupied --
-10.2030 -10.2023  -0.7592  -0.5829  -0.4375  -0.4172  -0.4111  -0.1738
 -- Virtual --
 -0.1022   0.0875   0.0875   0.1403   0.1450   0.2977   0.4115   0.5057
  0.5074   0.5189   0.5236   0.5296   0.5405   0.6660   0.6695   0.6973
  0.8339   0.9112   0.9733   1.0483   1.2673   1.2876   1.3427   1.4883
  1.5293   1.5298   1.6300   1.6616   1.6670   1.6681   1.7904   1.9838
  2.0352   2.0359   2.2193   2.3078   2.3989   2.4201   2.5711   2.6023
 --------------------------------------------------------------

          Ground-State Mulliken Net Atomic Charges

     Atom                 Charge (a.u.)
  ----------------------------------------
      1 H                     0.049957
      2 C                    -0.099814
      3 H                     0.049894
      4 C                    -0.099884
      5 H                     0.049890
      6 H                     0.049958
  ----------------------------------------
  Sum of atomic charges =     0.000000

 -----------------------------------------------------------------
                    Cartesian Multipole Moments
 -----------------------------------------------------------------
    Charge (ESU x 10^10)
                 0.0000
    Dipole Moment (Debye)
         X       0.0001      Y       0.0003      Z      -0.0030
       Tot       0.0030
    Quadrupole Moments (Debye-Ang)
        XX     -13.5181     XY      -1.2118     YY     -13.6319
        XZ      -0.0706     YZ      -0.0675     ZZ     -13.4863
    Octopole Moments (Debye-Ang^2)
       XXX      63.5655    XXY       4.7785    XYY      21.3704
       YYY       2.3619    XXZ      -1.5104    XYZ       0.0206
       YYZ       1.6694    XZZ      20.8819    YZZ       1.0789
       ZZZ      -0.1082
    Hexadecapole Moments (Debye-Ang^3)
      XXXX    -252.1498   XXXY      -1.7085   XXYY     -49.3842
      XYYY       8.3394   YYYY     -50.6629   XXXZ       7.3373
      XXYZ       0.1596   XYYZ      -2.5284   YYYZ      -0.8945
      XXZZ     -43.1804   XYZZ       1.6716   YYZZ     -10.5847
      XZZZ       0.2455   YZZZ      -0.1140   ZZZZ     -21.4898
 -----------------------------------------------------------------
 Calculating analytic gradient of the SCF energy
 Gradient of SCF Energy
            1           2           3           4           5           6
    1  -0.0141606  -0.0487923   0.0278356   0.0487669  -0.0316273   0.0179777
    2  -0.0280833   0.0461205   0.0151248  -0.0461134  -0.0199189   0.0328703
    3  -0.0422220   0.0005723   0.0419528  -0.0002830   0.0369930  -0.0370131
 Max gradient component =       4.879E-02
 RMS gradient           =       3.341E-02
 Gradient time:  CPU 0.86 s  wall 1.31 s
 Geometry Optimization Parameters
   NAtoms,    NIC,     NZ,  NCons,   NDum,   NFix, NCnnct, MaxDiis
        6      27       0       0       0       0       0       0


** GEOMETRY OPTIMIZATION IN DELOCALIZED INTERNAL COORDINATES **
   Searching for a Minimum

   Optimization Cycle:   1

                       Coordinates (Angstroms)
     ATOM                X               Y               Z
      1  H        -0.1124474321   -0.4690617682   -0.5779191310
      2  C        -1.0734705817   -0.5288275903   -0.0017100316
      3  H        -1.0774615914   -1.4980317716    0.5633119047
      4  C        -2.0492112913    0.3981501872    0.0074728569
      5  H        -2.1049614108    1.2924898782    0.6825046162
      6  H        -2.9505103996    0.4135763464   -0.6608610529
   Point Group: c1    Number of degrees of freedom:    12


   Energy is    -78.446214682


 Attempting to generate delocalized internal coordinates
 Initial Hessian constructed with Jon Baker's OPTIMIZE code

 12 Hessian modes will be used to form the next step
  Hessian Eigenvalues:
     0.029563    0.029564    0.029564    0.160000    0.160000    0.160000
     0.160000    0.313455    0.313497    0.313735    0.313737    0.559034

 Minimum search - taking simple RFO step
 Searching for Lamda that Minimizes Along All modes
 Value Taken    Lamda =  -0.07808797
 Calculated Step too Large.  Step scaled by  0.361587
 Step Taken.  Stepsize is  0.300000

                             Maximum     Tolerance    Cnvgd?
         Gradient           0.088599      0.000300      NO
         Displacement       0.297592      0.001200      NO
         Energy change     *********      0.000001      NO


 New Cartesian Coordinates Obtained by Inverse Iteration

 Displacement from previous Coordinates is:  0.255947
 ----------------------------------------------------------------
             Standard Nuclear Orientation (Angstroms)
    I     Atom           X                Y                Z
 ----------------------------------------------------------------
    1      H      -0.0840684820    -0.4390040009    -0.5243385488
    2      C      -1.0681722844    -0.5337852087    -0.0019456206
    3      H      -1.1067099103    -1.5269536941     0.5099514161
    4      C      -2.0544813109     0.4031292488     0.0073138052
    5      H      -2.0709225423     1.3274406833     0.6360412739
    6      H      -2.9837081769     0.3774682533    -0.6142231635
 ----------------------------------------------------------------
 Nuclear Repulsion Energy =          32.41270040 hartrees
 There are        8 alpha and        8 beta electrons
 Applying Cartesian multipole field
    Component          Value
    ---------          -----
     (2,0,0)        1.00000E-11
     (0,2,0)        2.00000E-11
     (0,0,2)       -3.00000E-10
 Nucleus-field energy     =     0.0000000008 hartrees
 Requested basis set is cc-pVDZ
 There are 24 shells and 48 basis functions
 A cutoff of  1.0D-11 yielded    300 shell pairs
 There are      1220 function pairs (      1329 Cartesian)
 Smallest overlap matrix eigenvalue = 5.40E-03
 Guess MOs from SCF MO coefficient file

 -----------------------------------------------------------------------
  General SCF calculation program by
  Eric Jon Sundstrom, Paul Horn, Yuezhi Mao, Dmitri Zuev, Alec White,
  David Stuck, Shaama M.S., Shane Yost, Joonho Lee, David Small,
  Daniel Levine, Susi Lehtola, Hugh Burton, Evgeny Epifanovsky,
  Bang C. Huynh
 -----------------------------------------------------------------------
 Exchange:     0.2000 Hartree-Fock + 0.0800 Slater + 0.7200 B88
 Correlation:  0.1900 VWN1RPA + 0.8100 LYP
 Using SG-1 standard quadrature grid
 A restricted SCF calculation will be
 performed using DIIS
 SCF converges when DIIS error is below 1.0e-08
 ---------------------------------------
  Cycle       Energy         DIIS error
 ---------------------------------------
    1     -78.4719261758      1.27e-03  
    2     -78.4727810201      2.87e-04  
    3     -78.4727881221      2.82e-04  
    4     -78.4728151017      1.80e-05  
    5     -78.4728152117      3.57e-06  
    6     -78.4728152056      5.84e-06  
    7     -78.4728152170      6.10e-07  
    8     -78.4728152172      8.98e-09  Convergence criterion met
 ---------------------------------------
 SCF time:   CPU 2.79s  wall 2.00s 
 SCF   energy in the final basis set =      -78.4728152172
 Total energy in the final basis set =      -78.4728152172

 --------------------------------------------------------------

                    Orbital Energies (a.u.)
 --------------------------------------------------------------

 Alpha MOs
 -- Occupied --
-10.2032 -10.2026  -0.7548  -0.5839  -0.4339  -0.4227  -0.4043  -0.1864
 -- Virtual --
 -0.0886   0.0878   0.0888   0.1357   0.1508   0.2947   0.4161   0.4939
  0.5031   0.5167   0.5217   0.5301   0.5647   0.6618   0.6774   0.6936
  0.8319   0.9197   0.9688   1.0437   1.2431   1.3115   1.3541   1.4851
  1.5264   1.5267   1.5994   1.6539   1.6751   1.7058   1.7855   1.9779
  2.0319   2.0341   2.2171   2.3273   2.3897   2.4239   2.5327   2.6398
 --------------------------------------------------------------

          Ground-State Mulliken Net Atomic Charges

     Atom                 Charge (a.u.)
  ----------------------------------------
      1 H                     0.048361
      2 C                    -0.096603
      3 H                     0.048298
      4 C                    -0.096729
      5 H                     0.048305
      6 H                     0.048368
  ----------------------------------------
  Sum of atomic charges =     0.000000

 -----------------------------------------------------------------
                    Cartesian Multipole Moments
 -----------------------------------------------------------------
    Charge (ESU x 10^10)
                 0.0000
    Dipole Moment (Debye)
         X       0.0001      Y       0.0002      Z      -0.0022
       Tot       0.0022
    Quadrupole Moments (Debye-Ang)
        XX     -13.2904     XY      -1.1116     YY     -13.3974
        XZ      -0.0410     YZ      -0.0311     ZZ     -13.7694
    Octopole Moments (Debye-Ang^2)
       XXX      62.5154    XXY       4.4587    XYY      20.9861
       YYY       2.2942    XXZ      -1.7203    XYZ      -0.0435
       YYZ       1.7836    XZZ      21.3117    YZZ       1.1109
       ZZZ      -0.1024
    Hexadecapole Moments (Debye-Ang^3)
      XXXX    -248.2259   XXXY      -1.0010   XXYY     -49.1271
      XYYY       8.3034   YYYY     -49.9769   XXXZ       8.1505
      XXYZ       0.2441   XYYZ      -2.7491   YYYZ      -0.8624
      XXZZ     -43.9666   XYZZ       1.8018   YYZZ     -10.6992
      XZZZ       0.2202   YZZZ      -0.1459   ZZZZ     -20.8744
 -----------------------------------------------------------------
 Calculating analytic gradient of the SCF energy
 Gradient of SCF Energy
            1           2           3           4           5           6
    1  -0.0102228  -0.0285469   0.0242013   0.0285334  -0.0278201   0.0138552
    2  -0.0242967   0.0269478   0.0110648  -0.0269508  -0.0156285   0.0288634
    3  -0.0398206   0.0003493   0.0395905  -0.0001254   0.0354852  -0.0354790
 Max gradient component =       3.982E-02
 RMS gradient           =       2.603E-02
 Gradient time:  CPU 0.81 s  wall 0.54 s
 Geometry Optimization Parameters
   NAtoms,    NIC,     NZ,  NCons,   NDum,   NFix, NCnnct, MaxDiis
        6      27       0       0       0       0       0       0

 Cartesian Hessian Update
 Hessian updated using BFGS update


** GEOMETRY OPTIMIZATION IN DELOCALIZED INTERNAL COORDINATES **
   Searching for a Minimum

   Optimization Cycle:   2

                       Coordinates (Angstroms)
     ATOM                X               Y               Z
      1  H        -0.0840684820   -0.4390040009   -0.5243385488
      2  C        -1.0681722844   -0.5337852087   -0.0019456206
      3  H        -1.1067099103   -1.5269536941    0.5099514161
      4  C        -2.0544813109    0.4031292488    0.0073138052
      5  H        -2.0709225423    1.3274406833    0.6360412739
      6  H        -2.9837081769    0.3774682533   -0.6142231635
   Point Group: c1    Number of degrees of freedom:    12


   Energy is    -78.472815217

 Hessian updated using BFGS update

 10 Hessian modes will be used to form the next step
  Hessian Eigenvalues:
     0.024209    0.029564    0.029566    0.156282    0.160007    0.307272
     0.313475    0.313612    0.313736    0.733293

 Minimum search - taking simple RFO step
 Searching for Lamda that Minimizes Along All modes
 Value Taken    Lamda =  -0.07056895
 Calculated Step too Large.  Step scaled by  0.350423
 Step Taken.  Stepsize is  0.300000

                             Maximum     Tolerance    Cnvgd?
         Gradient           0.080153      0.000300      NO
         Displacement       0.296145      0.001200      NO
         Energy change     -0.026601      0.000001      NO


 New Cartesian Coordinates Obtained by Inverse Iteration

 Displacement from previous Coordinates is:  0.260745
 ----------------------------------------------------------------
             Standard Nuclear Orientation (Angstroms)
    I     Atom           X                Y                Z
 ----------------------------------------------------------------
    1      H      -0.0676493805    -0.4010319866    -0.4690965428
    2      C      -1.0682583013    -0.5336250515    -0.0020061765
    3      H      -1.1444146627    -1.5445920932     0.4549732010
    4      C      -2.0543805467     0.4030015000     0.0072234208
    5      H      -2.0282511562     1.3513580086     0.5874664787
    6      H      -3.0051086594     0.3331849044    -0.5657612188
 ----------------------------------------------------------------
 Nuclear Repulsion Energy =          32.51409728 hartrees
 There are        8 alpha and        8 beta electrons
 Applying Cartesian multipole field
    Component          Value
    ---------          -----
     (2,0,0)        1.00000E-11
     (0,2,0)        2.00000E-11
     (0,0,2)       -3.00000E-10
 Nucleus-field energy     =     0.0000000010 hartrees
 Requested basis set is cc-pVDZ
 There are 24 shells and 48 basis functions
 A cutoff of  1.0D-11 yielded    300 shell pairs
 There are      1220 function pairs (      1329 Cartesian)
 Smallest overlap matrix eigenvalue = 5.41E-03
 Guess MOs from SCF MO coefficient file

 -----------------------------------------------------------------------
  General SCF calculation program by
  Eric Jon Sundstrom, Paul Horn, Yuezhi Mao, Dmitri Zuev, Alec White,
  David Stuck, Shaama M.S., Shane Yost, Joonho Lee, David Small,
  Daniel Levine, Susi Lehtola, Hugh Burton, Evgeny Epifanovsky,
  Bang C. Huynh
 -----------------------------------------------------------------------
 Exchange:     0.2000 Hartree-Fock + 0.0800 Slater + 0.7200 B88
 Correlation:  0.1900 VWN1RPA + 0.8100 LYP
 Using SG-1 standard quadrature grid
 A restricted SCF calculation will be
 performed using DIIS
 SCF converges when DIIS error is below 1.0e-08
 ---------------------------------------
  Cycle       Energy         DIIS error
 ---------------------------------------
    1     -78.4954578371      1.29e-03  
    2     -78.4963335129      4.02e-04  
    3     -78.4963514062      3.53e-04  
    4     -78.4963935306      1.44e-05  
    5     -78.4963936112      2.59e-06  
    6     -78.4963936134      1.34e-06  
    7     -78.4963936135      1.30e-06  
    8     -78.4963936140      7.47e-09  Convergence criterion met
 ---------------------------------------
 SCF time:   CPU 2.70s  wall 1.00s 
 SCF   energy in the final basis set =      -78.4963936140
 Total energy in the final basis set =      -78.4963936140

 --------------------------------------------------------------

                    Orbital Energies (a.u.)
 --------------------------------------------------------------

 Alpha MOs
 -- Occupied --
-10.2011 -10.2005  -0.7545  -0.5836  -0.4308  -0.4303  -0.3994  -0.1983
 -- Virtual --
 -0.0740   0.0879   0.0919   0.1314   0.1564   0.2946   0.4172   0.4819
  0.5002   0.5173   0.5201   0.5346   0.5941   0.6597   0.6899   0.6955
  0.8286   0.9306   0.9660   1.0381   1.2282   1.3453   1.3744   1.4904
  1.5174   1.5197   1.5734   1.6504   1.6839   1.7530   1.7861   1.9764
  2.0298   2.0414   2.2166   2.3489   2.4066   2.4327   2.5082   2.6878
 --------------------------------------------------------------

          Ground-State Mulliken Net Atomic Charges

     Atom                 Charge (a.u.)
  ----------------------------------------
      1 H                     0.045280
      2 C                    -0.090421
      3 H                     0.045212
      4 C                    -0.090598
      5 H                     0.045235
      6 H                     0.045292
  ----------------------------------------
  Sum of atomic charges =     0.000000

 -----------------------------------------------------------------
                    Cartesian Multipole Moments
 -----------------------------------------------------------------
    Charge (ESU x 10^10)
                 0.0000
    Dipole Moment (Debye)
         X       0.0002      Y       0.0000      Z      -0.0020
       Tot       0.0020
    Quadrupole Moments (Debye-Ang)
        XX     -13.1069     XY      -0.9420     YY     -13.1984
        XZ      -0.0115     YZ       0.0028     ZZ     -13.9914
    Octopole Moments (Debye-Ang^2)
       XXX      61.6596    XXY       3.9188    XYY      20.6522
       YYY       2.2493    XXZ      -1.8412    XYZ      -0.0993
       YYZ       1.8084    XZZ      21.6554    YZZ       1.1286
       ZZZ      -0.1011
    Hexadecapole Moments (Debye-Ang^3)
      XXXX    -244.4115   XXXY       0.0621   XXYY     -48.7944
      XYYY       8.0614   YYYY     -48.8738   XXXZ       8.5492
      XXYZ       0.3088   XYYZ      -2.8248   YYYZ      -0.8081
      XXZZ     -44.5498   XYZZ       1.8495   YYZZ     -10.7411
      XZZZ       0.1905   YZZZ      -0.1853   ZZZZ     -20.1718
 -----------------------------------------------------------------
 Calculating analytic gradient of the SCF energy
 Gradient of SCF Energy
            1           2           3           4           5           6
    1  -0.0087360  -0.0184365   0.0198808   0.0184786  -0.0232986   0.0121117
    2  -0.0199496   0.0174170   0.0093692  -0.0174443  -0.0136322   0.0242399
    3  -0.0371454   0.0002318   0.0369724  -0.0000679   0.0334957  -0.0334866
 Max gradient component =       3.715E-02
 RMS gradient           =       2.198E-02
 Gradient time:  CPU 0.76 s  wall 0.50 s
 Geometry Optimization Parameters
   NAtoms,    NIC,     NZ,  NCons,   NDum,   NFix, NCnnct, MaxDiis
        6      27       0       0       0       0       0       0

 Cartesian Hessian Update
 Hessian updated using BFGS update


** GEOMETRY OPTIMIZATION IN DELOCALIZED INTERNAL COORDINATES **
   Searching for a Minimum

   Optimization Cycle:   3

                       Coordinates (Angstroms)
     ATOM                X               Y               Z
      1  H        -0.0676493805   -0.4010319866   -0.4690965428
      2  C        -1.0682583013   -0.5336250515   -0.0020061765
      3  H        -1.1444146627   -1.5445920932    0.4549732010
      4  C        -2.0543805467    0.4030015000    0.0072234208
      5  H        -2.0282511562    1.3513580086    0.5874664787
      6  H        -3.0051086594    0.3331849044   -0.5657612188
   Point Group: c1    Number of degrees of freedom:    12


   Energy is    -78.496393614

 Hessian updated using BFGS update

 11 Hessian modes will be used to form the next step
  Hessian Eigenvalues:
     0.023545    0.029564    0.029565    0.155670    0.160001    0.160007
     0.309703    0.313475    0.313613    0.313736    0.755240

 Minimum search - taking simple RFO step
 Searching for Lamda that Minimizes Along All modes
 Value Taken    Lamda =  -0.06313866
 Calculated Step too Large.  Step scaled by  0.352862
 Step Taken.  Stepsize is  0.300000

                             Maximum     Tolerance    Cnvgd?
         Gradient           0.072892      0.000300      NO
         Displacement       0.296460      0.001200      NO
         Energy change     -0.023578      0.000001      NO


 New Cartesian Coordinates Obtained by Inverse Iteration

 Displacement from previous Coordinates is:  0.263134
 ----------------------------------------------------------------
             Standard Nuclear Orientation (Angstroms)
    I     Atom           X                Y                Z
 ----------------------------------------------------------------
    1      H      -0.0542975067    -0.3646627117    -0.4112397510
    2      C      -1.0699168914    -0.5320012680    -0.0020472843
    3      H      -1.1806684436    -1.5590738231     0.3973961970
    4      C      -2.0527836594     0.4014290942     0.0071378610
    5      H      -1.9866787899     1.3724593699     0.5358210820
    6      H      -3.0237174159     0.2901446205    -0.5142689424
 ----------------------------------------------------------------
 Nuclear Repulsion Energy =          32.65250018 hartrees
 There are        8 alpha and        8 beta electrons
 Applying Cartesian multipole field
    Component          Value
    ---------          -----
     (2,0,0)        1.00000E-11
     (0,2,0)        2.00000E-11
     (0,0,2)       -3.00000E-10
 Nucleus-field energy     =     0.0000000012 hartrees
 Requested basis set is cc-pVDZ
 There are 24 shells and 48 basis functions
 A cutoff of  1.0D-11 yielded    300 shell pairs
 There are      1220 function pairs (      1329 Cartesian)
 Smallest overlap matrix eigenvalue = 5.33E-03
 Guess MOs from SCF MO coefficient file

 -----------------------------------------------------------------------
  General SCF calculation program by
  Eric Jon Sundstrom, Paul Horn, Yuezhi Mao, Dmitri Zuev, Alec White,
  David Stuck, Shaama M.S., Shane Yost, Joonho Lee, David Small,
  Daniel Levine, Susi Lehtola, Hugh Burton, Evgeny Epifanovsky,
  Bang C. Huynh
 -----------------------------------------------------------------------
 Exchange:     0.2000 Hartree-Fock + 0.0800 Slater + 0.7200 B88
 Correlation:  0.1900 VWN1RPA + 0.8100 LYP
 Using SG-1 standard quadrature grid
 A restricted SCF calculation will be
 performed using DIIS
 SCF converges when DIIS error is below 1.0e-08
 ---------------------------------------
  Cycle       Energy         DIIS error
 ---------------------------------------
    1     -78.5165488251      1.32e-03  
    2     -78.5174616688      3.93e-04  
    3     -78.5174782458      3.47e-04  
    4     -78.5175188555      1.21e-05  
    5     -78.5175189168      1.88e-06  
    6     -78.5175189181      3.91e-07  
    7     -78.5175189181      5.32e-07  
    8     -78.5175189182      1.17e-08  
    9     -78.5175189182      8.02e-10  Convergence criterion met
 ---------------------------------------
 SCF time:   CPU 2.97s  wall 1.00s 
 SCF   energy in the final basis set =      -78.5175189182
 Total energy in the final basis set =      -78.5175189182

 --------------------------------------------------------------

                    Orbital Energies (a.u.)
 --------------------------------------------------------------

 Alpha MOs
 -- Occupied --
-10.1987 -10.1981  -0.7551  -0.5826  -0.4376  -0.4282  -0.3940  -0.2102
 -- Virtual --
 -0.0594   0.0874   0.0952   0.1269   0.1618   0.2959   0.4166   0.4705
  0.4966   0.5124   0.5251   0.5401   0.6208   0.6575   0.6988   0.7090
  0.8239   0.9446   0.9615   1.0327   1.2135   1.3800   1.3988   1.4871
  1.5055   1.5128   1.5571   1.6475   1.6906   1.7850   1.8017   1.9707
  2.0222   2.0496   2.2144   2.3512   2.4350   2.4504   2.4904   2.7404
 --------------------------------------------------------------

          Ground-State Mulliken Net Atomic Charges

     Atom                 Charge (a.u.)
  ----------------------------------------
      1 H                     0.041849
      2 C                    -0.083608
      3 H                     0.041783
      4 C                    -0.083697
      5 H                     0.041810
      6 H                     0.041863
  ----------------------------------------
  Sum of atomic charges =     0.000000

 -----------------------------------------------------------------
                    Cartesian Multipole Moments
 -----------------------------------------------------------------
    Charge (ESU x 10^10)
                 0.0000
    Dipole Moment (Debye)
         X       0.0002      Y      -0.0000      Z      -0.0018
       Tot       0.0018
    Quadrupole Moments (Debye-Ang)
        XX     -12.9411     XY      -0.7650     YY     -13.0166
        XZ       0.0175     YZ       0.0356     ZZ     -14.2060
    Octopole Moments (Debye-Ang^2)
       XXX      60.8772    XXY       3.3515    XYY      20.3477
       YYY       2.2216    XXZ      -1.8847    XYZ      -0.1495
       YYZ       1.7583    XZZ      21.9956    YZZ       1.1371
       ZZZ      -0.1003
    Hexadecapole Moments (Debye-Ang^3)
      XXXX    -240.8145   XXXY       1.1840   XXYY     -48.4650
      XYYY       7.7841   YYYY     -47.7967   XXXZ       8.5904
      XXYZ       0.3608   XYYZ      -2.7761   YYYZ      -0.7379
      XXZZ     -45.1524   XYZZ       1.8695   YYZZ     -10.7989
      XZZZ       0.1530   YZZZ      -0.2329   ZZZZ     -19.4912
 -----------------------------------------------------------------
 Calculating analytic gradient of the SCF energy
 Gradient of SCF Energy
            1           2           3           4           5           6
    1  -0.0070640  -0.0126769   0.0156693   0.0127120  -0.0188240   0.0101836
    2  -0.0157058   0.0119973   0.0075204  -0.0120217  -0.0114408   0.0196507
    3  -0.0342679   0.0001811   0.0341212  -0.0000500   0.0312818  -0.0312662
 Max gradient component =       3.427E-02
 RMS gradient           =       1.897E-02
 Gradient time:  CPU 0.76 s  wall 0.49 s
 Geometry Optimization Parameters
   NAtoms,    NIC,     NZ,  NCons,   NDum,   NFix, NCnnct, MaxDiis
        6      27       0       0       0       0       0       0

 Cartesian Hessian Update
 Hessian updated using BFGS update


** GEOMETRY OPTIMIZATION IN DELOCALIZED INTERNAL COORDINATES **
   Searching for a Minimum

   Optimization Cycle:   4

                       Coordinates (Angstroms)
     ATOM                X               Y               Z
      1  H        -0.0542975067   -0.3646627117   -0.4112397510
      2  C        -1.0699168914   -0.5320012680   -0.0020472843
      3  H        -1.1806684436   -1.5590738231    0.3973961970
      4  C        -2.0527836594    0.4014290942    0.0071378610
      5  H        -1.9866787899    1.3724593699    0.5358210820
      6  H        -3.0237174159    0.2901446205   -0.5142689424
   Point Group: c1    Number of degrees of freedom:    12


   Energy is    -78.517518918

 Hessian updated using BFGS update

 12 Hessian modes will be used to form the next step
  Hessian Eigenvalues:
     0.025082    0.029564    0.029565    0.156171    0.160000    0.160000
     0.160007    0.310394    0.313475    0.313614    0.313736    0.756005

 Minimum search - taking simple RFO step
 Searching for Lamda that Minimizes Along All modes
 Value Taken    Lamda =  -0.05481107
 Calculated Step too Large.  Step scaled by  0.363021
 Step Taken.  Stepsize is  0.300000

                             Maximum     Tolerance    Cnvgd?
         Gradient           0.065424      0.000300      NO
         Displacement       0.297125      0.001200      NO
         Energy change     -0.021125      0.000001      NO


 New Cartesian Coordinates Obtained by Inverse Iteration

 Displacement from previous Coordinates is:  0.263945
 ----------------------------------------------------------------
             Standard Nuclear Orientation (Angstroms)
    I     Atom           X                Y                Z
 ----------------------------------------------------------------
    1      H      -0.0432626929    -0.3320473650    -0.3504415478
    2      C      -1.0720945813    -0.5299457555    -0.0020918987
    3      H      -1.2132059588    -1.5711217591     0.3369044262
    4      C      -2.0506902342     0.3993710627     0.0070639950
    5      H      -1.9484432475     1.3914441616     0.4805804971
    6      H      -3.0403659921     0.2505949370    -0.4592163095
 ----------------------------------------------------------------
 Nuclear Repulsion Energy =          32.79610838 hartrees
 There are        8 alpha and        8 beta electrons
 Applying Cartesian multipole field
    Component          Value
    ---------          -----
     (2,0,0)        1.00000E-11
     (0,2,0)        2.00000E-11
     (0,0,2)       -3.00000E-10
 Nucleus-field energy     =     0.0000000015 hartrees
 Requested basis set is cc-pVDZ
 There are 24 shells and 48 basis functions
 A cutoff of  1.0D-11 yielded    300 shell pairs
 There are      1220 function pairs (      1329 Cartesian)
 Smallest overlap matrix eigenvalue = 5.21E-03
 Guess MOs from SCF MO coefficient file

 -----------------------------------------------------------------------
  General SCF calculation program by
  Eric Jon Sundstrom, Paul Horn, Yuezhi Mao, Dmitri Zuev, Alec White,
  David Stuck, Shaama M.S., Shane Yost, Joonho Lee, David Small,
  Daniel Levine, Susi Lehtola, Hugh Burton, Evgeny Epifanovsky,
  Bang C. Huynh
 -----------------------------------------------------------------------
 Exchange:     0.2000 Hartree-Fock + 0.0800 Slater + 0.7200 B88
 Correlation:  0.1900 VWN1RPA + 0.8100 LYP
 Using SG-1 standard quadrature grid
 A restricted SCF calculation will be
 performed using DIIS
 SCF converges when DIIS error is below 1.0e-08
 ---------------------------------------
  Cycle       Energy         DIIS error
 ---------------------------------------
    1     -78.5352200417      1.34e-03  
    2     -78.5361524259      3.59e-04  
    3     -78.5361650880      3.28e-04  
    4     -78.5362010189      1.08e-05  
    5     -78.5362010695      1.51e-06  
    6     -78.5362010700      1.11e-06  
    7     -78.5362010702      6.90e-07  
    8     -78.5362010704      5.26e-09  Convergence criterion met
 ---------------------------------------
 SCF time:   CPU 2.72s  wall 2.00s 
 SCF   energy in the final basis set =      -78.5362010704
 Total energy in the final basis set =      -78.5362010704

 --------------------------------------------------------------

                    Orbital Energies (a.u.)
 --------------------------------------------------------------

 Alpha MOs
 -- Occupied --
-10.1965 -10.1958  -0.7562  -0.5815  -0.4443  -0.4259  -0.3878  -0.2221
 -- Virtual --
 -0.0450   0.0865   0.0984   0.1223   0.1668   0.2981   0.4151   0.4596
  0.4926   0.5079   0.5306   0.5459   0.6407   0.6551   0.7028   0.7380
  0.8187   0.9541   0.9610   1.0288   1.1972   1.4138   1.4261   1.4677
  1.4936   1.5067   1.5561   1.6451   1.6954   1.7802   1.8508   1.9629
  2.0098   2.0580   2.2116   2.3470   2.4309   2.4776   2.5056   2.7965
 --------------------------------------------------------------

          Ground-State Mulliken Net Atomic Charges

     Atom                 Charge (a.u.)
  ----------------------------------------
      1 H                     0.038146
      2 C                    -0.076297
      3 H                     0.038097
      4 C                    -0.076209
      5 H                     0.038105
      6 H                     0.038159
  ----------------------------------------
  Sum of atomic charges =     0.000000

 -----------------------------------------------------------------
                    Cartesian Multipole Moments
 -----------------------------------------------------------------
    Charge (ESU x 10^10)
                -0.0000
    Dipole Moment (Debye)
         X       0.0001      Y       0.0001      Z      -0.0015
       Tot       0.0015
    Quadrupole Moments (Debye-Ang)
        XX     -12.7895     XY      -0.5961     YY     -12.8496
        XZ       0.0448     YZ       0.0664     ZZ     -14.4134
    Octopole Moments (Debye-Ang^2)
       XXX      60.1515    XXY       2.8064    XYY      20.0706
       YYY       2.2106    XXZ      -1.8530    XYZ      -0.1930
       YYZ       1.6384    XZZ      22.3316    YZZ       1.1374
       ZZZ      -0.0997
    Hexadecapole Moments (Debye-Ang^3)
      XXXX    -237.4621   XXXY       2.2773   XXYY     -48.1447
      XYYY       7.5053   YYYY     -46.8196   XXXZ       8.2888
      XXYZ       0.3990   XYYZ      -2.6108   YYYZ      -0.6554
      XXZZ     -45.7765   XYZZ       1.8733   YYZZ     -10.8760
      XZZZ       0.1094   YZZZ      -0.2867   ZZZZ     -18.8399
 -----------------------------------------------------------------
 Calculating analytic gradient of the SCF energy
 Gradient of SCF Energy
            1           2           3           4           5           6
    1  -0.0053190  -0.0093421   0.0117939   0.0093261  -0.0146185   0.0081597
    2  -0.0117821   0.0088659   0.0056090  -0.0088527  -0.0091729   0.0153327
    3  -0.0308869   0.0001390   0.0307712  -0.0000289   0.0285471  -0.0285414
 Max gradient component =       3.089E-02
 RMS gradient           =       1.633E-02
 Gradient time:  CPU 0.81 s  wall 0.53 s
 Geometry Optimization Parameters
   NAtoms,    NIC,     NZ,  NCons,   NDum,   NFix, NCnnct, MaxDiis
        6      27       0       0       0       0       0       0

 Cartesian Hessian Update
 Hessian updated using BFGS update


** GEOMETRY OPTIMIZATION IN DELOCALIZED INTERNAL COORDINATES **
   Searching for a Minimum

   Optimization Cycle:   5

                       Coordinates (Angstroms)
     ATOM                X               Y               Z
      1  H        -0.0432626929   -0.3320473650   -0.3504415478
      2  C        -1.0720945813   -0.5299457555   -0.0020918987
      3  H        -1.2132059588   -1.5711217591    0.3369044262
      4  C        -2.0506902342    0.3993710627    0.0070639950
      5  H        -1.9484432475    1.3914441616    0.4805804971
      6  H        -3.0403659921    0.2505949370   -0.4592163095
   Point Group: c1    Number of degrees of freedom:    12


   Energy is    -78.536201070

 Hessian updated using BFGS update

 12 Hessian modes will be used to form the next step
  Hessian Eigenvalues:
     0.026899    0.029564    0.029564    0.156680    0.160000    0.160001
     0.160007    0.310622    0.313475    0.313614    0.313736    0.753790

 Minimum search - taking simple RFO step
 Searching for Lamda that Minimizes Along All modes
 Value Taken    Lamda =  -0.04608222
 Calculated Step too Large.  Step scaled by  0.378115
 Step Taken.  Stepsize is  0.300000

                             Maximum     Tolerance    Cnvgd?
         Gradient           0.057504      0.000300      NO
         Displacement       0.297785      0.001200      NO
         Energy change     -0.018682      0.000001      NO


 New Cartesian Coordinates Obtained by Inverse Iteration

 Displacement from previous Coordinates is:  0.264139
 ----------------------------------------------------------------
             Standard Nuclear Orientation (Angstroms)
    I     Atom           X                Y                Z
 ----------------------------------------------------------------
    1      H      -0.0343640333    -0.3040511347    -0.2869931488
    2      C      -1.0742024560    -0.5279707192    -0.0021325770
    3      H      -1.2412720647    -1.5808097664     0.2737286038
    4      C      -2.0485852177     0.3973516554     0.0069842273
    5      H      -1.9144803990     1.4084360123     0.4219590779
    6      H      -3.0551585362     0.2153392343    -0.4007470210
 ----------------------------------------------------------------
 Nuclear Repulsion Energy =          32.92891580 hartrees
 There are        8 alpha and        8 beta electrons
 Applying Cartesian multipole field
    Component          Value
    ---------          -----
     (2,0,0)        1.00000E-11
     (0,2,0)        2.00000E-11
     (0,0,2)       -3.00000E-10
 Nucleus-field energy     =     0.0000000017 hartrees
 Requested basis set is cc-pVDZ
 There are 24 shells and 48 basis functions
 A cutoff of  1.0D-11 yielded    300 shell pairs
 There are      1220 function pairs (      1329 Cartesian)
 Smallest overlap matrix eigenvalue = 5.08E-03
 Guess MOs from SCF MO coefficient file

 -----------------------------------------------------------------------
  General SCF calculation program by
  Eric Jon Sundstrom, Paul Horn, Yuezhi Mao, Dmitri Zuev, Alec White,
  David Stuck, Shaama M.S., Shane Yost, Joonho Lee, David Small,
  Daniel Levine, Susi Lehtola, Hugh Burton, Evgeny Epifanovsky,
  Bang C. Huynh
 -----------------------------------------------------------------------
 Exchange:     0.2000 Hartree-Fock + 0.0800 Slater + 0.7200 B88
 Correlation:  0.1900 VWN1RPA + 0.8100 LYP
 Using SG-1 standard quadrature grid
 A restricted SCF calculation will be
 performed using DIIS
 SCF converges when DIIS error is below 1.0e-08
 ---------------------------------------
  Cycle       Energy         DIIS error
 ---------------------------------------
    1     -78.5513581175      1.35e-03  
    2     -78.5523010159      3.12e-04  
    3     -78.5523102020      2.96e-04  
    4     -78.5523392297      9.95e-06  
    5     -78.5523392730      1.47e-06  
    6     -78.5523392731      1.56e-06  
    7     -78.5523392738      4.26e-07  
    8     -78.5523392738      4.36e-09  Convergence criterion met
 ---------------------------------------
 SCF time:   CPU 2.80s  wall 2.00s 
 SCF   energy in the final basis set =      -78.5523392738
 Total energy in the final basis set =      -78.5523392738

 --------------------------------------------------------------

                    Orbital Energies (a.u.)
 --------------------------------------------------------------

 Alpha MOs
 -- Occupied --
-10.1945 -10.1937  -0.7573  -0.5803  -0.4504  -0.4240  -0.3811  -0.2339
 -- Virtual --
 -0.0314   0.0853   0.1016   0.1177   0.1715   0.3007   0.4130   0.4498
  0.4886   0.5039   0.5358   0.5515   0.6525   0.6537   0.7072   0.7763
  0.8138   0.9442   0.9790   1.0266   1.1784   1.4396   1.4455   1.4553
  1.4833   1.5014   1.5630   1.6427   1.6985   1.7708   1.8995   1.9549
  1.9944   2.0668   2.2088   2.3410   2.4211   2.4679   2.5639   2.8531
 --------------------------------------------------------------

          Ground-State Mulliken Net Atomic Charges

     Atom                 Charge (a.u.)
  ----------------------------------------
      1 H                     0.034322
      2 C                    -0.068687
      3 H                     0.034287
      4 C                    -0.068540
      5 H                     0.034287
      6 H                     0.034331
  ----------------------------------------
  Sum of atomic charges =     0.000000

 -----------------------------------------------------------------
                    Cartesian Multipole Moments
 -----------------------------------------------------------------
    Charge (ESU x 10^10)
                -0.0000
    Dipole Moment (Debye)
         X      -0.0001      Y       0.0003      Z      -0.0012
       Tot       0.0013
    Quadrupole Moments (Debye-Ang)
        XX     -12.6547     XY      -0.4421     YY     -12.7005
        XZ       0.0695     YZ       0.0945     ZZ     -14.6069
    Octopole Moments (Debye-Ang^2)
       XXX      59.4945    XXY       2.3053    XYY      19.8251
       YYY       2.2146    XXZ      -1.7511    XYZ      -0.2292
       YYZ       1.4575    XZZ      22.6521    YZZ       1.1297
       ZZZ      -0.0992
    Hexadecapole Moments (Debye-Ang^3)
      XXXX    -234.4355   XXXY       3.3042   XXYY     -47.8476
      XYYY       7.2444   YYYY     -45.9820   XXXZ       7.6742
      XXYZ       0.4229   XYYZ      -2.3434   YYYZ      -0.5643
      XXZZ     -46.3969   XYZZ       1.8686   YYZZ     -10.9661
      XZZZ       0.0625   YZZZ      -0.3434   ZZZZ     -18.2335
 -----------------------------------------------------------------
 Calculating analytic gradient of the SCF energy
 Gradient of SCF Energy
            1           2           3           4           5           6
    1  -0.0036742  -0.0072657   0.0083323   0.0072373  -0.0108056   0.0061760
    2  -0.0082668   0.0068971   0.0038258  -0.0068911  -0.0069653   0.0114002
    3  -0.0269104   0.0001020   0.0268280  -0.0000081   0.0252075  -0.0252189
 Max gradient component =       2.691E-02
 RMS gradient           =       1.377E-02
 Gradient time:  CPU 0.81 s  wall 0.52 s
 Geometry Optimization Parameters
   NAtoms,    NIC,     NZ,  NCons,   NDum,   NFix, NCnnct, MaxDiis
        6      27       0       0       0       0       0       0

 Cartesian Hessian Update
 Hessian updated using BFGS update


** GEOMETRY OPTIMIZATION IN DELOCALIZED INTERNAL COORDINATES **
   Searching for a Minimum

   Optimization Cycle:   6

                       Coordinates (Angstroms)
     ATOM                X               Y               Z
      1  H        -0.0343640333   -0.3040511347   -0.2869931488
      2  C        -1.0742024560   -0.5279707192   -0.0021325770
      3  H        -1.2412720647   -1.5808097664    0.2737286038
      4  C        -2.0485852177    0.3973516554    0.0069842273
      5  H        -1.9144803990    1.4084360123    0.4219590779
      6  H        -3.0551585362    0.2153392343   -0.4007470210
   Point Group: c1    Number of degrees of freedom:    12


   Energy is    -78.552339274

 Hessian updated using BFGS update

 12 Hessian modes will be used to form the next step
  Hessian Eigenvalues:
     0.028615    0.029564    0.029564    0.157089    0.160000    0.160001
     0.160007    0.310763    0.313475    0.313614    0.313736    0.751825

 Minimum search - taking simple RFO step
 Searching for Lamda that Minimizes Along All modes
 Value Taken    Lamda =  -0.03708578
 Calculated Step too Large.  Step scaled by  0.399755
 Step Taken.  Stepsize is  0.300000

                             Maximum     Tolerance    Cnvgd?
         Gradient           0.049082      0.000300      NO
         Displacement       0.298376      0.001200      NO
         Energy change     -0.016138      0.000001      NO


 New Cartesian Coordinates Obtained by Inverse Iteration

 Displacement from previous Coordinates is:  0.264112
 ----------------------------------------------------------------
             Standard Nuclear Orientation (Angstroms)
    I     Atom           X                Y                Z
 ----------------------------------------------------------------
    1      H      -0.0275584926    -0.2811665286    -0.2213182631
    2      C      -1.0759673252    -0.5262844421    -0.0021629531
    3      H      -1.2644777648    -1.5880871726     0.2082543483
    4      C      -2.0467630526     0.3956743139     0.0068902935
    5      H      -1.8852523179     1.4234096790     0.3603597281
    6      H      -3.0680437539     0.1847494321    -0.3392239914
 ----------------------------------------------------------------
 Nuclear Repulsion Energy =          33.04200419 hartrees
 There are        8 alpha and        8 beta electrons
 Applying Cartesian multipole field
    Component          Value
    ---------          -----
     (2,0,0)        1.00000E-11
     (0,2,0)        2.00000E-11
     (0,0,2)       -3.00000E-10
 Nucleus-field energy     =     0.0000000018 hartrees
 Requested basis set is cc-pVDZ
 There are 24 shells and 48 basis functions
 A cutoff of  1.0D-11 yielded    300 shell pairs
 There are      1220 function pairs (      1329 Cartesian)
 Smallest overlap matrix eigenvalue = 4.97E-03
 Guess MOs from SCF MO coefficient file

 -----------------------------------------------------------------------
  General SCF calculation program by
  Eric Jon Sundstrom, Paul Horn, Yuezhi Mao, Dmitri Zuev, Alec White,
  David Stuck, Shaama M.S., Shane Yost, Joonho Lee, David Small,
  Daniel Levine, Susi Lehtola, Hugh Burton, Evgeny Epifanovsky,
  Bang C. Huynh
 -----------------------------------------------------------------------
 Exchange:     0.2000 Hartree-Fock + 0.0800 Slater + 0.7200 B88
 Correlation:  0.1900 VWN1RPA + 0.8100 LYP
 Using SG-1 standard quadrature grid
 A restricted SCF calculation will be
 performed using DIIS
 SCF converges when DIIS error is below 1.0e-08
 ---------------------------------------
  Cycle       Energy         DIIS error
 ---------------------------------------
    1     -78.5648307847      1.36e-03  
    2     -78.5657831755      2.59e-04  
    3     -78.5657907751      2.51e-04  
    4     -78.5658115760      9.52e-06  
    5     -78.5658116155      1.10e-06  
    6     -78.5658116157      7.11e-07  
    7     -78.5658116158      4.86e-07  
    8     -78.5658116159      4.51e-09  Convergence criterion met
 ---------------------------------------
 SCF time:   CPU 2.78s  wall 1.00s 
 SCF   energy in the final basis set =      -78.5658116159
 Total energy in the final basis set =      -78.5658116159

 --------------------------------------------------------------

                    Orbital Energies (a.u.)
 --------------------------------------------------------------

 Alpha MOs
 -- Occupied --
-10.1928 -10.1920  -0.7583  -0.5793  -0.4556  -0.4224  -0.3739  -0.2452
 -- Virtual --
 -0.0190   0.0839   0.1046   0.1134   0.1758   0.3035   0.4108   0.4412
  0.4850   0.5006   0.5403   0.5568   0.6499   0.6621   0.7118   0.8096
  0.8208   0.9330   0.9977   1.0256   1.1563   1.4097   1.4732   1.4756
  1.4855   1.4974   1.5714   1.6402   1.7000   1.7568   1.9467   1.9481
  1.9780   2.0758   2.2060   2.3346   2.4069   2.4598   2.6210   2.9067
 --------------------------------------------------------------

          Ground-State Mulliken Net Atomic Charges

     Atom                 Charge (a.u.)
  ----------------------------------------
      1 H                     0.030582
      2 C                    -0.061169
      3 H                     0.030555
      4 C                    -0.061120
      5 H                     0.030565
      6 H                     0.030587
  ----------------------------------------
  Sum of atomic charges =     0.000000

 -----------------------------------------------------------------
                    Cartesian Multipole Moments
 -----------------------------------------------------------------
    Charge (ESU x 10^10)
                -0.0000
    Dipole Moment (Debye)
         X      -0.0000      Y       0.0001      Z      -0.0009
       Tot       0.0009
    Quadrupole Moments (Debye-Ang)
        XX     -12.5404     XY      -0.3074     YY     -12.5730
        XZ       0.0910     YZ       0.1193     ZZ     -14.7788
    Octopole Moments (Debye-Ang^2)
       XXX      58.9247    XXY       1.8622    XYY      19.6177
       YYY       2.2312    XXZ      -1.5872    XYZ      -0.2573
       YYZ       1.2256    XZZ      22.9443    YZZ       1.1139
       ZZZ      -0.0987
    Hexadecapole Moments (Debye-Ang^3)
      XXXX    -231.8237   XXXY       4.2389   XXYY     -47.5911
      XYYY       7.0117   YYYY     -45.3055   XXXZ       6.7875
      XXYZ       0.4318   XYYZ      -1.9910   YYYZ      -0.4692
      XXZZ     -46.9837   XYZZ       1.8627   YYZZ     -11.0597
      XZZZ       0.0159   YZZZ      -0.3989   ZZZZ     -17.6915
 -----------------------------------------------------------------
 Calculating analytic gradient of the SCF energy
 Gradient of SCF Energy
            1           2           3           4           5           6
    1  -0.0022621  -0.0057638   0.0053607   0.0057610  -0.0074521   0.0043563
    2  -0.0052590   0.0054565   0.0023140  -0.0054877  -0.0049319   0.0079081
    3  -0.0223770   0.0000844   0.0223142  -0.0000113   0.0212571  -0.0212674
 Max gradient component =       2.238E-02
 RMS gradient           =       1.120E-02
 Gradient time:  CPU 0.81 s  wall 0.53 s
 Geometry Optimization Parameters
   NAtoms,    NIC,     NZ,  NCons,   NDum,   NFix, NCnnct, MaxDiis
        6      27       0       0       0       0       0       0

 Cartesian Hessian Update
 Hessian updated using BFGS update


** GEOMETRY OPTIMIZATION IN DELOCALIZED INTERNAL COORDINATES **
   Searching for a Minimum

   Optimization Cycle:   7

                       Coordinates (Angstroms)
     ATOM                X               Y               Z
      1  H        -0.0275584926   -0.2811665286   -0.2213182631
      2  C        -1.0759673252   -0.5262844421   -0.0021629531
      3  H        -1.2644777648   -1.5880871726    0.2082543483
      4  C        -2.0467630526    0.3956743139    0.0068902935
      5  H        -1.8852523179    1.4234096790    0.3603597281
      6  H        -3.0680437539    0.1847494321   -0.3392239914
   Point Group: c1    Number of degrees of freedom:    12


   Energy is    -78.565811616

 Hessian updated using BFGS update

 12 Hessian modes will be used to form the next step
  Hessian Eigenvalues:
     0.029563    0.029564    0.030144    0.157431    0.160000    0.160001
     0.160008    0.310893    0.313475    0.313614    0.313737    0.750243

 Minimum search - taking simple RFO step
 Searching for Lamda that Minimizes Along All modes
 Value Taken    Lamda =  -0.02795573
 Calculated Step too Large.  Step scaled by  0.432884
 Step Taken.  Stepsize is  0.300000

                             Maximum     Tolerance    Cnvgd?
         Gradient           0.040173      0.000300      NO
         Displacement       0.298888      0.001200      NO
         Energy change     -0.013472      0.000001      NO


 New Cartesian Coordinates Obtained by Inverse Iteration

 Displacement from previous Coordinates is:  0.264041
 ----------------------------------------------------------------
             Standard Nuclear Orientation (Angstroms)
    I     Atom           X                Y                Z
 ----------------------------------------------------------------
    1      H      -0.0229041986    -0.2636209755    -0.1538581390
    2      C      -1.0773122894    -0.5249801636    -0.0022001055
    3      H      -1.2825092848    -1.5929251003     0.1409561804
    4      C      -2.0453932098     0.3944356874     0.0068185900
    5      H      -1.8609762614     1.4362256829     0.2961837170
    6      H      -3.0789674629     0.1591601507    -0.2751010806
 ----------------------------------------------------------------
 Nuclear Repulsion Energy =          33.13106220 hartrees
 There are        8 alpha and        8 beta electrons
 Applying Cartesian multipole field
    Component          Value
    ---------          -----
     (2,0,0)        1.00000E-11
     (0,2,0)        2.00000E-11
     (0,0,2)       -3.00000E-10
 Nucleus-field energy     =     0.0000000020 hartrees
 Requested basis set is cc-pVDZ
 There are 24 shells and 48 basis functions
 A cutoff of  1.0D-11 yielded    300 shell pairs
 There are      1220 function pairs (      1329 Cartesian)
 Smallest overlap matrix eigenvalue = 4.88E-03
 Guess MOs from SCF MO coefficient file

 -----------------------------------------------------------------------
  General SCF calculation program by
  Eric Jon Sundstrom, Paul Horn, Yuezhi Mao, Dmitri Zuev, Alec White,
  David Stuck, Shaama M.S., Shane Yost, Joonho Lee, David Small,
  Daniel Levine, Susi Lehtola, Hugh Burton, Evgeny Epifanovsky,
  Bang C. Huynh
 -----------------------------------------------------------------------
 Exchange:     0.2000 Hartree-Fock + 0.0800 Slater + 0.7200 B88
 Correlation:  0.1900 VWN1RPA + 0.8100 LYP
 Using SG-1 standard quadrature grid
 A restricted SCF calculation will be
 performed using DIIS
 SCF converges when DIIS error is below 1.0e-08
 ---------------------------------------
  Cycle       Energy         DIIS error
 ---------------------------------------
    1     -78.5755196832      1.37e-03  
    2     -78.5764842714      2.07e-04  
    3     -78.5764921441      1.96e-04  
    4     -78.5765047845      9.77e-06  
    5     -78.5765048238      1.81e-06  
    6     -78.5765048237      1.99e-06  
    7     -78.5765048249      2.21e-07  
    8     -78.5765048249      3.35e-09  Convergence criterion met
 ---------------------------------------
 SCF time:   CPU 2.77s  wall 1.00s 
 SCF   energy in the final basis set =      -78.5765048249
 Total energy in the final basis set =      -78.5765048249

 --------------------------------------------------------------

                    Orbital Energies (a.u.)
 --------------------------------------------------------------

 Alpha MOs
 -- Occupied --
-10.1915 -10.1907  -0.7592  -0.5784  -0.4599  -0.4211  -0.3668  -0.2557
 -- Virtual --
 -0.0083   0.0826   0.1073   0.1094   0.1795   0.3061   0.4088   0.4341
  0.4818   0.4979   0.5440   0.5613   0.6476   0.6679   0.7162   0.8062
  0.8687   0.9219   1.0159   1.0253   1.1305   1.3815   1.4707   1.4863
  1.5049   1.5153   1.5790   1.6369   1.7001   1.7392   1.9430   1.9626
  1.9907   2.0844   2.2029   2.3282   2.3899   2.4525   2.6731   2.9537
 --------------------------------------------------------------

          Ground-State Mulliken Net Atomic Charges

     Atom                 Charge (a.u.)
  ----------------------------------------
      1 H                     0.027176
      2 C                    -0.054322
      3 H                     0.027162
      4 C                    -0.054363
      5 H                     0.027167
      6 H                     0.027179
  ----------------------------------------
  Sum of atomic charges =     0.000000

 -----------------------------------------------------------------
                    Cartesian Multipole Moments
 -----------------------------------------------------------------
    Charge (ESU x 10^10)
                -0.0000
    Dipole Moment (Debye)
         X       0.0001      Y      -0.0001      Z      -0.0007
       Tot       0.0007
    Quadrupole Moments (Debye-Ang)
        XX     -12.4492     XY      -0.1956     YY     -12.4705
        XZ       0.1087     YZ       0.1397     ZZ     -14.9223
    Octopole Moments (Debye-Ang^2)
       XXX      58.4574    XXY       1.4893    XYY      19.4544
       YYY       2.2597    XXZ      -1.3709    XYZ      -0.2765
       YYZ       0.9536    XZZ      23.1964    YZZ       1.0913
       ZZZ      -0.0984
    Hexadecapole Moments (Debye-Ang^3)
      XXXX    -229.6899   XXXY       5.0515   XXYY     -47.3902
      XYYY       6.8098   YYYY     -44.7963   XXXZ       5.6762
      XXYZ       0.4234   XYYZ      -1.5717   YYYZ      -0.3751
      XXZZ     -47.5071   XYZZ       1.8616   YYZZ     -11.1461
      XZZZ      -0.0259   YZZZ      -0.4489   ZZZZ     -17.2351
 -----------------------------------------------------------------
 Calculating analytic gradient of the SCF energy
 Gradient of SCF Energy
            1           2           3           4           5           6
    1  -0.0011612  -0.0045161   0.0029616   0.0045230  -0.0046031   0.0027958
    2  -0.0028517   0.0042740   0.0011393  -0.0042873  -0.0031900   0.0049157
    3  -0.0173935   0.0000799   0.0173359  -0.0000166   0.0167364  -0.0167422
 Max gradient component =       1.739E-02
 RMS gradient           =       8.576E-03
 Gradient time:  CPU 0.81 s  wall 0.52 s
 Geometry Optimization Parameters
   NAtoms,    NIC,     NZ,  NCons,   NDum,   NFix, NCnnct, MaxDiis
        6      27       0       0       0       0       0       0

 Cartesian Hessian Update
 Hessian updated using BFGS update


** GEOMETRY OPTIMIZATION IN DELOCALIZED INTERNAL COORDINATES **
   Searching for a Minimum

   Optimization Cycle:   8

                       Coordinates (Angstroms)
     ATOM                X               Y               Z
      1  H        -0.0229041986   -0.2636209755   -0.1538581390
      2  C        -1.0773122894   -0.5249801636   -0.0022001055
      3  H        -1.2825092848   -1.5929251003    0.1409561804
      4  C        -2.0453932098    0.3944356874    0.0068185900
      5  H        -1.8609762614    1.4362256829    0.2961837170
      6  H        -3.0789674629    0.1591601507   -0.2751010806
   Point Group: c1    Number of degrees of freedom:    12


   Energy is    -78.576504825

 Hessian updated using BFGS update

 12 Hessian modes will be used to form the next step
  Hessian Eigenvalues:
     0.029563    0.029564    0.031362    0.157729    0.160000    0.160001
     0.160008    0.311000    0.313475    0.313615    0.313737    0.748786

 Minimum search - taking simple RFO step
 Searching for Lamda that Minimizes Along All modes
 Value Taken    Lamda =  -0.01896369
 Calculated Step too Large.  Step scaled by  0.489130
 Step Taken.  Stepsize is  0.300000

                             Maximum     Tolerance    Cnvgd?
         Gradient           0.030860      0.000300      NO
         Displacement       0.299316      0.001200      NO
         Energy change     -0.010693      0.000001      NO


 New Cartesian Coordinates Obtained by Inverse Iteration

 Displacement from previous Coordinates is:  0.263988
 ----------------------------------------------------------------
             Standard Nuclear Orientation (Angstroms)
    I     Atom           X                Y                Z
 ----------------------------------------------------------------
    1      H      -0.0204871833    -0.2515349092    -0.0850626085
    2      C      -1.0782050056    -0.5241335715    -0.0023003564
    3      H      -1.2951340947    -1.5952849996     0.0723526880
    4      C      -2.0445098126     0.3936114670     0.0067582551
    5      H      -1.8418663252     1.4467199083     0.2298666439
    6      H      -3.0878602855     0.1389173867    -0.2088154598
 ----------------------------------------------------------------
 Nuclear Repulsion Energy =          33.19445809 hartrees
 There are        8 alpha and        8 beta electrons
 Applying Cartesian multipole field
    Component          Value
    ---------          -----
     (2,0,0)        1.00000E-11
     (0,2,0)        2.00000E-11
     (0,0,2)       -3.00000E-10
 Nucleus-field energy     =     0.0000000021 hartrees
 Requested basis set is cc-pVDZ
 There are 24 shells and 48 basis functions
 A cutoff of  1.0D-11 yielded    300 shell pairs
 There are      1220 function pairs (      1329 Cartesian)
 Smallest overlap matrix eigenvalue = 4.82E-03
 Guess MOs from SCF MO coefficient file

 -----------------------------------------------------------------------
  General SCF calculation program by
  Eric Jon Sundstrom, Paul Horn, Yuezhi Mao, Dmitri Zuev, Alec White,
  David Stuck, Shaama M.S., Shane Yost, Joonho Lee, David Small,
  Daniel Levine, Susi Lehtola, Hugh Burton, Evgeny Epifanovsky,
  Bang C. Huynh
 -----------------------------------------------------------------------
 Exchange:     0.2000 Hartree-Fock + 0.0800 Slater + 0.7200 B88
 Correlation:  0.1900 VWN1RPA + 0.8100 LYP
 Using SG-1 standard quadrature grid
 A restricted SCF calculation will be
 performed using DIIS
 SCF converges when DIIS error is below 1.0e-08
 ---------------------------------------
  Cycle       Energy         DIIS error
 ---------------------------------------
    1     -78.5833376756      1.39e-03  
    2     -78.5843169819      1.61e-04  
    3     -78.5843260337      1.35e-04  
    4     -78.5843320276      1.13e-05  
    5     -78.5843320765      1.20e-06  
    6     -78.5843320766      1.14e-06  
    7     -78.5843320769      3.09e-07  
    8     -78.5843320770      3.13e-09  Convergence criterion met
 ---------------------------------------
 SCF time:   CPU 2.77s  wall 2.00s 
 SCF   energy in the final basis set =      -78.5843320770
 Total energy in the final basis set =      -78.5843320770

 --------------------------------------------------------------

                    Orbital Energies (a.u.)
 --------------------------------------------------------------

 Alpha MOs
 -- Occupied --
-10.1905 -10.1897  -0.7597  -0.5778  -0.4631  -0.4200  -0.3604  -0.2647
 -- Virtual --
  0.0001   0.0814   0.1061   0.1094   0.1824   0.3084   0.4070   0.4289
  0.4794   0.4960   0.5466   0.5649   0.6457   0.6719   0.7201   0.8038
  0.9125   0.9178   1.0253   1.0319   1.1003   1.3578   1.4682   1.4838
  1.5241   1.5432   1.5850   1.6330   1.6993   1.7201   1.9395   1.9499
  2.0288   2.0920   2.1996   2.3224   2.3727   2.4464   2.7161   2.9905
 --------------------------------------------------------------

          Ground-State Mulliken Net Atomic Charges

     Atom                 Charge (a.u.)
  ----------------------------------------
      1 H                     0.024381
      2 C                    -0.048736
      3 H                     0.024387
      4 C                    -0.048778
      5 H                     0.024368
      6 H                     0.024378
  ----------------------------------------
  Sum of atomic charges =     0.000000

 -----------------------------------------------------------------
                    Cartesian Multipole Moments
 -----------------------------------------------------------------
    Charge (ESU x 10^10)
                -0.0000
    Dipole Moment (Debye)
         X       0.0002      Y      -0.0001      Z      -0.0003
       Tot       0.0004
    Quadrupole Moments (Debye-Ang)
        XX     -12.3822     XY      -0.1100     YY     -12.3951
        XZ       0.1219     YZ       0.1549     ZZ     -15.0315
    Octopole Moments (Debye-Ang^2)
       XXX      58.0999    XXY       1.1979    XYY      19.3382
       YYY       2.2993    XXZ      -1.1107    XYZ      -0.2858
       YYZ       0.6528    XZZ      23.3979    YZZ       1.0634
       ZZZ      -0.0972
    Hexadecapole Moments (Debye-Ang^3)
      XXXX    -228.0558   XXXY       5.7104   XXYY     -47.2530
      XYYY       6.6379   YYYY     -44.4490   XXXZ       4.3837
      XXYZ       0.3963   XYYZ      -1.1048   YYYZ      -0.2866
      XXZZ     -47.9396   XYZZ       1.8706   YYZZ     -11.2159
      XZZZ      -0.0608   YZZZ      -0.4896   ZZZZ     -16.8849
 -----------------------------------------------------------------
 Calculating analytic gradient of the SCF energy
 Gradient of SCF Energy
            1           2           3           4           5           6
    1  -0.0004358  -0.0033808   0.0012015   0.0033618  -0.0023314   0.0015847
    2  -0.0011035   0.0032080   0.0003674  -0.0031657  -0.0018307   0.0025244
    3  -0.0120572   0.0000527   0.0120220  -0.0000120   0.0117420  -0.0117475
 Max gradient component =       1.206E-02
 RMS gradient           =       5.914E-03
 Gradient time:  CPU 0.80 s  wall 0.52 s
 Geometry Optimization Parameters
   NAtoms,    NIC,     NZ,  NCons,   NDum,   NFix, NCnnct, MaxDiis
        6      27       0       0       0       0       0       0

 Cartesian Hessian Update
 Hessian updated using BFGS update


** GEOMETRY OPTIMIZATION IN DELOCALIZED INTERNAL COORDINATES **
   Searching for a Minimum

   Optimization Cycle:   9

                       Coordinates (Angstroms)
     ATOM                X               Y               Z
      1  H        -0.0204871833   -0.2515349092   -0.0850626085
      2  C        -1.0782050056   -0.5241335715   -0.0023003564
      3  H        -1.2951340947   -1.5952849996    0.0723526880
      4  C        -2.0445098126    0.3936114670    0.0067582551
      5  H        -1.8418663252    1.4467199083    0.2298666439
      6  H        -3.0878602855    0.1389173867   -0.2088154598
   Point Group: c1    Number of degrees of freedom:    12


   Energy is    -78.584332077

 Hessian updated using BFGS update

 12 Hessian modes will be used to form the next step
  Hessian Eigenvalues:
     0.029564    0.029564    0.032238    0.157975    0.160000    0.160001
     0.160009    0.311089    0.313475    0.313615    0.313737    0.747283

 Minimum search - taking simple RFO step
 Searching for Lamda that Minimizes Along All modes
 Value Taken    Lamda =  -0.01053958
 Calculated Step too Large.  Step scaled by  0.604988
 Step Taken.  Stepsize is  0.300000

                             Maximum     Tolerance    Cnvgd?
         Gradient           0.021246      0.000300      NO
         Displacement       0.299656      0.001200      NO
         Energy change     -0.007827      0.000001      NO


 New Cartesian Coordinates Obtained by Inverse Iteration

 Displacement from previous Coordinates is:  0.263967
 ----------------------------------------------------------------
             Standard Nuclear Orientation (Angstroms)
    I     Atom           X                Y                Z
 ----------------------------------------------------------------
    1      H      -0.0202961570    -0.2451073329    -0.0154883435
    2      C      -1.0785871478    -0.5237871389    -0.0023617462
    3      H      -1.3022192855    -1.5951484782     0.0028980218
    4      C      -2.0440823188     0.3932037282     0.0067261459
    5      H      -1.8282326986     1.4548848421     0.1618772987
    6      H      -3.0946450992     0.1242496614    -0.1408522143
 ----------------------------------------------------------------
 Nuclear Repulsion Energy =          33.23047900 hartrees
 There are        8 alpha and        8 beta electrons
 Applying Cartesian multipole field
    Component          Value
    ---------          -----
     (2,0,0)        1.00000E-11
     (0,2,0)        2.00000E-11
     (0,0,2)       -3.00000E-10
 Nucleus-field energy     =     0.0000000021 hartrees
 Requested basis set is cc-pVDZ
 There are 24 shells and 48 basis functions
 A cutoff of  1.0D-11 yielded    300 shell pairs
 There are      1220 function pairs (      1329 Cartesian)
 Smallest overlap matrix eigenvalue = 4.79E-03
 Guess MOs from SCF MO coefficient file

 -----------------------------------------------------------------------
  General SCF calculation program by
  Eric Jon Sundstrom, Paul Horn, Yuezhi Mao, Dmitri Zuev, Alec White,
  David Stuck, Shaama M.S., Shane Yost, Joonho Lee, David Small,
  Daniel Levine, Susi Lehtola, Hugh Burton, Evgeny Epifanovsky,
  Bang C. Huynh
 -----------------------------------------------------------------------
 Exchange:     0.2000 Hartree-Fock + 0.0800 Slater + 0.7200 B88
 Correlation:  0.1900 VWN1RPA + 0.8100 LYP
 Using SG-1 standard quadrature grid
 A restricted SCF calculation will be
 performed using DIIS
 SCF converges when DIIS error is below 1.0e-08
 ---------------------------------------
  Cycle       Energy         DIIS error
 ---------------------------------------
    1     -78.5882276436      1.40e-03  
    2     -78.5892220711      1.27e-04  
    3     -78.5892322553      7.20e-05  
    4     -78.5892339089      1.61e-05  
    5     -78.5892339985      1.55e-06  
    6     -78.5892339984      1.62e-06  
    7     -78.5892339992      2.08e-07  
    8     -78.5892339992      2.73e-09  Convergence criterion met
 ---------------------------------------
 SCF time:   CPU 2.76s  wall 2.00s 
 SCF   energy in the final basis set =      -78.5892339992
 Total energy in the final basis set =      -78.5892339992

 --------------------------------------------------------------

                    Orbital Energies (a.u.)
 --------------------------------------------------------------

 Alpha MOs
 -- Occupied --
-10.1900 -10.1892  -0.7600  -0.5774  -0.4653  -0.4192  -0.3556  -0.2711
 -- Virtual --
  0.0056   0.0805   0.1039   0.1108   0.1842   0.3098   0.4059   0.4258
  0.4779   0.4947   0.5482   0.5672   0.6445   0.6743   0.7227   0.8022
  0.9059   0.9663   1.0252   1.0436   1.0654   1.3412   1.4670   1.4807
  1.5390   1.5657   1.5889   1.6292   1.6980   1.7032   1.9374   1.9410
  2.0570   2.0975   2.1962   2.3177   2.3589   2.4419   2.7457   3.0141
 --------------------------------------------------------------

          Ground-State Mulliken Net Atomic Charges

     Atom                 Charge (a.u.)
  ----------------------------------------
      1 H                     0.022488
      2 C                    -0.044942
      3 H                     0.022499
      4 C                    -0.045002
      5 H                     0.022478
      6 H                     0.022478
  ----------------------------------------
  Sum of atomic charges =     0.000000

 -----------------------------------------------------------------
                    Cartesian Multipole Moments
 -----------------------------------------------------------------
    Charge (ESU x 10^10)
                -0.0000
    Dipole Moment (Debye)
         X       0.0001      Y      -0.0000      Z      -0.0002
       Tot       0.0002
    Quadrupole Moments (Debye-Ang)
        XX     -12.3402     XY      -0.0529     YY     -12.3478
        XZ       0.1305     YZ       0.1648     ZZ     -15.1024
    Octopole Moments (Debye-Ang^2)
       XXX      57.8571    XXY       0.9962    XYY      19.2698
       YYY       2.3489    XXZ      -0.8167    XYZ      -0.2853
       YYZ       0.3328    XZZ      23.5413    YZZ       1.0311
       ZZZ      -0.0971
    Hexadecapole Moments (Debye-Ang^3)
      XXXX    -226.9284   XXXY       6.1938   XXYY     -47.1823
      XYYY       6.4966   YYYY     -44.2526   XXXZ       2.9581
      XXYZ       0.3510   XYYZ      -0.6068   YYYZ      -0.2052
      XXZZ     -48.2614   XYZZ       1.8952   YYZZ     -11.2626
      XZZZ      -0.0831   YZZZ      -0.5168   ZZZZ     -16.6597
 -----------------------------------------------------------------
 Calculating analytic gradient of the SCF energy
 Gradient of SCF Energy
            1           2           3           4           5           6
    1  -0.0001252  -0.0022491   0.0001145   0.0022287  -0.0007234   0.0007545
    2  -0.0000511   0.0021252   0.0000608  -0.0021004  -0.0008590   0.0008246
    3  -0.0064933   0.0000188   0.0064882   0.0000052   0.0064081  -0.0064270
 Max gradient component =       6.493E-03
 RMS gradient           =       3.233E-03
 Gradient time:  CPU 0.80 s  wall 0.52 s
 Geometry Optimization Parameters
   NAtoms,    NIC,     NZ,  NCons,   NDum,   NFix, NCnnct, MaxDiis
        6      27       0       0       0       0       0       0

 Cartesian Hessian Update
 Hessian updated using BFGS update


** GEOMETRY OPTIMIZATION IN DELOCALIZED INTERNAL COORDINATES **
   Searching for a Minimum

   Optimization Cycle:  10

                       Coordinates (Angstroms)
     ATOM                X               Y               Z
      1  H        -0.0202961570   -0.2451073329   -0.0154883435
      2  C        -1.0785871478   -0.5237871389   -0.0023617462
      3  H        -1.3022192855   -1.5951484782    0.0028980218
      4  C        -2.0440823188    0.3932037282    0.0067261459
      5  H        -1.8282326986    1.4548848421    0.1618772987
      6  H        -3.0946450992    0.1242496614   -0.1408522143
   Point Group: c1    Number of degrees of freedom:    12


   Energy is    -78.589233999

 Hessian updated using BFGS update

 12 Hessian modes will be used to form the next step
  Hessian Eigenvalues:
     0.029563    0.029564    0.032776    0.158156    0.160000    0.160001
     0.160010    0.311148    0.313475    0.313615    0.313737    0.745549

 Minimum search - taking simple RFO step
 Searching for Lamda that Minimizes Along All modes
 Value Taken    Lamda =  -0.00358931
 Calculated Step too Large.  Step scaled by  0.956691
 Step Taken.  Stepsize is  0.300000

                             Maximum     Tolerance    Cnvgd?
         Gradient           0.011440      0.000300      NO
         Displacement       0.299899      0.001200      NO
         Energy change     -0.004902      0.000001      NO


 New Cartesian Coordinates Obtained by Inverse Iteration

 Displacement from previous Coordinates is:  0.263973
 ----------------------------------------------------------------
             Standard Nuclear Orientation (Angstroms)
    I     Atom           X                Y                Z
 ----------------------------------------------------------------
    1      H      -0.0220758396    -0.2448099691     0.0543361628
    2      C      -1.0783690278    -0.5239890327    -0.0023461185
    3      H      -1.3033418369    -1.5926956364    -0.0668875481
[...]
    -0.090352   -0.021996   -0.005179    0.062880   -0.009930    0.002005
    -0.020575   -0.021880   -0.001702   -0.009930    0.061793    0.002720
    -0.005083   -0.001785   -0.010700    0.002005    0.002720    0.009223
    -0.002759   -0.025188   -0.001765   -0.019930   -0.018415   -0.001597
     0.001876   -0.003946   -0.000328   -0.017003   -0.092252   -0.005727
    -0.000141   -0.001573    0.002428   -0.001512   -0.005833   -0.010766
    -0.005399    0.006623    0.000075   -0.030027    0.019964   -0.000057
    -0.002654    0.002530   -0.000076    0.019964   -0.027958   -0.000500
    -0.000492    0.000374    0.001527   -0.000057   -0.000500   -0.003886
     0.001413   -0.000046    0.000474    0.002315    0.007018    0.000451
    -0.000002    0.001376    0.000618   -0.002250   -0.005149   -0.000525
     0.000476    0.000596   -0.008415   -0.000104   -0.000052    0.001524
    -0.001215    0.003534   -0.000459   -0.005398   -0.002654   -0.000491
     0.003534   -0.001996   -0.000681    0.006623    0.002530    0.000373
    -0.000461   -0.000682    0.012624    0.000075   -0.000076    0.001527


    -0.002759    0.001876   -0.000141   -0.005399   -0.002654   -0.000492
    -0.025188   -0.003946   -0.001573    0.006623    0.002530    0.000374
    -0.001765   -0.000328    0.002428    0.000075   -0.000076    0.001527
    -0.019930   -0.017003   -0.001512   -0.030027    0.019964   -0.000057
    -0.018415   -0.092252   -0.005833    0.019964   -0.027958   -0.000500
    -0.001597   -0.005727   -0.010766   -0.000057   -0.000500   -0.003886
     0.064498    0.061077    0.005711    0.002315    0.007018    0.000451
     0.061077    0.339506    0.021954   -0.002251   -0.005150   -0.000525
     0.005711    0.021954    0.025275   -0.000105   -0.000052    0.001523
     0.002315   -0.002251   -0.000105    0.062880   -0.009931    0.002003
     0.007018   -0.005150   -0.000052   -0.009931    0.061793    0.002720
     0.000451   -0.000525    0.001523    0.002003    0.002720    0.009223
    -0.002369    0.003484   -0.000467   -0.019929   -0.018412   -0.001596
     0.003484   -0.000838   -0.000671   -0.017000   -0.092253   -0.005726
    -0.000467   -0.000672    0.012607   -0.001512   -0.005831   -0.010767
     0.001413   -0.000002    0.000475   -0.090351   -0.020574   -0.005078
    -0.000046    0.001376    0.000595   -0.021995   -0.021880   -0.001783
     0.000474    0.000619   -0.008415   -0.005172   -0.001701   -0.010700


     0.001413   -0.000002    0.000476   -0.001215    0.003534   -0.000461
    -0.000046    0.001376    0.000596    0.003534   -0.001996   -0.000682
     0.000474    0.000618   -0.008415   -0.000459   -0.000681    0.012624
     0.002315   -0.002250   -0.000104   -0.005398    0.006623    0.000075
     0.007018   -0.005149   -0.000052   -0.002654    0.002530   -0.000076
     0.000451   -0.000525    0.001524   -0.000491    0.000373    0.001527
    -0.002369    0.003484   -0.000467    0.001413   -0.000046    0.000474
     0.003484   -0.000838   -0.000672   -0.000002    0.001376    0.000619
    -0.000467   -0.000671    0.012607    0.000475    0.000595   -0.008415
    -0.019929   -0.017000   -0.001512   -0.090351   -0.021995   -0.005172
    -0.018412   -0.092253   -0.005831   -0.020574   -0.021880   -0.001701
    -0.001596   -0.005726   -0.010767   -0.005078   -0.001783   -0.010700
     0.064494    0.061068    0.005708   -0.002760   -0.025190   -0.001765
     0.061068    0.339506    0.021949    0.001875   -0.003948   -0.000329
     0.005708    0.021949    0.025275   -0.000140   -0.001571    0.002428
    -0.002760    0.001875   -0.000140    0.332958    0.074745    0.019340
    -0.025190   -0.003948   -0.001571    0.074745    0.071336    0.006522
    -0.001765   -0.000329    0.002428    0.019340    0.006522    0.025016

 Eigenvectors of Proj. Mass-Weighted Hessian Matrix:


     0.020857    0.104966   -0.001625   -0.021393   -0.096667    0.130524
    -0.049738   -0.199875    0.025566    0.018926    0.059917    0.327419
     0.211897   -0.056500   -0.516041    0.239273    0.063845   -0.026657
     0.068793    0.209818   -0.103771   -0.070108   -0.376508    0.588369
    -0.008384   -0.157067    0.064682    0.048064    0.444227    0.580829
     0.109810    0.000541   -0.147395    0.838435   -0.083698    0.005084
    -0.000976   -0.103106   -0.067836   -0.024425   -0.169222    0.328268
     0.025332   -0.017580    0.003565    0.001666    0.147351    0.133216
    -0.300010    0.089689    0.284549    0.429116   -0.110118    0.031919
     0.148899    0.689393   -0.066645   -0.049330   -0.185598    0.116706
     0.070021    0.349170    0.098057    0.077080    0.645326    0.084300
     0.717595   -0.131120    0.437512    0.107848   -0.092655   -0.004188
     0.064065    0.363701    0.018441   -0.010187    0.006324   -0.123938
    -0.007463    0.073257    0.043593    0.034598    0.168409    0.059534
     0.539794   -0.127530   -0.200459   -0.154884    0.059009   -0.031658
     0.042224    0.155633   -0.047732   -0.013224   -0.066238    0.073808
     0.067578    0.255555    0.021614    0.017355    0.255834   -0.134662
     0.027889    0.018658    0.600119    0.034961   -0.114952    0.026917


    -0.153807    0.018465   -0.024400   -0.023543    0.194779    0.175323
     0.466036    0.025126   -0.020851   -0.031919   -0.345028   -0.425814
     0.014561   -0.396800    0.459874    0.499562   -0.012785   -0.017310
    -0.092574   -0.021506    0.011482   -0.000250    0.296510    0.197952
    -0.097488   -0.026867    0.014652    0.000572    0.312008   -0.188497
    -0.006367    0.427838   -0.267002   -0.000640    0.034509   -0.001869
     0.473247    0.020160   -0.015259    0.024442   -0.353680    0.435018
    -0.129631    0.023269   -0.029738    0.029932    0.176787   -0.153627
     0.007398   -0.396836    0.462227   -0.497356   -0.007647    0.011620
    -0.092580    0.021471    0.011514   -0.000274   -0.296514   -0.197976
    -0.097497    0.026838    0.014700    0.000574   -0.312008    0.188520
    -0.006372   -0.427240   -0.267966   -0.000643   -0.034502    0.001862
     0.473259   -0.020130   -0.015280    0.024437    0.353684   -0.434950
    -0.129622   -0.023193   -0.029790    0.029927   -0.176773    0.153604
     0.007427    0.395807    0.463115   -0.497358    0.007646   -0.011591
    -0.153804   -0.018374   -0.024412   -0.023526   -0.194770   -0.175308
     0.466036   -0.025100   -0.020903   -0.031894    0.345015    0.425755
     0.014574    0.395766    0.460755    0.499578    0.012762    0.017304


     0.100038   -0.060659   -0.469006   -0.463201   -0.458591    0.457566
    -0.462118   -0.224654   -0.135087   -0.130216   -0.115440    0.116538
    -0.024309   -0.016523   -0.030698   -0.030188   -0.028951    0.029041
    -0.164398   -0.453554    0.103656    0.133987    0.156392   -0.159570
     0.156134    0.430435   -0.098758   -0.127769    0.164098   -0.167591
     0.001505    0.004232   -0.000953   -0.001203    0.017382   -0.017777
     0.467103    0.221777    0.111290    0.106829   -0.091737    0.093056
    -0.076528    0.071752    0.475900    0.470200   -0.462378    0.461765
     0.019121    0.014944    0.033986    0.033478   -0.032316    0.032305
    -0.164342    0.453562    0.103751   -0.133926   -0.156575   -0.159382
     0.156087   -0.430440   -0.098842    0.127704   -0.164297   -0.167402
     0.001510   -0.004235   -0.000960    0.001208   -0.017392   -0.017747
     0.467151   -0.221802    0.111345   -0.106743    0.091834    0.092935
    -0.076536   -0.071760    0.476200   -0.469888    0.462931    0.461232
     0.019095   -0.014945    0.033996   -0.033448    0.032347    0.032260
     0.100066    0.060657   -0.469314    0.462905    0.459125    0.457025
    -0.462174    0.224680   -0.135171    0.130129    0.115572    0.116397
    -0.024311    0.016532   -0.030684    0.030140    0.028955    0.028975

 Vibrational Frequencies in atomic units
    -0.0000000000   -0.0000000000   -0.0000000000   -0.0000000000    0.0000000000    0.0000000000
     0.0258825687    0.0348260579    0.0355266521    0.0423049287    0.0571869460    0.0706170904
     0.0788951200    0.1087868216    0.3701808179    0.3742038887    0.3899224753    0.3966358438
 **********************************************************************
 **                                                                  **
 **                       VIBRATIONAL ANALYSIS                       **
 **                       --------------------                       **
 **                                                                  **
 **        VIBRATIONAL FREQUENCIES (CM**-1) AND NORMAL MODES         **
 **     FORCE CONSTANTS (mDYN/ANGSTROM) AND REDUCED MASSES (AMU)     **
 **                  INFRARED INTENSITIES (KM/MOL)                   **
 **                                                                  **
 **********************************************************************


 Mode:                 1                      2                      3
 Frequency:       827.01                 959.31                 968.91
 Force Cnst:      0.4201                 0.8243                 0.6420
 Red. Mass:       1.0424                 1.5202                 1.1607
 IR Active:          YES                    YES                    YES
 IR Intens:        0.626                  0.000                 72.451
 Raman Active:       YES                    YES                    YES
               X      Y      Z        X      Y      Z        X      Y      Z
 H         -0.156  0.474  0.015    0.023  0.031 -0.487   -0.026 -0.022  0.494
 C         -0.027 -0.029 -0.002   -0.008 -0.010  0.152    0.004  0.005 -0.083
 H          0.481 -0.132  0.008    0.025  0.029 -0.487   -0.016 -0.032  0.496
 C         -0.027 -0.029 -0.002    0.008  0.010 -0.152    0.004  0.005 -0.083
 H          0.481 -0.132  0.008   -0.025 -0.028  0.486   -0.016 -0.032  0.497
 H         -0.156  0.474  0.015   -0.023 -0.031  0.486   -0.026 -0.022  0.494
 TransDip   0.017  0.018 -0.002    0.000  0.000 -0.000   -0.013 -0.016  0.272

 Mode:                 4                      5                      6
 Frequency:      1057.31                1229.29                1366.03
 Force Cnst:      0.6638                 1.3629                 1.2838
 Red. Mass:       1.0078                 1.5307                 1.1677
 IR Active:          YES                    YES                    YES
 IR Intens:        0.000                  0.000                  0.000
 Raman Active:       YES                    YES                    YES
               X      Y      Z        X      Y      Z        X      Y      Z
 H         -0.024 -0.032  0.500    0.240 -0.425 -0.016    0.189 -0.458 -0.019
 C         -0.000  0.000 -0.000    0.106  0.111  0.012    0.062 -0.059 -0.001
 H          0.024  0.030 -0.497   -0.436  0.218 -0.009    0.468 -0.165  0.013
 C         -0.000  0.000 -0.000   -0.106 -0.111 -0.012   -0.062  0.059  0.001
 H          0.024  0.030 -0.497    0.436 -0.218  0.009   -0.468  0.165 -0.012
 H         -0.024 -0.032  0.500   -0.240  0.425  0.016   -0.189  0.458  0.019
 TransDip   0.000 -0.000  0.001    0.000 -0.000 -0.000    0.000 -0.000  0.000

 Mode:                 7                      8                      9
 Frequency:      1443.88                1695.48                3127.61
 Force Cnst:      1.3666                 6.0176                 6.0353
 Red. Mass:       1.1126                 3.5529                 1.0472
 IR Active:          YES                    YES                    YES
 IR Intens:        6.622                  0.000                 15.691
 Raman Active:       YES                    YES                    YES
               X      Y      Z        X      Y      Z        X      Y      Z
 H          0.105 -0.486 -0.026   -0.114 -0.422 -0.031   -0.478 -0.138 -0.031
 C         -0.050  0.048  0.000   -0.247  0.234  0.002    0.031 -0.029 -0.000
 H          0.491 -0.080  0.020    0.416  0.135  0.028    0.113  0.485  0.035
 C         -0.050  0.048  0.000    0.247 -0.234 -0.002    0.031 -0.029 -0.000
 H          0.491 -0.080  0.020   -0.416 -0.135 -0.028    0.113  0.485  0.035
 H          0.105 -0.486 -0.026    0.114  0.422  0.031   -0.478 -0.138 -0.031
 TransDip   0.060 -0.057 -0.001   -0.000  0.000 -0.000    0.092 -0.087 -0.001

 Mode:                10                     11                     12
 Frequency:      3144.56                3209.92                3237.44
 Force Cnst:      6.2649                 6.7591                 6.9041
 Red. Mass:       1.0753                 1.1134                 1.1180
 IR Active:          YES                    YES                    YES
 IR Intens:        0.000                  0.000                 24.193
 Raman Active:       YES                    YES                    YES
               X      Y      Z        X      Y      Z        X      Y      Z
 H         -0.478 -0.135 -0.031   -0.482 -0.121 -0.030    0.482  0.123  0.031
 C          0.040 -0.038 -0.000    0.048  0.050  0.005   -0.049 -0.051 -0.005
 H          0.110  0.486  0.035   -0.096 -0.486 -0.034    0.098  0.486  0.034
 C         -0.040  0.038  0.000   -0.048 -0.050 -0.005   -0.049 -0.051 -0.005
 H         -0.110 -0.485 -0.035    0.097  0.487  0.034    0.098  0.486  0.034
 H          0.478  0.134  0.031    0.483  0.121  0.030    0.481  0.123  0.031
 TransDip   0.000 -0.000 -0.000   -0.000 -0.000 -0.000   -0.108 -0.114 -0.012

 STANDARD THERMODYNAMIC QUANTITIES AT   298.15 K  AND     1.00 ATM

   This Molecule has  0 Imaginary Frequencies
   Zero point vibrational energy:       31.832 kcal/mol

   Atom    1 Element H  Has Mass    1.00783
   Atom    2 Element C  Has Mass   12.00000
   Atom    3 Element H  Has Mass    1.00783
   Atom    4 Element C  Has Mass   12.00000
   Atom    5 Element H  Has Mass    1.00783
   Atom    6 Element H  Has Mass    1.00783
   Molecular Mass:    28.031320 amu
   Principal axes and moments of inertia in amu*Bohr^2:
                             1           2           3
    Eigenvalues --       12.48775    60.27622    72.76397
          X               0.72507     0.68701    -0.04790
          Y              -0.68864     0.72260    -0.06021
          Z              -0.00675     0.07665     0.99704
   Rotational Symmetry Number is   1
   The Molecule is an Asymmetric Top
   Translational Enthalpy:        0.889 kcal/mol
   Rotational Enthalpy:           0.889 kcal/mol
   Vibrational Enthalpy:         31.968 kcal/mol
   gas constant (RT):             0.592 kcal/mol
   Translational Entropy:        35.927  cal/mol.K
   Rotational Entropy:           18.644  cal/mol.K
   Vibrational Entropy:           0.554  cal/mol.K

   Total Enthalpy:               34.338 kcal/mol
   Total Entropy:                55.125  cal/mol.K
 Total job time:  5.44s(wall), 16.28s(cpu) 
 Mon Mar 20 12:10:29 2023

======= MOLDEN-FORMATTED INPUT FILE FOLLOWS =======
[Molden Format]
[Atoms] (Angs)
  H      1    1     -0.02154694     -0.24697667      0.06512691
  C      2    6     -1.07791131     -0.52441882     -0.00236302
  H      3    1     -1.30120230     -1.59304187     -0.07769594
  C      4    6     -2.04475972      0.39384288      0.00660996
  H      5    1     -1.82150793      1.46247784      0.08192268
  H      6    1     -3.10113452      0.11641192     -0.06080143
[FREQ]
    827.00725713
    959.30739289
    968.90851848
   1057.30702088
   1229.28925279
   1366.03095955
   1443.87867780
   1695.48431579
   3127.60996260
   3144.55923952
   3209.92412593
   3237.43913199
[FR-COORD]
  H     -0.04071781     -0.46671826      0.12307201
  C     -2.03695716     -0.99100794     -0.00446546
  H     -2.45891598     -3.01041284     -0.14682404
  C     -3.86403586      0.74425518      0.01249101
  H     -3.44215112      2.76368258      0.15481144
  H     -5.86029491      0.21998664     -0.11489805
[FR-NORM-COORD]
vibration 1
    -0.15642448      0.47396745      0.01480831
    -0.02728492     -0.02873305     -0.00187668
     0.48130140     -0.13183688      0.00752353
    -0.02728647     -0.02873589     -0.00187808
     0.48131382     -0.13182822      0.00755323
    -0.15642172      0.47396705      0.01482206
vibration 2
     0.02267870      0.03085900     -0.48733686
    -0.00765446     -0.00956270      0.15227892
     0.02475969      0.02857786     -0.48738129
     0.00764194      0.00955221     -0.15206611
    -0.02472316     -0.02848486      0.48611723
    -0.02256624     -0.03082717      0.48606701
vibration 3
    -0.02618500     -0.02237630      0.49352291
     0.00357103      0.00455690     -0.08303972
    -0.01637532     -0.03191378      0.49604853
     0.00358095      0.00457172     -0.08333965
    -0.01639781     -0.03197020      0.49700095
    -0.02619877     -0.02243215      0.49446857
vibration 4
    -0.02354274     -0.03191873      0.49956283
    -0.00007258      0.00016563     -0.00018549
     0.02444200      0.02993212     -0.49735631
    -0.00007944      0.00016639     -0.00018622
     0.02443683      0.02992702     -0.49735858
    -0.02352598     -0.03189375      0.49957793
vibration 5
     0.24004778     -0.42521494     -0.01575665
     0.10590025      0.11143538      0.01232493
    -0.43587852      0.21787333     -0.00942397
    -0.10590160     -0.11143545     -0.01232244
     0.43588312     -0.21785698      0.00942339
    -0.24003637      0.42519940      0.01572753
vibration 6
     0.18871649     -0.45834300     -0.01863237
     0.06174951     -0.05879997     -0.00058295
     0.46825064     -0.16536273      0.01250789
    -0.06175701      0.05880736      0.00058086
    -0.46817728      0.16533825     -0.01247691
    -0.18870057      0.45827952      0.01862621
vibration 7
     0.10510844     -0.48553909     -0.02554080
    -0.05005786      0.04754140      0.00045830
     0.49077663     -0.08040624      0.02009020
    -0.05004066      0.04752701      0.00045968
     0.49082718     -0.08041464      0.02006308
     0.10513783     -0.48559774     -0.02554267
vibration 8
    -0.11389341     -0.42180883     -0.03102290
    -0.24679290      0.23421333      0.00230301
     0.41640677      0.13472108      0.02805941
     0.24679712     -0.23421613     -0.00230435
    -0.41645301     -0.13473619     -0.02806096
     0.11388936      0.42185730      0.03104038
vibration 9
    -0.47807671     -0.13769928     -0.03129150
     0.03062087     -0.02917392     -0.00028159
     0.11344286      0.48510393      0.03464361
     0.03064895     -0.02919871     -0.00028350
     0.11349864      0.48541014      0.03465391
    -0.47839043     -0.13778520     -0.03127760
vibration 10
    -0.47846095     -0.13450621     -0.03118294
     0.04010907     -0.03824775     -0.00036008
     0.11034845      0.48569034      0.03458070
    -0.04009080      0.03822830      0.00036170
    -0.11025994     -0.48536845     -0.03454984
     0.47815495      0.13441602      0.03113277
vibration 11
    -0.48200870     -0.12133484     -0.03042951
     0.04763729      0.04998466      0.00529470
    -0.09642194     -0.48598953     -0.03396672
    -0.04769297     -0.05004511     -0.00529776
     0.09652352      0.48657079      0.03399922
     0.48257012      0.12147331      0.03043346
vibration 12
     0.48193434      0.12274452      0.03058797
    -0.04870672     -0.05115496     -0.00542632
     0.09801206      0.48635704      0.03402502
    -0.04864918     -0.05109712     -0.00541705
     0.09788408      0.48579469      0.03397832
     0.48136388      0.12259585      0.03051817
[INT]
    0.626130
    0.000092
   72.450965
    0.000406
    0.000000
    0.000000
    6.622240
    0.000000
   15.691247
    0.000001
    0.000010
   24.193219

======= END OF MOLDEN-FORMATTED INPUT FILE =======


        *************************************************************
        *                                                           *
        *  Thank you very much for using Q-Chem.  Have a nice day.  *
        *                                                           *
        *************************************************************


