                  Welcome to Q-Chem
     A Quantum Leap Into The Future Of Chemistry


 Q-Chem 5.4 (devel), Q-Chem, Inc., Pleasanton, CA (2021)

 E. Epifanovsky,  A. T. B. Gilbert,  Xintian Feng,  Joonho Lee,  Yuezhi Mao,  
 N. Mardirossian,  P. Pokhilko,  A. White,  M. Wormit,  M. P. Coons,  
 A. L. Dempwolff,  Zhengting Gan,  D. Hait,  P. R. Horn,  L. D. Jacobson,  
 I. Kaliman,  J. Kussmann,  A. W. Lange,  Ka Un Lao,  D. S. Levine,  Jie Liu,  
 S. C. McKenzie,  A. F. Morrison,  K. Nanda,  F. Plasser,  D. R. Rehn,  
 M. L. Vidal,  Zhi-Qiang You,  Ying Zhu,  B. Alam,  B. Albrecht,  
 A. Aldossary,  E. Alguire,  J. H. Andersen,  D. Barton,  K. Begam,  A. Behn,  
 Y. A. Bernard,  E. J. Berquist,  H. Burton,  A. Carreras,  K. Carter-Fenk,  
 R. Chakraborty,  A. D. Chien,  K. D. Closser,  V. Cofer-Shabica,  
 S. Dasgupta,  Jia Deng,  M. de Wergifosse,  M. Diedenhofen,  Hainam Do,  
 S. Ehlert,  Po-Tung Fang,  S. Fatehi,  Qingguo Feng,  T. Friedhoff,  
 J. Gayvert,  Qinghui Ge,  G. Gidofalvi,  M. Goldey,  J. Gomes,  
 C. Gonzalez-Espinoza,  S. Gulania,  A. Gunina,  M. W. D. Hanson-Heine,  
 P. H. P. Harbach,  A. W. Hauser,  M. F. Herbst,  M. Hernandez Vera,  
 M. Hodecker,  Z. C. Holden,  S. Houck,  Xunkun Huang,  Kerwin Hui,  
 B. C. Huynh,  M. Ivanov,  Hyunjun Ji,  Hanjie Jiang,  B. Kaduk,  S. Kaehler,  
 K. Khistyaev,  Jaehoon Kim,  P. Klunzinger,  Z. Koczor-Benda,  
 Joong Hoon Koh,  D. Kosenkov,  L. Koulias,  T. Kowalczyk,  C. M. Krauter,  
 K. Kue,  A. Kunitsa,  T. Kus,  A. Landau,  K. V. Lawler,  D. Lefrancois,  
 S. Lehtola,  Rain Li,  Yi-Pei Li,  Jiashu Liang,  M. Liebenthal,  
 Hung-Hsuan Lin,  You-Sheng Lin,  Fenglai Liu,  Kuan-Yu Liu,  
 M. Loipersberger,  A. Luenser,  A. Manjanath,  P. Manohar,  E. Mansoor,  
 S. F. Manzer,  Shan-Ping Mao,  A. V. Marenich,  T. Markovich,  S. Mason,  
 S. A. Maurer,  P. F. McLaughlin,  M. F. S. J. Menger,  J.-M. Mewes,  
 S. A. Mewes,  P. Morgante,  J. W. Mullinax,  K. J. Oosterbaan,  G. Paran,  
 Alexander C. Paul,  Suranjan K. Paul,  F. Pavosevic,  Zheng Pei,  S. Prager,  
 E. I. Proynov,  E. Ramos,  B. Rana,  A. E. Rask,  A. Rettig,  R. M. Richard,  
 F. Rob,  E. Rossomme,  T. Scheele,  M. Scheurer,  M. Schneider,  
 N. Sergueev,  S. M. Sharada,  W. Skomorowski,  D. W. Small,  C. J. Stein,  
 Yu-Chuan Su,  E. J. Sundstrom,  Zhen Tao,  J. Thirman,  T. Tsuchimochi,  
 N. M. Tubman,  S. P. Veccham,  O. Vydrov,  J. Wenzel,  J. Witte,  A. Yamada,  
 Kun Yao,  S. Yeganeh,  S. R. Yost,  A. Zech,  Igor Ying Zhang,  Xing Zhang,  
 Yu Zhang,  D. Zuev,  A. Aspuru-Guzik,  A. T. Bell,  N. A. Besley,  
 K. B. Bravaya,  B. R. Brooks,  D. Casanova,  Jeng-Da Chai,  S. Coriani,  
 C. J. Cramer,  A. E. DePrince, III,  R. A. DiStasio Jr.,  A. Dreuw,  
 B. D. Dunietz,  T. R. Furlani,  W. A. Goddard III,  S. Grimme,  
 S. Hammes-Schiffer,  T. Head-Gordon,  W. J. Hehre,  Chao-Ping Hsu,  
 T.-C. Jagau,  Yousung Jung,  A. Klamt,  Jing Kong,  D. S. Lambrecht,  
 WanZhen Liang,  N. J. Mayhall,  C. W. McCurdy,  J. B. Neaton,  
 C. Ochsenfeld,  J. A. Parkhill,  R. Peverati,  V. A. Rassolov,  Yihan Shao,  
 L. V. Slipchenko,  T. Stauch,  R. P. Steele,  J. E. Subotnik,  
 A. J. W. Thom,  A. Tkatchenko,  D. G. Truhlar,  T. Van Voorhis,  
 T. A. Wesolowski,  K. B. Whaley,  H. L. Woodcock III,  P. M. Zimmerman,  
 S. Faraji,  P. M. W. Gill,  M. Head-Gordon,  J. M. Herbert,  A. I. Krylov

 Additional authors for Version 5.4.1: 
 S. Kotaru,  Shaozhi Li,  Xiangyuan Li,  F. Matz,  A. Molle,  Haisheng Ren,  
 Yingli Su,  Hung-Yi Tsai,  C. Utku,  Fang Wang

 Contributors to earlier versions of Q-Chem not listed above: 
 R. D. Adamson,  B. Austin,  R. Baer,  J. Baker,  G. J. O. Beran,  
 K. Brandhorst,  S. T. Brown,  E. F. C. Byrd,  A. K. Chakraborty,  
 G. K. L. Chan,  Chun-Min Chang,  Yunqing Chen,  C.-L. Cheng,  
 Siu Hung Chien,  D. M. Chipman,  D. L. Crittenden,  H. Dachsel,  
 R. J. Doerksen,  A. D. Dutoi,  R. G. Edgar,  J. Fosso-Tande,  
 L. Fusti-Molnar,  D. Ghosh,  A. Ghysels,  A. Golubeva-Zadorozhnaya,  
 J. Gonthier,  M. S. Gordon,  S. R. Gwaltney,  G. Hawkins,  J. E. Herr,  
 A. Heyden,  S. Hirata,  E. G. Hohenstein,  G. Kedziora,  F. J. Keil,  
 C. Kelley,  Jihan Kim,  R. A. King,  R. Z. Khaliullin,  P. P. Korambath,  
 W. Kurlancheek,  A. Laurent,  A. M. Lee,  M. S. Lee,  S. V. Levchenko,  
 Ching Yeh Lin,  D. Liotard,  E. Livshits,  R. C. Lochan,  I. Lotan,  
 L. A. Martinez-Martinez,  P. E. Maslen,  N. Nair,  D. P. O'Neill,  
 D. Neuhauser,  E. Neuscamman,  C. M. Oana,  R. Olivares-Amaya,  R. Olson,  
 T. M. Perrine,  B. Peters,  P. A. Pieniazek,  A. Prociuk,  Y. M. Rhee,  
 J. Ritchie,  M. A. Rohrdanz,  E. Rosta,  N. J. Russ,  H. F. Schaefer III,  
 M. W. Schmidt,  N. E. Schultz,  S. Sharma,  N. Shenvi,  C. D. Sherrill,  
 A. C. Simmonett,  A. Sodt,  T. Stein,  D. Stuck,  K. S. Thanthiriwatte,  
 V. Vanovschi,  L. Vogt,  Tao Wang,  A. Warshel,  M. A. Watson,  
 C. F. Williams,  Q. Wu,  X. Xu,  Jun Yang,  W. Zhang,  Yan Zhao

 Please cite Q-Chem as follows:
 Y. Shao et al., Mol. Phys. 113, 184-215 (2015)
 DOI: 10.1080/00268976.2014.952696

 Q-Chem 5.4.1 for Intel X86 EM64T Linux

 Parts of Q-Chem use Armadillo 9.800.1 (Horizon Scraper).
 http://arma.sourceforge.net/

 Q-Chem begins on Wed Mar 15 17:57:17 2023  

 Host: cpu121.yggdrasil
0

     Scratch files written to /srv/beegfs/scratch/users/f/fum/qchem94849//
 Processing $rem in /home/share/wesolowski/qc5.aug2021.FDE/config/preferences:
 Processing $rem in /home/fum/.qchemrc:

 Checking the input file for inconsistencies... 	...done.

--------------------------------------------------------------
User input:
--------------------------------------------------------------
$comment
generated from CCJob.Templates
$end

$rem
sym_ignore = true
method = adc(2)
ee_states = 10
basis = cc-pVDZ
mem_static = 1024
mem_total = 40000
adc_davidson_maxiter = 900
adc_davidson_conv = 6
adc_print = 3
adc_prop_es = true
adc_prop_es2es = true
adc_prop_tpa = true
molden_format = True
state_analysis = true
print_orbitals = 15
gen_scfman = false
fde_export_density = true
fde_details = 3
$end

$molecule
0 1
H -0.0348278765 -0.2442097827 0.0636489606
C -1.0765972949 -0.5242748755 -0.0023551776
H -1.313264467 -1.5767591607 -0.0757276926
C -2.003634118 0.3926884087 0.0061254933
H -1.8137616575 1.4459188338 0.0804456828
H -3.085977293 0.114931858 -0.0593381042                     
$end
--------------------------------------------------------------
 ----------------------------------------------------------------
             Standard Nuclear Orientation (Angstroms)
    I     Atom           X                Y                Z
 ----------------------------------------------------------------
    1      H      -0.0348278765    -0.2442097827     0.0636489606
    2      C      -1.0765972949    -0.5242748755    -0.0023551776
    3      H      -1.3132644670    -1.5767591607    -0.0757276926
    4      C      -2.0036341180     0.3926884087     0.0061254933
    5      H      -1.8137616575     1.4459188338     0.0804456828
    6      H      -3.0859772930     0.1149318580    -0.0593381042
 ----------------------------------------------------------------
 Nuclear Repulsion Energy =          33.69613152 hartrees
 There are        8 alpha and        8 beta electrons
 Requested basis set is cc-pVDZ
 There are 24 shells and 48 basis functions
 Total memory of 40000 MB is distributed as follows: 
   MEM_STATIC is set to 1024 MB
   QALLOC/CCMAN JOB total memory use is  38976 MB
 Warning: actual memory use might exceed 40000 MB

 Total QAlloc Memory Limit  40000 MB
 Mega-Array Size      1001 MB
 MEM_STATIC part      1024 MB

                       Distance Matrix (Angstroms)
             H (  1)   C (  2)   H (  3)   C (  4)   H (  5)
   C (  2)  1.080776
   H (  3)  1.851895  1.081258
   C (  4)  2.070059  1.303952  2.088548
   H (  5)  2.453859  2.105215  3.067812  1.072786
   H (  6)  3.074674  2.109370  2.450428  1.119331  1.846510

 A cutoff of  1.0D-11 yielded    300 shell pairs
 There are      1220 function pairs (      1329 Cartesian)
 Smallest overlap matrix eigenvalue = 4.32E-03

 Scale SEOQF with 1.000000e-01/1.000000e-01/1.000000e+00

 Standard Electronic Orientation quadrupole field applied
 Nucleus-field energy     =     0.0000000021 hartrees
 Guess from superposition of atomic densities
 Warning:  Energy on first SCF cycle will be non-variational
 SAD guess density has 16.000000 electrons
 A restricted Hartree-Fock SCF calculation will be
 performed using Pulay DIIS extrapolation
 SCF converges when DIIS error is below 1.0E-08
 using 10 threads for integral computing
 -------------------------------------------------------
 OpenMP Integral computing Module                
 Release: version 1.0, May 2013, Q-Chem Inc. Pittsburgh 
 -------------------------------------------------------
 ---------------------------------------
  Cycle       Energy         DIIS Error
 ---------------------------------------
    1     -78.4759471253      1.03E-01
    2     -78.0160498633      7.33E-03
    3     -78.0369523225      1.91E-03
    4     -78.0384812860      6.20E-04
    5     -78.0386237848      5.99E-05
    6     -78.0386257402      1.15E-05
    7     -78.0386258181      5.03E-06
    8     -78.0386258272      1.08E-06
    9     -78.0386258283      3.39E-07
   10     -78.0386258284      7.83E-08
   11     -78.0386258284      6.14E-09 Convergence criterion met
 ---------------------------------------
 SCF time:  CPU 2.10 s  wall 3.13 s
 SCF   energy in the final basis set = -78.03862583
 Total energy in the final basis set = -78.03862583
Exporting Density Matrix to file 'Densmat_SCF.txt'.
Export successful
================================================================================
|                                                                              |
|                                 A D C  M A N                                 |
|                                                                              |
 ------------------------------------------------------------------------------ 
|                                                                              |
| Components:                                                                  |
|                                                                              |
| - libvmm - 1.3-trunk                                                         |
|   Authors:                                                                   |
|   Evgeny Epifanovsky, Ilya Kaliman                                           |
|                                                                              |
| - libtensor - 2.5-trunk                                                      |
|   Authors:                                                                   |
|   Evgeny Epifanovsky, Michael Wormit, Dmitry Zuev, Sam Manzer,               |
|   Ilya Kaliman                                                               |
|                                                                              |
| - libwfa - 1.1-trunk                                                         |
|   Authors:                                                                   |
|   Felix Plasser, Stefanie Mewes (Baeppler), Benjamin Thomitzni,              |
|   Michael Wormit, Feng Chen, Anna I. Krylov, Pavel Pokhilko                  |
|                                                                              |
| - libadc - 1.1-trunk                                                         |
|   Authors:                                                                   |
|   Michael Wormit, Adrian L. Dempwolff, Philipp H. P. Harbach,                |
|   Caroline Krauter, Dirk Rehn, Matthias Schneider, Jan Wenzel                |
|                                                                              |
| - adcman - 2.6-trunk                                                         |
|   Authors:                                                                   |
|   Michael Wormit, Adrian L. Dempwolff, Philipp H. P. Harbach,                |
|   Caroline Krauter, Daniel Lefrancois, Jan-Michael Mewes, Dirk Rehn,         |
|   Matthias Schneider, Jan Wenzel, Andreas Dreuw                              |
|                                                                              |
| Authors of earlier versions of ADCMAN:                                       |
| Andreas Dreuw, Jan Hendrik Starcke, Dirk Rehn, Michael Wormit                |
|                                                                              |
================================================================================

 Created directory /srv/beegfs/scratch/users/f/fum/qchem94849/plots
  Import QC data ...  CPU 0.00 s  wall 0.01 s

 Alpha MOs, Restricted
 -- Occupied --                  
-11.233 -11.230  -1.040  -0.785  -0.640  -0.589  -0.495  -0.381
  1 A     2 A     3 A     4 A     5 A     6 A     7 A     8 A                  
 -- Virtual --                   
  0.175   0.204   0.230   0.239   0.305   0.468   0.574   0.614
  9 A    10 A    11 A    12 A    13 A    14 A    15 A    16 A                  
  0.683   0.707   0.790   0.811   0.856   0.936   0.988   1.009
 17 A    18 A    19 A    20 A    21 A    22 A    23 A    24 A                  
  1.127   1.244   1.253   1.275   1.298   1.589   1.730   1.758
 25 A    26 A    27 A    28 A    29 A    30 A    31 A    32 A                  
  1.821   1.862   1.878   1.921   1.960   1.986   2.240   2.274
 33 A    34 A    35 A    36 A    37 A    38 A    39 A    40 A                  
  2.376   2.444   2.511   2.657   2.691   2.830   3.130   3.426
 41 A    42 A    43 A    44 A    45 A    46 A    47 A    48 A                  

 Beta MOs, Restricted
 -- Occupied --                  
-11.233 -11.230  -1.040  -0.785  -0.640  -0.589  -0.495  -0.381
  1 A     2 A     3 A     4 A     5 A     6 A     7 A     8 A                  
 -- Virtual --                   
  0.175   0.204   0.230   0.239   0.305   0.468   0.574   0.614
  9 A    10 A    11 A    12 A    13 A    14 A    15 A    16 A                  
  0.683   0.707   0.790   0.811   0.856   0.936   0.988   1.009
 17 A    18 A    19 A    20 A    21 A    22 A    23 A    24 A                  
  1.127   1.244   1.253   1.275   1.298   1.589   1.730   1.758
 25 A    26 A    27 A    28 A    29 A    30 A    31 A    32 A                  
  1.821   1.862   1.878   1.921   1.960   1.986   2.240   2.274
 33 A    34 A    35 A    36 A    37 A    38 A    39 A    40 A                  
  2.376   2.444   2.511   2.657   2.691   2.830   3.130   3.426
 41 A    42 A    43 A    44 A    45 A    46 A    47 A    48 A                  
  Import AO data ...  CPU 0.01 s  wall 0.07 s
  Using point group: C1
  Irreducible representations in point group: A
  Molecular orbitals: 
  Occupied MOs:
  Block   0:   1 (  A) A   2 (  A) A   3 (  A) A   4 (  A) A   5 (  A) A
                  -11.23      -11.23       -1.04     -0.7853       -0.64
               6 (  A) A   7 (  A) A   8 (  A) A
                 -0.5888      -0.495     -0.3814
  Block   1:   1 (  A) B   2 (  A) B   3 (  A) B   4 (  A) B   5 (  A) B
                  -11.23      -11.23       -1.04     -0.7853       -0.64
               6 (  A) B   7 (  A) B   8 (  A) B
                 -0.5888      -0.495     -0.3814
  Virtual MOs:
  Block   0:   9 (  A) A  10 (  A) A  11 (  A) A  12 (  A) A  13 (  A) A
                   0.175      0.2037      0.2304      0.2386      0.3048
              14 (  A) A  15 (  A) A  16 (  A) A  17 (  A) A  18 (  A) A
                  0.4682      0.5737      0.6141      0.6826      0.7068
              19 (  A) A  20 (  A) A  21 (  A) A  22 (  A) A
                  0.7897       0.811      0.8561      0.9364
  Block   1:  23 (  A) A  24 (  A) A  25 (  A) A  26 (  A) A  27 (  A) A
                   0.988       1.009       1.127       1.244       1.253
              28 (  A) A  29 (  A) A  30 (  A) A  31 (  A) A  32 (  A) A
                   1.275       1.298       1.589        1.73       1.758
              33 (  A) A  34 (  A) A  35 (  A) A  36 (  A) A
                   1.821       1.862       1.878       1.921
  Block   2:  37 (  A) A  38 (  A) A  39 (  A) A  40 (  A) A  41 (  A) A
                    1.96       1.986        2.24       2.274       2.376
              42 (  A) A  43 (  A) A  44 (  A) A  45 (  A) A  46 (  A) A
                   2.444       2.511       2.657       2.691        2.83
              47 (  A) A  48 (  A) A
                    3.13       3.426
  Block   3:   9 (  A) B  10 (  A) B  11 (  A) B  12 (  A) B  13 (  A) B
                   0.175      0.2037      0.2304      0.2386      0.3048
              14 (  A) B  15 (  A) B  16 (  A) B  17 (  A) B  18 (  A) B
                  0.4682      0.5737      0.6141      0.6826      0.7068
              19 (  A) B  20 (  A) B  21 (  A) B  22 (  A) B
                  0.7897       0.811      0.8561      0.9364
  Block   4:  23 (  A) B  24 (  A) B  25 (  A) B  26 (  A) B  27 (  A) B
                   0.988       1.009       1.127       1.244       1.253
              28 (  A) B  29 (  A) B  30 (  A) B  31 (  A) B  32 (  A) B
                   1.275       1.298       1.589        1.73       1.758
              33 (  A) B  34 (  A) B  35 (  A) B  36 (  A) B
                   1.821       1.862       1.878       1.921
  Block   5:  37 (  A) B  38 (  A) B  39 (  A) B  40 (  A) B  41 (  A) B
                    1.96       1.986        2.24       2.274       2.376
              42 (  A) B  43 (  A) B  44 (  A) B  45 (  A) B  46 (  A) B
                   2.444       2.511       2.657       2.691        2.83
              47 (  A) B  48 (  A) B
                    3.13       3.426
  Import MO data ...  CPU 0.01 s  wall 0.01 s
  Import HF data ...  CPU 0.07 s  wall 0.04 s
  Import 2e integrals ...  CPU 0.89 s  wall 0.15 s

--------------------------------------------------------------------------------
                                   HF Summary                                   
--------------------------------------------------------------------------------
  Energy:                                                  -78.0386258284 a.u.
  Dip. moment [a.u.]:                  [   0.005516,    0.005848,    0.002090]
  Total dipole [Debye]:                                               0.021113
  <r^2> [a.u.]:                        [ 172.003569,   34.846591,   11.567711]
  Total <r^2> [a.u.]:                                               218.417870
--------------------------------------------------------------------------------
  HF properties ...  CPU 0.01 s  wall 0.00 s
  MP(1) calculation ...  CPU 0.01 s  wall 0.00 s
  N^6 prerequesite intermediates ...  CPU 0.43 s  wall 0.07 s
  Difference density matrix of state mp2_gs printed to ASCII file 'State_mp2_gs_Difference.txt'
Exporting MP density matrix to file 'Densmat_MP.txt'.
Export successful
  Total density matrix of state mp2_gs printed to ASCII file 'State_mp2_gs_Total.txt'
Exporting MP density matrix to file 'Densmat_MP.txt'.
Export successful

--------------------------------------------------------------------------------
                                 MP(2) Summary                                  
--------------------------------------------------------------------------------
  MP energy contribution:                                   -0.2785177724 a.u.
  Total energy:                                            -78.3171436009 a.u.
  Dip. moment [a.u.]:                  [   0.004412,    0.004562,    0.001944]
  Total dipole [Debye]:                                               0.016871
  <r^2> [a.u.]:                        [ 172.036155,   34.897960,   11.416629]
  Total <r^2> [a.u.]:                                               218.350745

  Density matrix analysis:
  ------------------------
  NOs
    Occupation of frontier NOs:
       0.0430   1.9403
    Number of electrons: 16.000000
    Number of unpaired electrons: n_u =  0.39834, n_u,nl =  0.04323
    NO participation ratio (PR_NO): 14.112218
  
  
  Mulliken Population Analysis
  Atom      Charge (e)              h+              e-           Del q
  --------------------------------------------------------------------
   1 H        0.048099        0.014150       -0.011135        0.003015
   2 C       -0.086966        0.090362       -0.096053       -0.005691
   3 H        0.050144        0.013951       -0.011188        0.002763
   4 C       -0.111812        0.091769       -0.097555       -0.005786
   5 H        0.047484        0.014166       -0.011245        0.002921
   6 H        0.053051        0.014017       -0.011237        0.002780
  --------------------------------------------------------------------
  Sum:        0.000000        0.238414       -0.238414       -0.000000
  
  Multipole moment analysis of the density matrix
    Molecular charge:                      0.000000
    Number of electrons:                   16.000000
      Center of electronic charge [Ang]: [ -1.545722,  -0.065753,   0.001914]
    Total nuclear charge:                  16.000000
      Center of nuclear charge [Ang]:    [ -1.545576,  -0.065602,   0.001978]
    Dipole moment [D]:                     0.016871
      Cartesian components [D]:          [  0.011214,   0.011596,   0.004940]
    RMS size of the density [Ang]:         1.194966
      Cartesian components [Ang]:        [  0.788468,   0.778751,   0.446999]
  
  Exciton analysis of the difference density matrix
    <r_h> [Ang]:                  [ -1.551764,  -0.066093,   0.001371]
    <r_e> [Ang]:                  [ -1.549313,  -0.063239,   0.001697]
    |<r_e - r_h>| [Ang]:            0.003776
    Hole size [Ang]:                1.385535
      Cartesian components [Ang]: [  0.847062,   0.830976,   0.715312]
    Electron size [Ang]:            1.359719
      Cartesian components [Ang]: [  0.873722,   0.866733,   0.578115]
--------------------------------------------------------------------------------
  MP(2) calculation ...  CPU 0.11 s  wall 0.32 s
  Start ADC(2)-s ...  CPU 0.01 s  wall 0.00 s
  ADC(2) intermediates ...  CPU 0.02 s  wall 0.02 s
  Starting Davidson for singlet states of irrep A ... 
--------------------------------------------------------------------------------
   It NVec Conv  Avg. Norm  Max. Norm  Conv. states           Remark
--------------------------------------------------------------------------------
        10    0  1.333e-01  4.719e-01  0.4176 n n n n n n n n Guess.
    1   20    0  2.485e-02  1.354e-01  0.3335 n n n n n n n n 
    2   30    0  6.512e-03  3.993e-02  0.3308 n n n n n n n n 
    3   40    0  2.273e-03  1.743e-02  0.3305 n n n n n n n n 
    4   50    0  7.675e-04  6.485e-03  0.3304 n n n n n n n n 
    5   20    0  4.836e-04  4.374e-03  0.3304 n n n n n n n n Subspace collapsed.
    6   30    0  7.952e-04  7.869e-03  0.3304 n n n n n n n n 
    7   40    0  5.747e-04  5.707e-03  0.3304 n n n n n n n n 
    8   50    0  4.216e-04  4.199e-03  0.3304 n n n n n n n n 
    9   20    1  2.398e-04  2.390e-03  0.3304 n y n n n n n n Subspace collapsed.
   10   30    2  1.957e-04  1.952e-03  0.3304 n y n y n n n n 
   11   40    3  9.008e-05  8.980e-04  0.3304 n y n y y n n n 
   12   50    6  7.400e-05  7.387e-04  0.3304 y y y y y y n n 
   13   20    6  5.737e-05  5.729e-04  0.3304 y y y y y y n n Subspace collapsed.
   14   30    6  8.233e-05  8.217e-04  0.3304 y y y y y y n n 
   15   40    6  7.742e-05  7.710e-04  0.3304 y y y y y y n n 
   16   50    6  5.095e-05  5.048e-04  0.3304 y y y y y y n n 
   17   20    7  3.001e-05  2.971e-04  0.3304 y y y y y y y n Subspace collapsed.
   18   30    7  2.341e-05  2.318e-04  0.3304 y y y y y y y n 
   19   40    7  1.713e-05  1.694e-04  0.3304 y y y y y y y n 
   20   50    8  9.608e-06  9.466e-05  0.3304 y y y y y y y y 
   21   20    8  7.392e-06  7.276e-05  0.3304 y y y y y y y y Subspace collapsed.
   22   30    8  1.138e-05  1.111e-04  0.3304 y y y y y y y y 
   23   39    8  9.856e-06  9.248e-05  0.3304 y y y y y y y y 
   24   48    8  5.892e-06  4.994e-05  0.3304 y y y y y y y y 
   25   50    8  5.877e-06  4.975e-05  0.3304 y y y y y y y y 
   26   16    8  2.645e-06  2.228e-05  0.3304 y y y y y y y y Subspace collapsed.
   27   16    8  2.645e-06  2.228e-05  0.3304 y y y y y y y y 
   28   26    8  2.074e-06  1.723e-05  0.3304 y y y y y y y y 
   29   31    8  1.044e-06  8.304e-06  0.3304 y y y y y y y y 
   30   36    8  7.650e-07  6.048e-06  0.3304 y y y y y y y y 
   31   41    8  7.149e-07  5.285e-06  0.3304 y y y y y y y y 
   32   46    8  7.893e-07  6.241e-06  0.3304 y y y y y y y y 
   33   50    8  8.063e-07  7.210e-06  0.3304 y y y y y y y y 
   34   14    8  5.346e-07  4.825e-06  0.3304 y y y y y y y y Subspace collapsed.
   35   18    8  3.544e-07  3.198e-06  0.3304 y y y y y y y y 
   36   22    8  2.763e-07  2.527e-06  0.3304 y y y y y y y y 
   37   26    9  2.541e-07  2.378e-06  0.3304 y y y y y y y y 
   38   30    9  2.980e-07  2.855e-06  0.3304 y y y y y y y y 
   39   34    9  4.001e-07  3.921e-06  0.3304 y y y y y y y y 
   40   38    9  4.350e-07  4.313e-06  0.3304 y y y y y y y y 
   41   38    9  4.350e-07  4.313e-06  0.3304 y y y y y y y y 
   42   40    9  4.279e-07  4.243e-06  0.3304 y y y y y y y y 
   43   44    9  2.824e-07  2.810e-06  0.3304 y y y y y y y y 
   44   47    9  1.937e-07  1.930e-06  0.3304 y y y y y y y y 
   45   50    9  1.051e-07  1.048e-06  0.3304 y y y y y y y y 
   46   13   10  4.527e-08  4.515e-07  0.3304 y y y y y y y y Converged.
--------------------------------------------------------------------------------
  Davidson Summary: 
 ------------------------------------------------------------
  State  0: excitation energy =   0.3304 a.u.   (converged)
  State  1: excitation energy =   0.3314 a.u.   (converged)
  State  2: excitation energy =   0.3412 a.u.   (converged)
  State  3: excitation energy =   0.3620 a.u.   (converged)
  State  4: excitation energy =   0.3814 a.u.   (converged)
  State  5: excitation energy =   0.3971 a.u.   (converged)
  State  6: excitation energy =   0.4174 a.u.   (converged)
  State  7: excitation energy =   0.4527 a.u.   (converged)
  State  8: excitation energy =   0.4546 a.u.   (converged)
  State  9: excitation energy =   0.4620 a.u.   (converged)
 ------------------------------------------------------------

  Singlet states of irrep A ...  CPU 130.54 s  wall 32.69 s
  TDMs ...  CPU 0.58 s  wall 0.23 s
  SDMs ...  CPU 1.36 s  wall 0.44 s
  Starting TPA DIIS iterations ... 
------------------------------------ 
   It     Res. Norm  Remark
------------------------------------
                       Guess.
    1     3.954e+00  
    2     5.151e+00  
    3     1.030e+00  
    4     2.483e-01  
    5     5.684e-02  
    6     2.537e-02  
    7     7.695e-03  
    8     1.583e-03  
    9     5.926e-04  
   10     9.654e-05  
   11     3.283e-05  
   12     4.871e-06  
   13     1.831e-06  
   14     5.136e-07  Converged.
   ... Converged in 14 steps (norm: 5.13599e-07)
------------------------------------
  Starting TPA DIIS iterations ... 
------------------------------------ 
   It     Res. Norm  Remark
------------------------------------
                       Guess.
    1     3.957e+00  
    2     5.123e+00  
    3     9.843e-01  
    4     2.296e-01  
    5     5.652e-02  
    6     2.368e-02  
    7     7.434e-03  
    8     1.406e-03  
    9     5.394e-04  
   10     8.780e-05  
   11     2.837e-05  
   12     4.348e-06  
   13     1.631e-06  
   14     4.567e-07  Converged.
   ... Converged in 14 steps (norm: 4.56666e-07)
------------------------------------
  Starting TPA DIIS iterations ... 
------------------------------------ 
   It     Res. Norm  Remark
------------------------------------
                       Guess.
    1     6.865e-01  
    2     4.790e-01  
    3     1.684e-01  
    4     5.022e-02  
    5     1.797e-02  
    6     7.077e-03  
    7     1.214e-03  
    8     4.463e-04  
    9     2.020e-04  
   10     4.588e-05  
   11     2.807e-05  
   12     9.052e-06  
   13     4.837e-06  
   14     2.001e-06  
   15     6.811e-07  Converged.
   ... Converged in 15 steps (norm: 6.8113e-07)
------------------------------------
  Starting TPA DIIS iterations ... 
------------------------------------ 
   It     Res. Norm  Remark
------------------------------------
                       Guess.
    1     3.973e+00  
    2     5.184e+00  
    3     1.036e+00  
    4     2.503e-01  
    5     5.737e-02  
    6     2.563e-02  
    7     7.774e-03  
    8     1.599e-03  
    9     5.990e-04  
   10     9.763e-05  
   11     3.322e-05  
   12     4.932e-06  
   13     1.856e-06  
   14     5.206e-07  Converged.
   ... Converged in 14 steps (norm: 5.20576e-07)
------------------------------------
  Starting TPA DIIS iterations ... 
------------------------------------ 
   It     Res. Norm  Remark
------------------------------------
                       Guess.
    1     3.976e+00  
    2     5.156e+00  
    3     9.897e-01  
    4     2.315e-01  
    5     5.704e-02  
    6     2.392e-02  
    7     7.509e-03  
    8     1.420e-03  
    9     5.451e-04  
   10     8.878e-05  
   11     2.870e-05  
   12     4.403e-06  
   13     1.654e-06  
   14     4.627e-07  Converged.
   ... Converged in 14 steps (norm: 4.62721e-07)
------------------------------------
  Starting TPA DIIS iterations ... 
------------------------------------ 
   It     Res. Norm  Remark
------------------------------------
                       Guess.
    1     6.874e-01  
    2     4.803e-01  
    3     1.691e-01  
    4     5.066e-02  
    5     1.810e-02  
    6     7.125e-03  
    7     1.226e-03  
    8     4.508e-04  
    9     2.043e-04  
   10     4.666e-05  
   11     2.847e-05  
   12     9.186e-06  
   13     4.926e-06  
   14     2.045e-06  
   15     6.935e-07  Converged.
   ... Converged in 15 steps (norm: 6.93459e-07)
------------------------------------
  Starting TPA DIIS iterations ... 
------------------------------------ 
   It     Res. Norm  Remark
------------------------------------
                       Guess.
    1     4.181e+00  
    2     5.552e+00  
    3     1.099e+00  
    4     2.728e-01  
    5     6.334e-02  
    6     2.860e-02  
    7     8.668e-03  
    8     1.784e-03  
    9     6.715e-04  
   10     1.100e-04  
   11     3.771e-05  
   12     5.643e-06  
   13     2.147e-06  
   14     6.019e-07  Converged.
   ... Converged in 14 steps (norm: 6.01925e-07)
------------------------------------
  Starting TPA DIIS iterations ... 
------------------------------------ 
   It     Res. Norm  Remark
------------------------------------
                       Guess.
    1     4.183e+00  
    2     5.523e+00  
    3     1.050e+00  
    4     2.521e-01  
    5     6.300e-02  
    6     2.666e-02  
    7     8.360e-03  
    8     1.580e-03  
    9     6.107e-04  
   10     1.000e-04  
   11     3.257e-05  
   12     5.042e-06  
   13     1.916e-06  
   14     5.330e-07  Converged.
   ... Converged in 14 steps (norm: 5.3297e-07)
------------------------------------
  Starting TPA DIIS iterations ... 
------------------------------------ 
   It     Res. Norm  Remark
------------------------------------
                       Guess.
    1     6.976e-01  
    2     4.947e-01  
    3     1.772e-01  
    4     5.562e-02  
    5     1.945e-02  
    6     7.667e-03  
    7     1.361e-03  
    8     5.016e-04  
    9     2.307e-04  
   10     5.601e-05  
   11     3.311e-05  
   12     1.078e-05  
   13     6.000e-06  
   14     2.581e-06  
   15     8.360e-07  Converged.
   ... Converged in 15 steps (norm: 8.36013e-07)
------------------------------------
  Starting TPA DIIS iterations ... 
------------------------------------ 
   It     Res. Norm  Remark
------------------------------------
                       Guess.
    1     4.681e+00  
    2     6.461e+00  
    3     1.250e+00  
    4     3.307e-01  
    5     7.865e-02  
    6     3.631e-02  
    7     1.097e-02  
    8     2.259e-03  
    9     8.597e-04  
   10     1.424e-04  
   11     4.960e-05  
   12     7.543e-06  
   13     2.956e-06  
   14     8.272e-07  Converged.
   ... Converged in 14 steps (norm: 8.27182e-07)
------------------------------------
  Starting TPA DIIS iterations ... 
------------------------------------ 
   It     Res. Norm  Remark
------------------------------------
                       Guess.
    1     4.684e+00  
    2     6.427e+00  
    3     1.195e+00  
    4     3.050e-01  
    5     7.824e-02  
    6     3.374e-02  
    7     1.055e-02  
    8     1.993e-03  
    9     7.810e-04  
   10     1.293e-04  
   11     4.285e-05  
   12     6.761e-06  
   13     2.648e-06  
   14     7.243e-07  Converged.
   ... Converged in 14 steps (norm: 7.24252e-07)
------------------------------------
  Starting TPA DIIS iterations ... 
------------------------------------ 
   It     Res. Norm  Remark
------------------------------------
                       Guess.
    1     7.199e-01  
    2     5.276e-01  
    3     1.963e-01  
    4     6.870e-02  
    5     2.259e-02  
    6     9.034e-03  
    7     1.716e-03  
    8     6.253e-04  
    9     2.986e-04  
   10     8.260e-05  
   11     4.612e-05  
   12     1.550e-05  
   13     9.248e-06  
   14     4.247e-06  
   15     1.218e-06  
   16     3.936e-07  Converged.
   ... Converged in 16 steps (norm: 3.93599e-07)
------------------------------------
  Starting TPA DIIS iterations ... 
------------------------------------ 
   It     Res. Norm  Remark
------------------------------------
                       Guess.
    1     5.249e+00  
    2     7.528e+00  
    3     1.421e+00  
    4     4.021e-01  
    5     9.749e-02  
    6     4.598e-02  
    7     1.383e-02  
    8     2.846e-03  
    9     1.095e-03  
   10     1.831e-04  
   11     6.481e-05  
   12     1.000e-05  
   13     4.064e-06  
   14     1.141e-06  
   15     5.781e-07  Converged.
   ... Converged in 15 steps (norm: 5.78081e-07)
------------------------------------
  Starting TPA DIIS iterations ... 
------------------------------------ 
   It     Res. Norm  Remark
------------------------------------
                       Guess.
    1     5.252e+00  
    2     7.488e+00  
    3     1.359e+00  
    4     3.698e-01  
    5     9.697e-02  
    6     4.260e-02  
    7     1.325e-02  
    8     2.502e-03  
    9     9.941e-04  
   10     1.661e-04  
   11     5.612e-05  
   12     9.007e-06  
   13     3.656e-06  
   14     9.831e-07  Converged.
   ... Converged in 14 steps (norm: 9.83106e-07)
------------------------------------
  Starting TPA DIIS iterations ... 
------------------------------------ 
   It     Res. Norm  Remark
------------------------------------
                       Guess.
    1     7.422e-01  
    2     5.623e-01  
    3     2.172e-01  
    4     8.543e-02  
    5     2.605e-02  
    6     1.070e-02  
    7     2.168e-03  
    8     7.616e-04  
    9     3.824e-04  
   10     1.195e-04  
   11     6.420e-05  
   12     2.258e-05  
   13     1.438e-05  
   14     6.790e-06  
   15     1.747e-06  
   16     5.708e-07  Converged.
   ... Converged in 16 steps (norm: 5.70825e-07)
------------------------------------
  Starting TPA DIIS iterations ... 
------------------------------------ 
   It     Res. Norm  Remark
------------------------------------
                       Guess.
    1     5.793e+00  
    2     8.582e+00  
    3     1.583e+00  
    4     4.757e-01  
    5     1.169e-01  
    6     5.608e-02  
    7     1.679e-02  
    8     3.450e-03  
    9     1.340e-03  
   10     2.256e-04  
   11     8.084e-05  
   12     1.262e-05  
   13     5.312e-06  
   14     1.511e-06  
   15     8.364e-07  Converged.
   ... Converged in 15 steps (norm: 8.36366e-07)
------------------------------------
  Starting TPA DIIS iterations ... 
------------------------------------ 
   It     Res. Norm  Remark
------------------------------------
                       Guess.
    1     5.796e+00  
    2     8.537e+00  
    3     1.515e+00  
    4     4.365e-01  
    5     1.162e-01  
    6     5.183e-02  
    7     1.604e-02  
    8     3.025e-03  
    9     1.216e-03  
   10     2.046e-04  
   11     7.028e-05  
   12     1.143e-05  
   13     4.804e-06  
   14     1.280e-06  
   15     6.567e-07  Converged.
   ... Converged in 15 steps (norm: 6.56703e-07)
------------------------------------
  Starting TPA DIIS iterations ... 
------------------------------------ 
   It     Res. Norm  Remark
------------------------------------
                       Guess.
    1     7.611e-01  
    2     5.934e-01  
    3     2.366e-01  
    4     1.033e-01  
    5     2.935e-02  
    6     1.241e-02  
    7     2.647e-03  
    8     8.836e-04  
    9     4.683e-04  
   10     1.611e-04  
   11     8.499e-05  
   12     3.133e-05  
   13     2.120e-05  
   14     9.856e-06  
   15     2.401e-06  
   16     7.893e-07  Converged.
   ... Converged in 16 steps (norm: 7.89343e-07)
------------------------------------
  Starting TPA DIIS iterations ... 
------------------------------------ 
   It     Res. Norm  Remark
------------------------------------
                       Guess.
    1     6.650e+00  
    2     1.030e+01  
    3     1.835e+00  
    4     6.012e-01  
    5     1.498e-01  
    6     7.354e-02  
    7     2.183e-02  
    8     4.478e-03  
    9     1.762e-03  
   10     2.990e-04  
   11     1.083e-04  
   12     1.724e-05  
   13     7.646e-06  
   14     2.279e-06  
   15     1.389e-06  
   16     5.730e-07  Converged.
   ... Converged in 16 steps (norm: 5.72958e-07)
------------------------------------
  Starting TPA DIIS iterations ... 
------------------------------------ 
   It     Res. Norm  Remark
------------------------------------
                       Guess.
    1     6.652e+00  
    2     1.025e+01  
    3     1.758e+00  
    4     5.496e-01  
    5     1.488e-01  
    6     6.775e-02  
    7     2.078e-02  
    8     3.915e-03  
    9     1.600e-03  
   10     2.710e-04  
   11     9.515e-05  
   12     1.576e-05  
   13     6.981e-06  
   14     1.868e-06  
   15     1.018e-06  
   16     3.713e-07  Converged.
   ... Converged in 16 steps (norm: 3.71251e-07)
------------------------------------
  Starting TPA DIIS iterations ... 
------------------------------------ 
   It     Res. Norm  Remark
------------------------------------
                       Guess.
    1     7.872e-01  
    2     6.391e-01  
    3     2.661e-01  
    4     1.347e-01  
    5     3.471e-02  
    6     1.529e-02  
    7     3.482e-03  
    8     1.061e-03  
    9     6.141e-04  
   10     2.383e-04  
   11     1.247e-04  
   12     4.951e-05  
   13     3.656e-05  
   14     1.594e-05  
   15     3.833e-06  
   16     1.259e-06  
   17     4.141e-07  Converged.
   ... Converged in 17 steps (norm: 4.14092e-07)
------------------------------------
  Starting TPA DIIS iterations ... 
------------------------------------ 
   It     Res. Norm  Remark
------------------------------------
                       Guess.
    1     8.722e+00  
    2     1.473e+01  
    3     2.432e+00  
    4     9.434e-01  
    5     2.396e-01  
    6     1.225e-01  
    7     3.568e-02  
    8     7.283e-03  
    9     2.937e-03  
   10     5.030e-04  
   11     1.808e-04  
   12     3.110e-05  
   13     1.539e-05  
   14     5.520e-06  
   15     3.700e-06  
   16     1.777e-06  
   17     1.026e-06  
   18     4.053e-07  Converged.
   ... Converged in 18 steps (norm: 4.05335e-07)
------------------------------------
  Starting TPA DIIS iterations ... 
------------------------------------ 
   It     Res. Norm  Remark
------------------------------------
                       Guess.
    1     8.719e+00  
    2     1.465e+01  
    3     2.333e+00  
    4     8.562e-01  
    5     2.377e-01  
    6     1.123e-01  
    7     3.375e-02  
    8     6.341e-03  
    9     2.672e-03  
   10     4.565e-04  
   11     1.648e-04  
   12     2.858e-05  
   13     1.403e-05  
   14     4.053e-06  
   15     2.274e-06  
   16     9.908e-07  Converged.
   ... Converged in 16 steps (norm: 9.90836e-07)
------------------------------------
  Starting TPA DIIS iterations ... 
------------------------------------ 
   It     Res. Norm  Remark
------------------------------------
                       Guess.
    1     8.372e-01  
    2     7.363e-01  
    3     3.325e-01  
    4     2.239e-01  
    5     4.880e-02  
    6     2.282e-02  
    7     5.798e-03  
    8     1.505e-03  
    9     1.014e-03  
   10     4.747e-04  
   11     2.552e-04  
   12     1.155e-04  
   13     9.586e-05  
   14     3.700e-05  
   15     9.770e-06  
   16     3.388e-06  
   17     9.937e-07  Converged.
   ... Converged in 17 steps (norm: 9.93685e-07)
------------------------------------
  Starting TPA DIIS iterations ... 
------------------------------------ 
   It     Res. Norm  Remark
------------------------------------
                       Guess.
    1     8.862e+00  
    2     1.504e+01  
    3     2.472e+00  
    4     9.681e-01  
    5     2.461e-01  
    6     1.261e-01  
    7     3.669e-02  
    8     7.487e-03  
    9     3.024e-03  
   10     5.180e-04  
   11     1.859e-04  
   12     3.220e-05  
   13     1.604e-05  
   14     5.826e-06  
   15     3.920e-06  
   16     1.893e-06  
   17     1.081e-06  
   18     4.316e-07  Converged.
   ... Converged in 18 steps (norm: 4.3159e-07)
------------------------------------
  Starting TPA DIIS iterations ... 
------------------------------------ 
   It     Res. Norm  Remark
------------------------------------
                       Guess.
    1     8.858e+00  
    2     1.495e+01  
    3     2.371e+00  
    4     8.783e-01  
    5     2.442e-01  
    6     1.156e-01  
    7     3.470e-02  
    8     6.517e-03  
    9     2.751e-03  
   10     4.702e-04  
   11     1.698e-04  
   12     2.956e-05  
   13     1.459e-05  
   14     4.242e-06  
   15     2.381e-06  
   16     1.045e-06  
   17     6.116e-07  Converged.
   ... Converged in 17 steps (norm: 6.1156e-07)
------------------------------------
  Starting TPA DIIS iterations ... 
------------------------------------ 
   It     Res. Norm  Remark
------------------------------------
                       Guess.
    1     8.401e-01  
    2     7.423e-01  
    3     3.367e-01  
    4     2.304e-01  
    5     4.981e-02  
    6     2.334e-02  
    7     5.966e-03  
    8     1.540e-03  
    9     1.043e-03  
   10     4.928e-04  
   11     2.657e-04  
   12     1.209e-04  
   13     1.007e-04  
   14     3.874e-05  
   15     1.030e-05  
   16     3.596e-06  
   17     1.052e-06  
   18     3.546e-07  Converged.
   ... Converged in 18 steps (norm: 3.5462e-07)
------------------------------------
  Starting TPA DIIS iterations ... 
------------------------------------ 
   It     Res. Norm  Remark
------------------------------------
                       Guess.
    1     9.441e+00  
    2     1.634e+01  
    3     2.635e+00  
    4     1.072e+00  
    5     2.737e-01  
    6     1.415e-01  
    7     4.096e-02  
    8     8.348e-03  
    9     3.390e-03  
   10     5.813e-04  
   11     2.073e-04  
   12     3.702e-05  
   13     1.894e-05  
   14     7.221e-06  
   15     4.936e-06  
   16     2.432e-06  
   17     1.325e-06  
   18     5.560e-07  Converged.
   ... Converged in 18 steps (norm: 5.56041e-07)
------------------------------------
  Starting TPA DIIS iterations ... 
------------------------------------ 
   It     Res. Norm  Remark
------------------------------------
                       Guess.
    1     9.435e+00  
    2     1.625e+01  
    3     2.528e+00  
    4     9.714e-01  
    5     2.714e-01  
    6     1.295e-01  
    7     3.868e-02  
    8     7.262e-03  
    9     3.086e-03  
   10     5.279e-04  
   11     1.912e-04  
   12     3.379e-05  
   13     1.702e-05  
   14     5.079e-06  
   15     2.867e-06  
   16     1.288e-06  
   17     7.288e-07  Converged.
   ... Converged in 17 steps (norm: 7.28837e-07)
------------------------------------
  Starting TPA DIIS iterations ... 
------------------------------------ 
   It     Res. Norm  Remark
------------------------------------
                       Guess.
    1     8.515e-01  
    2     7.667e-01  
    3     3.542e-01  
    4     2.578e-01  
    5     5.404e-02  
    6     2.547e-02  
    7     6.669e-03  
    8     1.694e-03  
    9     1.168e-03  
   10     5.703e-04  
   11     3.113e-04  
   12     1.443e-04  
   13     1.214e-04  
   14     4.635e-05  
   15     1.270e-05  
   16     4.559e-06  
   17     1.319e-06  
   18     4.699e-07  Converged.
   ... Converged in 18 steps (norm: 4.69865e-07)
------------------------------------
  Two-photon absorbption ...  CPU 107.36 s  wall 19.88 s
  Transition density matrix of state singlet_A_1 printed to ASCII file 'State_singlet_A_1_Transition.txt'
  Transition density matrix of state singlet_A_2 printed to ASCII file 'State_singlet_A_2_Transition.txt'
  Transition density matrix of state singlet_A_3 printed to ASCII file 'State_singlet_A_3_Transition.txt'
  Transition density matrix of state singlet_A_4 printed to ASCII file 'State_singlet_A_4_Transition.txt'
  Transition density matrix of state singlet_A_5 printed to ASCII file 'State_singlet_A_5_Transition.txt'
  Transition density matrix of state singlet_A_6 printed to ASCII file 'State_singlet_A_6_Transition.txt'
  Transition density matrix of state singlet_A_7 printed to ASCII file 'State_singlet_A_7_Transition.txt'
  Transition density matrix of state singlet_A_8 printed to ASCII file 'State_singlet_A_8_Transition.txt'
  Transition density matrix of state singlet_A_9 printed to ASCII file 'State_singlet_A_9_Transition.txt'
  Transition density matrix of state singlet_A_10 printed to ASCII file 'State_singlet_A_10_Transition.txt'
  Transition properties ...  CPU 0.14 s  wall 0.81 s
  Difference density matrix of state singlet_A_1 printed to ASCII file 'State_singlet_A_1_Difference.txt'
  Total density matrix of state singlet_A_1 printed to ASCII file 'State_singlet_A_1_Total.txt'
  Difference density matrix of state singlet_A_2 printed to ASCII file 'State_singlet_A_2_Difference.txt'
  Total density matrix of state singlet_A_2 printed to ASCII file 'State_singlet_A_2_Total.txt'
  Difference density matrix of state singlet_A_3 printed to ASCII file 'State_singlet_A_3_Difference.txt'
  Total density matrix of state singlet_A_3 printed to ASCII file 'State_singlet_A_3_Total.txt'
  Difference density matrix of state singlet_A_4 printed to ASCII file 'State_singlet_A_4_Difference.txt'
  Total density matrix of state singlet_A_4 printed to ASCII file 'State_singlet_A_4_Total.txt'
  Difference density matrix of state singlet_A_5 printed to ASCII file 'State_singlet_A_5_Difference.txt'
  Total density matrix of state singlet_A_5 printed to ASCII file 'State_singlet_A_5_Total.txt'
  Difference density matrix of state singlet_A_6 printed to ASCII file 'State_singlet_A_6_Difference.txt'
  Total density matrix of state singlet_A_6 printed to ASCII file 'State_singlet_A_6_Total.txt'
  Difference density matrix of state singlet_A_7 printed to ASCII file 'State_singlet_A_7_Difference.txt'
  Total density matrix of state singlet_A_7 printed to ASCII file 'State_singlet_A_7_Total.txt'
  Difference density matrix of state singlet_A_8 printed to ASCII file 'State_singlet_A_8_Difference.txt'
  Total density matrix of state singlet_A_8 printed to ASCII file 'State_singlet_A_8_Total.txt'
  Difference density matrix of state singlet_A_9 printed to ASCII file 'State_singlet_A_9_Difference.txt'
  Total density matrix of state singlet_A_9 printed to ASCII file 'State_singlet_A_9_Total.txt'
  Difference density matrix of state singlet_A_10 printed to ASCII file 'State_singlet_A_10_Difference.txt'
  Total density matrix of state singlet_A_10 printed to ASCII file 'State_singlet_A_10_Total.txt'
  Properties ...  CPU 0.26 s  wall 1.50 s
  ISR TDMS ...  CPU 8.03 s  wall 2.66 s
  ISR transition properties ...  CPU 0.15 s  wall 0.07 s
  Sum-over-states TPA ...  CPU 0.00 s  wall 0.00 s

--------------------------------------------------------------------------------
                   State-averaged natural transition orbitals
--------------------------------------------------------------------------------
--------------------------------------------------------------------------------
  SA-NTO decomposition ...  CPU 0.01 s  wall 0.04 s

--------------------------------------------------------------------------------
                             Excited State Summary
--------------------------------------------------------------------------------
--------------------------------------------------------------------------------

  Excited state 1 (singlet, A)                                     [converged]
  ----------------------------------------------------------------------------
  Term symbol:  2 (1) A                                     R^2 =  9.35555e-14

  Total energy:                                            -77.9867031764 a.u.
  Excitation energy:                                               8.991741 eV

  Osc. strength:                                                      0.456611
  Trans. dip. moment [a.u.]:           [   1.036802,   -0.998844,   -0.009497]
  <i|r^2|0> [a.u.]:                    [   6.084828,   -0.266344,   -0.004127]
  Two-photon absorption cross-section (SoS) [a.u.]:                   0.053463
  Two-photon absorption matrix (SoS) [a.u.]:
                                       |    0.076534    0.043054   -0.014863 |
                                       |    0.043054    0.011204   -0.013897 |
                                       |   -0.014863   -0.013897   -0.015552 |
  Two-photon absorption cross-section [a.u.]:                         0.032467
  Two-photon absorption matrix [a.u.]:
                                       |    0.024928    0.018390    0.008204 |
                                       |    0.018390   -0.065475    0.002477 |
                                       |    0.008204    0.002477   -0.021481 |

  Dip. moment [a.u.]:                  [   0.004042,    0.003120,    0.002324]
  Total dipole [Debye]:                                               0.014259
  <r^2> [a.u.]:                        [ 172.764094,   35.629084,   11.871941]
  Total <r^2> [a.u.]:                                               220.265119

  V1^2 = 0.9713, V2^2 = 0.0287

  Important amplitudes:
      occ i     occ j     vir a      vir b          v   
    -----------------------------------------------------
     8 (A) A              9 (A) A                 0.6806
     4 (A) A             10 (A) A                 0.0629
     7 (A) A             16 (A) A                -0.0588
     6 (A) A             14 (A) A                -0.0563
     5 (A) A             13 (A) A                 0.0533
     6 (A) A             23 (A) A                -0.0469
     8 (A) A             20 (A) A                 0.0339
     3 (A) A             12 (A) A                -0.0276
     7 (A) A              9 (A) A                 0.0261
     6 (A) A             19 (A) A                 0.0252
     5 (A) A             22 (A) A                -0.0220
     4 (A) A             24 (A) A                 0.0192
     6 (A) A             12 (A) A                 0.0185
     8 (A) A   8 (A) B   17 (A) A   20 (A) B     -0.0181
     7 (A) A             11 (A) A                -0.0178
     3 (A) A             26 (A) A                 0.0177
     8 (A) A   8 (A) B    9 (A) A   28 (A) B      0.0165
     6 (A) A             26 (A) A                 0.0162
     7 (A) A             21 (A) A                -0.0155
     3 (A) A             14 (A) A                -0.0135
     3 (A) A   4 (A) B    9 (A) A    9 (A) B     -0.0127
     3 (A) A             19 (A) A                 0.0111
     8 (A) A   8 (A) B   18 (A) A   19 (A) B     -0.0110
     7 (A) A             32 (A) A                -0.0092
     7 (A) A             36 (A) A                -0.0087
     3 (A) A             23 (A) A                -0.0078
     8 (A) A   8 (A) B   25 (A) A   29 (A) B     -0.0074
     6 (A) A             40 (A) A                -0.0067
     3 (A) A             27 (A) A                 0.0066
     5 (A) A   8 (A) B   11 (A) A    9 (A) B      0.0065
     3 (A) A   6 (A) B    9 (A) A   28 (A) B      0.0063
     5 (A) A   8 (A) B   16 (A) A    9 (A) B     -0.0061
     6 (A) A             22 (A) A                -0.0060
     7 (A) A   8 (A) B   13 (A) A   20 (A) B      0.0060
     6 (A) A             35 (A) A                -0.0060
     5 (A) A   8 (A) B   11 (A) A   20 (A) B     -0.0060
     5 (A) A   7 (A) B    9 (A) A    9 (A) B      0.0059
     3 (A) A   5 (A) B    9 (A) A   25 (A) B     -0.0058
     3 (A) A             40 (A) A                -0.0058
     5 (A) A             10 (A) A                -0.0057
    -----------------------------------------------------

  Density matrix analysis:
  ------------------------
  NOs
    Occupation of frontier NOs:
       0.9496   1.0219
    Number of electrons: 16.000000
    Number of unpaired electrons: n_u =  2.31265, n_u,nl =  2.03203
    NO participation ratio (PR_NO):  2.862709
  
  
  Mulliken Population Analysis
  Atom      Charge (e)              h+              e-           Del q
  --------------------------------------------------------------------
   1 H        0.056556        0.021321       -0.012864        0.008457
   2 C       -0.103666        0.492608       -0.509308       -0.016700
   3 H        0.059298        0.021771       -0.012617        0.009154
   4 C       -0.131260        0.491852       -0.511300       -0.019448
   5 H        0.056801        0.021671       -0.012354        0.009317
   6 H        0.062272        0.021923       -0.012702        0.009221
  --------------------------------------------------------------------
  Sum:        0.000000        1.071145       -1.071145        0.000000
  
  Multipole moment analysis of the density matrix
    Molecular charge:                      -0.000000
    Number of electrons:                   16.000000
      Center of electronic charge [Ang]: [ -1.545710,  -0.065705,   0.001901]
    Total nuclear charge:                  16.000000
      Center of nuclear charge [Ang]:    [ -1.545576,  -0.065602,   0.001978]
    Dipole moment [D]:                     0.014259
      Cartesian components [D]:          [  0.010275,   0.007929,   0.005906]
    RMS size of the density [Ang]:         1.208922
      Cartesian components [Ang]:        [  0.796530,   0.786928,   0.455825]
  
  Exciton analysis of the difference density matrix
    <r_h> [Ang]:                  [ -1.542270,  -0.066124,   0.001661]
    <r_e> [Ang]:                  [ -1.542088,  -0.065412,   0.001473]
    |<r_e - r_h>| [Ang]:            0.000759
    Hole size [Ang]:                1.282296
      Cartesian components [Ang]: [  0.722996,   0.716298,   0.780050]
    Electron size [Ang]:            1.464723
      Cartesian components [Ang]: [  0.844743,   0.839234,   0.852942]

  Transition density matrix analysis:
  -----------------------------------
  
  CT numbers (Mulliken)
    omega =     0.9533
    <Phe> =    -0.1527
  
  Exciton analysis of the transition density matrix
    Trans. dipole moment [D]:             1.829676
      Cartesian components [D]:         [  1.317643,  -1.269404,  -0.012069]
    <r_h> [Ang]:                        [ -1.540355,  -0.066745,   0.001733]
    <r_e> [Ang]:                        [ -1.542469,  -0.065444,   0.001231]
    |<r_e - r_h>| [Ang]:                  0.002532
    Hole size [Ang]:                      1.203669
      Cartesian components [Ang]:       [  0.638118,   0.633880,   0.799889]
    Electron size [Ang]:                  1.491264
      Cartesian components [Ang]:       [  0.856623,   0.850327,   0.875791]
    RMS electron-hole separation [Ang]:   1.929149
      Cartesian components [Ang]:       [  1.086736,   1.080955,   1.171392]
    Covariance(r_h, r_e) [Ang^2]:        -0.024462
    Correlation coefficient:             -0.013628
    Center-of-mass size [Ang]:            0.951809
      Cartesian components [Ang]:       [  0.524643,   0.519918,   0.600313]

  Decomposition into state-averaged NTOs
    H- 0 -> L+ 0:  0.6697 ( 89.7%)
    H- 2 -> L+ 5:  0.0777 (  1.2%)
                   omega =  95.3%
  ----------------------------------------------------------------------------


  Excited state 2 (singlet, A)                                     [converged]
  ----------------------------------------------------------------------------
  Term symbol:  3 (1) A                                     R^2 =  5.92686e-14

  Total energy:                                            -77.9857750757 a.u.
  Excitation energy:                                               9.016996 eV

  Osc. strength:                                                      0.001054
  Trans. dip. moment [a.u.]:           [   0.038824,   -0.043048,    0.037587]
  <i|r^2|0> [a.u.]:                    [   0.148432,   -0.080267,    0.147746]
  Two-photon absorption cross-section (SoS) [a.u.]:                   4.238154
  Two-photon absorption matrix (SoS) [a.u.]:
                                       |   -0.045280   -0.050882    0.511811 |
                                       |   -0.050882   -0.068623    0.506004 |
                                       |    0.511811    0.506004    0.107701 |
  Two-photon absorption cross-section [a.u.]:                         0.267129
  Two-photon absorption matrix [a.u.]:
                                       |   -0.007481    0.010484   -0.181345 |
                                       |    0.010484    0.018599    0.004572 |
                                       |   -0.181345    0.004572   -0.017984 |

  Dip. moment [a.u.]:                  [  -0.051524,    0.085444,    0.005621]
  Total dipole [Debye]:                                               0.254010
  <r^2> [a.u.]:                        [ 170.498147,   34.369133,   13.128141]
  Total <r^2> [a.u.]:                                               217.995422

  V1^2 = 0.9553, V2^2 = 0.0447

  Important amplitudes:
      occ i     occ j     vir a      vir b          v   
    -----------------------------------------------------
     7 (A) A              9 (A) A                -0.6660
     8 (A) A             11 (A) A                 0.1447
     7 (A) A             20 (A) A                -0.0761
     8 (A) A             10 (A) A                -0.0707
     5 (A) A   8 (A) B    9 (A) A    9 (A) B     -0.0299
     8 (A) A             16 (A) A                -0.0276
     8 (A) A              9 (A) A                 0.0268
     8 (A) A             21 (A) A                 0.0171
     5 (A) A             28 (A) A                 0.0147
     4 (A) A   7 (A) B    9 (A) A   19 (A) B      0.0134
     5 (A) A   7 (A) B    9 (A) A   16 (A) B     -0.0132
     7 (A) A   8 (A) B   20 (A) A   17 (A) B      0.0105
     7 (A) A   8 (A) A    9 (A) A   28 (A) A      0.0095
     5 (A) A   8 (A) B    9 (A) A   20 (A) B     -0.0094
     4 (A) A   6 (A) B    9 (A) A   16 (A) B     -0.0089
     6 (A) A              9 (A) A                 0.0089
     5 (A) A   6 (A) A    9 (A) A   23 (A) A     -0.0087
     6 (A) A   7 (A) B    9 (A) A   18 (A) B      0.0085
     8 (A) A   7 (A) B    9 (A) A   28 (A) B     -0.0084
     4 (A) A   5 (A) A    9 (A) A   10 (A) A     -0.0082
     5 (A) A   6 (A) A    9 (A) A   14 (A) A     -0.0082
     3 (A) A   7 (A) B    9 (A) A   18 (A) B     -0.0078
     5 (A) A   6 (A) B    9 (A) A   23 (A) B     -0.0078
     5 (A) A   7 (A) A    9 (A) A   16 (A) A     -0.0078
     5 (A) A   6 (A) B    9 (A) A   19 (A) B      0.0076
     4 (A) A   8 (A) B    9 (A) A   25 (A) B     -0.0075
     4 (A) A   7 (A) B   19 (A) A    9 (A) B      0.0073
     7 (A) A   8 (A) B   17 (A) A   20 (A) B      0.0072
     5 (A) A   5 (A) B    9 (A) A   13 (A) B      0.0071
     7 (A) A   8 (A) B   19 (A) A   18 (A) B      0.0070
     4 (A) A   5 (A) B    9 (A) A   18 (A) B      0.0068
     5 (A) A   8 (A) A    9 (A) A   20 (A) A     -0.0068
     7 (A) A   7 (A) B   20 (A) A   22 (A) B      0.0065
     5 (A) A   7 (A) B   11 (A) A   20 (A) B      0.0061
     4 (A) A   7 (A) A    9 (A) A   19 (A) A      0.0061
     4 (A) A   5 (A) B   10 (A) A    9 (A) B      0.0060
     4 (A) A   7 (A) B    9 (A) A   14 (A) B      0.0059
     7 (A) A   8 (A) B   17 (A) A    9 (A) B      0.0059
     5 (A) A             38 (A) A                -0.0058
     4 (A) A   6 (A) B   16 (A) A    9 (A) B     -0.0058
    -----------------------------------------------------

  Density matrix analysis:
  ------------------------
  NOs
    Occupation of frontier NOs:
       0.9486   1.0603
    Number of electrons: 16.000000
    Number of unpaired electrons: n_u =  2.35161, n_u,nl =  2.06728
    NO participation ratio (PR_NO):  3.064771
  
  
  Mulliken Population Analysis
  Atom      Charge (e)              h+              e-           Del q
  --------------------------------------------------------------------
   1 H        0.157337        0.126090       -0.016852        0.109238
   2 C       -0.287891        0.257417       -0.458343       -0.200926
   3 H        0.122033        0.105755       -0.033865        0.071890
   4 C       -0.305896        0.286532       -0.480616       -0.194084
   5 H        0.144446        0.110237       -0.013275        0.096962
   6 H        0.169971        0.156343       -0.039424        0.116920
  --------------------------------------------------------------------
  Sum:        0.000000        1.042375       -1.042375       -0.000000
  
  Multipole moment analysis of the density matrix
    Molecular charge:                      0.000000
    Number of electrons:                   16.000000
      Center of electronic charge [Ang]: [ -1.543872,  -0.068428,   0.001792]
    Total nuclear charge:                  16.000000
      Center of nuclear charge [Ang]:    [ -1.545576,  -0.065602,   0.001978]
    Dipole moment [D]:                     0.254010
      Cartesian components [D]:          [ -0.130961,   0.217177,   0.014288]
    RMS size of the density [Ang]:         1.194605
      Cartesian components [Ang]:        [  0.774907,   0.772553,   0.479336]
  
  Exciton analysis of the difference density matrix
    <r_h> [Ang]:                  [ -1.612671,  -0.044303,  -0.000153]
    <r_e> [Ang]:                  [ -1.584275,  -0.085364,  -0.002020]
    |<r_e - r_h>| [Ang]:            0.049959
    Hole size [Ang]:                1.486760
      Cartesian components [Ang]: [  1.053043,   0.942711,   0.461359]
    Electron size [Ang]:            1.483393
      Cartesian components [Ang]: [  0.886851,   0.860996,   0.820144]

  Transition density matrix analysis:
  -----------------------------------
  
  CT numbers (Mulliken)
    omega =     0.9238
    <Phe> =    -0.0115
  
  Exciton analysis of the transition density matrix
    Trans. dipole moment [D]:             0.087803
      Cartesian components [D]:         [  0.049340,  -0.054709,   0.047768]
    <r_h> [Ang]:                        [ -1.621477,  -0.039691,   0.000027]
    <r_e> [Ang]:                        [ -1.578862,  -0.090299,  -0.002179]
    |<r_e - r_h>| [Ang]:                  0.066198
    Hole size [Ang]:                      1.513104
      Cartesian components [Ang]:       [  1.080249,   0.958483,   0.451506]
    Electron size [Ang]:                  1.480907
      Cartesian components [Ang]:       [  0.876780,   0.852352,   0.835368]
    RMS electron-hole separation [Ang]:   2.099715
      Cartesian components [Ang]:       [  1.378366,   1.268368,   0.948763]
    Covariance(r_h, r_e) [Ang^2]:         0.039075
    Correlation coefficient:              0.017438
    Center-of-mass size [Ang]:            1.067792
      Cartesian components [Ang]:       [  0.702368,   0.648881,   0.475197]

  Decomposition into state-averaged NTOs
    H- 1 -> L+ 0: -0.6588 ( 86.8%)
    H- 0 -> L+ 2:  0.1519 (  4.6%)
                   omega =  92.4%
  ----------------------------------------------------------------------------


  Excited state 3 (singlet, A)                                     [converged]
  ----------------------------------------------------------------------------
  Term symbol:  4 (1) A                                     R^2 =  1.26646e-13

  Total energy:                                            -77.9759106587 a.u.
  Excitation energy:                                               9.285421 eV

  Osc. strength:                                                      0.023157
  Trans. dip. moment [a.u.]:           [  -0.010153,   -0.023582,    0.318018]
  <i|r^2|0> [a.u.]:                    [  -0.054340,    0.003074,   -0.014672]
  Two-photon absorption cross-section (SoS) [a.u.]:                   0.818205
  Two-photon absorption matrix (SoS) [a.u.]:
                                       |   -0.041543   -0.023512    0.248048 |
                                       |   -0.023512   -0.011624    0.196450 |
                                       |    0.248048    0.196450    0.034091 |
  Two-photon absorption cross-section [a.u.]:                         0.536938
  Two-photon absorption matrix [a.u.]:
                                       |   -0.041079   -0.016554    0.221171 |
                                       |   -0.016554   -0.010559    0.128388 |
                                       |    0.221171    0.128388    0.028698 |

  Dip. moment [a.u.]:                  [   0.394367,    0.244526,    0.031289]
  Total dipole [Debye]:                                               1.182110
  <r^2> [a.u.]:                        [ 179.860821,   40.367582,   11.019878]
  Total <r^2> [a.u.]:                                               231.248281

  V1^2 = 0.9581, V2^2 = 0.0419

  Important amplitudes:
      occ i     occ j     vir a      vir b          v   
    -----------------------------------------------------
     8 (A) A             10 (A) A                -0.6830
     7 (A) A              9 (A) A                 0.0800
     8 (A) A             24 (A) A                -0.0498
     8 (A) A             11 (A) A                 0.0351
     8 (A) A             18 (A) A                 0.0316
     4 (A) A              9 (A) A                -0.0243
     8 (A) A   8 (A) B    9 (A) A   12 (A) B      0.0210
     8 (A) A   8 (A) B   10 (A) A   17 (A) B     -0.0175
     5 (A) A   8 (A) B   11 (A) A   10 (A) B     -0.0167
     8 (A) A             15 (A) A                -0.0145
     7 (A) A   8 (A) B   13 (A) A   10 (A) B      0.0142
     6 (A) A   8 (A) A   10 (A) A   15 (A) A      0.0112
     4 (A) A   8 (A) B   12 (A) A   10 (A) B      0.0111
     6 (A) A   8 (A) B   15 (A) A   10 (A) B     -0.0109
     7 (A) A   8 (A) B   22 (A) A   10 (A) B     -0.0107
     4 (A) A   8 (A) A   10 (A) A   12 (A) A     -0.0107
     8 (A) A             13 (A) A                 0.0106
     8 (A) A             21 (A) A                 0.0103
     7 (A) A   8 (A) A   10 (A) A   22 (A) A      0.0099
     7 (A) A   8 (A) A   10 (A) A   13 (A) A     -0.0098
     5 (A) A   8 (A) A   10 (A) A   11 (A) A      0.0098
     5 (A) A   8 (A) B   21 (A) A   10 (A) B     -0.0093
     6 (A) A   8 (A) B   10 (A) A   10 (A) B      0.0092
     8 (A) A             16 (A) A                -0.0088
     7 (A) A             20 (A) A                 0.0086
     7 (A) A   8 (A) A   12 (A) A   16 (A) A     -0.0082
     6 (A) A   8 (A) A   10 (A) A   18 (A) A      0.0081
     5 (A) A   8 (A) A   10 (A) A   21 (A) A      0.0079
     3 (A) A   4 (A) B   10 (A) A    9 (A) B      0.0078
     4 (A) A   8 (A) B   19 (A) A   10 (A) B     -0.0075
     8 (A) A   8 (A) B   10 (A) A   28 (A) B     -0.0071
     8 (A) A   8 (A) B    9 (A) A   19 (A) B     -0.0071
     7 (A) A   8 (A) B   16 (A) A   12 (A) B      0.0070
     3 (A) A   8 (A) B   10 (A) A   10 (A) B     -0.0070
     5 (A) A   8 (A) B   10 (A) A   11 (A) B     -0.0070
     3 (A) A   8 (A) A   10 (A) A   24 (A) A      0.0069
     8 (A) A   8 (A) B    9 (A) A   23 (A) B     -0.0069
     3 (A) A   8 (A) B   10 (A) A   18 (A) B      0.0068
     6 (A) A   8 (A) B   18 (A) A   10 (A) B     -0.0062
     8 (A) A             12 (A) A                -0.0062
    -----------------------------------------------------

  Density matrix analysis:
  ------------------------
  NOs
    Occupation of frontier NOs:
       0.9721   0.9951
    Number of electrons: 16.000000
    Number of unpaired electrons: n_u =  2.31224, n_u,nl =  2.03075
    NO participation ratio (PR_NO):  2.751065
  
  
  Mulliken Population Analysis
  Atom      Charge (e)              h+              e-           Del q
  --------------------------------------------------------------------
   1 H       -0.098877        0.057067       -0.204043       -0.146975
   2 C        0.320568        0.520840       -0.113306        0.407534
   3 H       -0.194068        0.053983       -0.298195       -0.244211
   4 C        0.304138        0.531745       -0.115794        0.415950
   5 H       -0.113979        0.056065       -0.217529       -0.161464
   6 H       -0.217782        0.055714       -0.326547       -0.270834
  --------------------------------------------------------------------
  Sum:        0.000000        1.275414       -1.275414        0.000000
  
  Multipole moment analysis of the density matrix
    Molecular charge:                      0.000000
    Number of electrons:                   16.000000
      Center of electronic charge [Ang]: [ -1.558619,  -0.073690,   0.000943]
    Total nuclear charge:                  16.000000
      Center of nuclear charge [Ang]:    [ -1.545576,  -0.065602,   0.001978]
    Dipole moment [D]:                     1.182110
      Cartesian components [D]:          [  1.002382,   0.621522,   0.079529]
    RMS size of the density [Ang]:         1.269855
      Cartesian components [Ang]:        [  0.847697,   0.837302,   0.439166]
  
  Exciton analysis of the difference density matrix
    <r_h> [Ang]:                  [ -1.553354,  -0.065602,   0.001153]
    <r_e> [Ang]:                  [ -1.715149,  -0.165164,  -0.011022]
    |<r_e - r_h>| [Ang]:            0.190364
    Hole size [Ang]:                1.407620
      Cartesian components [Ang]: [  0.831907,   0.821962,   0.783392]
    Electron size [Ang]:            2.064277
      Cartesian components [Ang]: [  1.371575,   1.361451,   0.725585]

  Transition density matrix analysis:
  -----------------------------------
  
  CT numbers (Mulliken)
    omega =     0.9262
    <Phe> =    -0.0113
  
  Exciton analysis of the transition density matrix
    Trans. dipole moment [D]:             0.405475
      Cartesian components [D]:         [ -0.012903,  -0.029970,   0.404160]
    <r_h> [Ang]:                        [ -1.536531,  -0.062189,   0.001759]
    <r_e> [Ang]:                        [ -1.769900,  -0.198887,  -0.015260]
    |<r_e - r_h>| [Ang]:                  0.270992
    Hole size [Ang]:                      1.205653
      Cartesian components [Ang]:       [  0.630744,   0.626601,   0.814329]
    Electron size [Ang]:                  2.267771
      Cartesian components [Ang]:       [  1.505745,   1.495362,   0.799630]
    RMS electron-hole separation [Ang]:   2.572528
      Cartesian components [Ang]:       [  1.641636,   1.619810,   1.139801]
    Covariance(r_h, r_e) [Ang^2]:         0.025960
    Correlation coefficient:              0.009495
    Center-of-mass size [Ang]:            1.289215
      Cartesian components [Ang]:       [  0.820016,   0.814306,   0.571451]

  Decomposition into state-averaged NTOs
    H- 0 -> L+ 1:  0.6652 ( 88.5%)
    H- 0 -> L+ 2:  0.1149 (  2.6%)
    H- 1 -> L+ 0:  0.0792 (  1.3%)
                   omega =  92.6%
  ----------------------------------------------------------------------------


  Excited state 4 (singlet, A)                                     [converged]
  ----------------------------------------------------------------------------
  Term symbol:  5 (1) A                                     R^2 =  1.13258e-13

  Total energy:                                            -77.9551889604 a.u.
  Excitation energy:                                               9.849287 eV

  Osc. strength:                                                      0.000895
  Trans. dip. moment [a.u.]:           [   0.001564,    0.005126,   -0.060653]
  <i|r^2|0> [a.u.]:                    [  -0.005503,   -0.019511,    0.035492]
  Two-photon absorption cross-section (SoS) [a.u.]:                 128.907519
  Two-photon absorption matrix (SoS) [a.u.]:
                                       |   -0.272162   -0.297849    2.835166 |
                                       |   -0.297849   -0.336907    2.776634 |
                                       |    2.835166    2.776634    0.605095 |
  Two-photon absorption cross-section [a.u.]:                        74.908190
  Two-photon absorption matrix [a.u.]:
                                       |   -0.245204   -0.232145    2.211494 |
                                       |   -0.232145   -0.216437    2.063935 |
                                       |    2.211494    2.063935    0.459595 |

  Dip. moment [a.u.]:                  [  -0.383812,   -0.392624,   -0.043607]
  Total dipole [Debye]:                                               1.399962
  <r^2> [a.u.]:                        [ 176.118368,   39.820032,   10.714888]
  Total <r^2> [a.u.]:                                               226.653288

  V1^2 = 0.9634, V2^2 = 0.0366

  Important amplitudes:
      occ i     occ j     vir a      vir b          v   
    -----------------------------------------------------
     8 (A) A             11 (A) A                 0.6693
     7 (A) A              9 (A) A                 0.1421
     8 (A) A             21 (A) A                 0.0766
     8 (A) A             16 (A) A                -0.0668
     8 (A) A             10 (A) A                 0.0521
     5 (A) A   8 (A) B   11 (A) A   11 (A) B      0.0160
     8 (A) A   8 (A) B    9 (A) A   13 (A) B      0.0158
     8 (A) A   8 (A) B   11 (A) A   17 (A) B      0.0141
     7 (A) A   8 (A) B   13 (A) A   11 (A) B     -0.0128
     7 (A) A             20 (A) A                 0.0128
     4 (A) A   8 (A) B   12 (A) A   11 (A) B     -0.0110
     5 (A) A   8 (A) A   11 (A) A   21 (A) A     -0.0109
     8 (A) A   8 (A) B    9 (A) A   22 (A) B     -0.0105
     7 (A) A   8 (A) A   11 (A) A   22 (A) A     -0.0095
     6 (A) A   8 (A) B   15 (A) A   11 (A) B      0.0092
     6 (A) A   8 (A) B   10 (A) A   11 (A) B     -0.0090
     7 (A) A   8 (A) B   22 (A) A   11 (A) B      0.0090
     8 (A) A             24 (A) A                 0.0089
     8 (A) A             19 (A) A                -0.0087
     3 (A) A   4 (A) B   11 (A) A    9 (A) B     -0.0082
     6 (A) A   8 (A) A   11 (A) A   15 (A) A     -0.0082
     3 (A) A   8 (A) B   11 (A) A   18 (A) B     -0.0081
     7 (A) A   8 (A) A   13 (A) A   16 (A) A     -0.0078
     8 (A) A             13 (A) A                 0.0076
     7 (A) A   8 (A) A   11 (A) A   13 (A) A      0.0075
     4 (A) A   8 (A) B   19 (A) A   11 (A) B      0.0072
     8 (A) A             14 (A) A                -0.0071
     5 (A) A   8 (A) B   21 (A) A   11 (A) B      0.0070
     4 (A) A   8 (A) A   11 (A) A   12 (A) A      0.0063
     5 (A) A   8 (A) B    9 (A) A    9 (A) B      0.0060
     3 (A) A   6 (A) B   11 (A) A   28 (A) B      0.0059
     3 (A) A   8 (A) B   11 (A) A   30 (A) B     -0.0057
     6 (A) A   8 (A) A   11 (A) A   18 (A) A     -0.0056
     6 (A) A   8 (A) B   18 (A) A   11 (A) B      0.0056
     3 (A) A   8 (A) A   11 (A) A   18 (A) A     -0.0056
     7 (A) A   8 (A) B   16 (A) A   13 (A) B      0.0056
     3 (A) A   5 (A) B   11 (A) A   25 (A) B     -0.0055
     8 (A) A   8 (A) B   20 (A) A   22 (A) B     -0.0053
     7 (A) A   8 (A) B   11 (A) A   13 (A) B     -0.0053
     7 (A) A   8 (A) B   12 (A) A   10 (A) B      0.0053
    -----------------------------------------------------

  Density matrix analysis:
  ------------------------
  NOs
    Occupation of frontier NOs:
       0.9462   1.0232
    Number of electrons: 16.000000
    Number of unpaired electrons: n_u =  2.31697, n_u,nl =  2.04536
    NO participation ratio (PR_NO):  2.881338
  
  
  Mulliken Population Analysis
  Atom      Charge (e)              h+              e-           Del q
  --------------------------------------------------------------------
   1 H       -0.240689        0.046960       -0.335748       -0.288788
   2 C        0.290376        0.500788       -0.123446        0.377342
   3 H       -0.042638        0.044258       -0.137040       -0.092782
   4 C        0.256458        0.501540       -0.133270        0.368270
   5 H       -0.183571        0.046114       -0.277169       -0.231055
   6 H       -0.079935        0.046840       -0.179827       -0.132987
  --------------------------------------------------------------------
  Sum:        0.000000        1.186500       -1.186500        0.000000
  
  Multipole moment analysis of the density matrix
    Molecular charge:                      0.000000
    Number of electrons:                   16.000000
      Center of electronic charge [Ang]: [ -1.532882,  -0.052617,   0.003420]
    Total nuclear charge:                  16.000000
      Center of nuclear charge [Ang]:    [ -1.545576,  -0.065602,   0.001978]
    Dipole moment [D]:                     1.399962
      Cartesian components [D]:          [ -0.975552,  -0.997951,  -0.110839]
    RMS size of the density [Ang]:         1.270562
      Cartesian components [Ang]:        [  0.855954,   0.833158,   0.433033]
  
  Exciton analysis of the difference density matrix
    <r_h> [Ang]:                  [ -1.533908,  -0.053641,   0.002708]
    <r_e> [Ang]:                  [ -1.360761,   0.123504,   0.023024]
    |<r_e - r_h>| [Ang]:            0.248542
    Hole size [Ang]:                1.384972
      Cartesian components [Ang]: [  0.814563,   0.796838,   0.787200]
    Electron size [Ang]:            2.089487
      Cartesian components [Ang]: [  1.458824,   1.335756,   0.673455]

  Transition density matrix analysis:
  -----------------------------------
  
  CT numbers (Mulliken)
    omega =     0.9305
    <Phe> =    -0.0142
  
  Exciton analysis of the transition density matrix
    Trans. dipole moment [D]:             0.077383
      Cartesian components [D]:         [  0.001988,   0.006514,  -0.077082]
    <r_h> [Ang]:                        [ -1.544082,  -0.064933,   0.001278]
    <r_e> [Ang]:                        [ -1.326161,   0.162298,   0.027200]
    |<r_e - r_h>| [Ang]:                  0.315904
    Hole size [Ang]:                      1.214616
      Cartesian components [Ang]:       [  0.649205,   0.637344,   0.804746]
    Electron size [Ang]:                  2.225530
      Cartesian components [Ang]:       [  1.557837,   1.418943,   0.716052]
    RMS electron-hole separation [Ang]:   2.544235
      Cartesian components [Ang]:       [  1.692518,   1.564812,   1.076976]
    Covariance(r_h, r_e) [Ang^2]:         0.027470
    Correlation coefficient:              0.010162
    Center-of-mass size [Ang]:            1.273108
      Cartesian components [Ang]:       [  0.848457,   0.781379,   0.538862]

  Decomposition into state-averaged NTOs
    H- 0 -> L+ 2:  0.6529 ( 85.3%)
    H- 1 -> L+ 0:  0.1402 (  3.9%)
    H- 0 -> L+ 1: -0.1301 (  3.4%)
                   omega =  93.1%
  ----------------------------------------------------------------------------


  Excited state 5 (singlet, A)                                     [converged]
  ----------------------------------------------------------------------------
  Term symbol:  6 (1) A                                     R^2 =  2.19653e-13

  Total energy:                                            -77.9357057375 a.u.
  Excitation energy:                                              10.379452 eV

  Osc. strength:                                                      0.000061
[...]
    16   -1.347453611691e-03
    17   -1.700479062514e-03
    18   -2.524268705953e-04
    19   -2.969465958965e-03
    20    1.554705051199e-02
    21    9.791280659183e-01
    22   -2.722120193415e-04
    23    1.458678690958e-02
    24    8.825028897027e-04
    25    7.202530425762e-02
    26   -5.375866684970e-02
    27   -1.399285514462e+00
    28    1.164049959812e-01
    29   -8.129204953113e-02
    30   -5.139650521753e-04
    31    4.408224010498e-01
    32   -3.595910358841e-01
    33   -4.968915511888e-03
    34    1.521213508125e-02
    35   -1.181138661472e-03
    36   -1.972901692207e-03
    37    2.656985857265e-03
    38   -2.573973065858e-03
    39    5.979991273262e-03
    40    9.158156447654e-01
    41    6.915135374911e-04
    42   -1.401056441271e-02
    43   -8.706702648889e-04
    44    1.444080505817e-02
    45    9.938538499130e-01
    46    1.345051407235e-02
    47    1.329296188659e-03
    48    6.622342616079e-04
Sym=X
Ene= 0.230445
Spin=Alpha
Occup=0
     1    3.184142734116e-02
     2    1.326243270907e+00
     3   -1.593730493158e-02
     4   -3.615986555794e-03
     5   -9.567674292747e-04
     6    9.710444009927e-03
     7   -5.652107414372e-03
     8   -2.330751972360e-01
     9   -1.650999618805e-01
    10   -1.463728851938e-01
    11   -1.644220206277e-02
    12   -5.701129798965e-01
    13   -5.327224133828e-01
    14   -5.820237796901e-02
    15    3.556210102062e-03
    16   -1.677488167193e-04
    17   -5.867875316191e-04
    18    3.426950621418e-03
    19   -1.568230270168e-03
    20   -2.914041528820e-02
    21   -1.053979410595e+00
    22   -2.348614004599e-03
    23   -1.071597259214e-02
    24   -7.562272137529e-04
    25   -6.353813395885e-04
    26   -2.439998746131e-04
    27   -1.783441944265e-02
    28   -1.575936394881e-01
    29   -1.627289510175e-01
    30   -1.722018023040e-02
    31   -4.824351794056e-01
    32   -5.743850780397e-01
    33   -5.745561086922e-02
    34    1.418454445803e-05
    35   -1.409459769288e-04
    36   -4.459641049625e-05
    37   -1.105784648105e-03
    38   -2.142232230224e-04
    39    2.484872398054e-02
    40    1.171311731519e+00
    41   -2.739644071293e-03
    42   -1.363976399322e-02
    43   -9.609473296350e-04
    44   -3.494948002023e-02
    45   -1.128380016143e+00
    46   -1.250504003217e-02
    47   -2.622089233150e-03
    48   -7.360237124291e-04
Sym=X
Ene= 0.238593
Spin=Alpha
Occup=0
     1    1.630316395564e-02
     2    1.040747110351e+00
     3   -1.652894612139e-02
     4   -8.879032000440e-03
     5   -1.327872974989e-03
     6    8.722747845994e-02
     7   -8.249748264457e-02
     8   -1.582166009037e+00
     9   -5.063393445476e-02
    10    6.892405934875e-02
    11    1.318723304685e-03
    12   -2.297008165622e-01
    13    2.757260656181e-01
    14    3.575633519354e-03
    15    2.291129381920e-02
    16   -2.704873115020e-03
    17   -2.965107465681e-03
    18    6.956127448205e-04
    19   -1.302545317306e-02
    20    1.558313321620e-02
    21    1.181553940969e+00
    22    8.584189055504e-03
    23    1.833964158103e-02
    24    1.475453041763e-03
    25   -8.367961559366e-02
    26    7.745719378674e-02
    27    1.506402124332e+00
    28   -5.463661377312e-02
    29    6.505604801542e-02
    30    2.296429544043e-03
    31   -2.160120854704e-01
    32    2.848371299577e-01
    33    1.046136732202e-02
    34   -2.144004448501e-02
    35    2.336705897268e-03
    36    3.001221122476e-03
    37   -2.248947063188e-03
    38    1.202707097776e-02
    39   -1.938392487219e-02
    40   -1.173807328912e+00
    41    8.532662323917e-03
    42    1.844268472299e-02
    43    1.581589508666e-03
    44   -1.538999919487e-02
    45   -9.499337394478e-01
    46   -1.390087912198e-02
    47   -9.722203041658e-03
    48   -1.176978753704e-03
Sym=X
Ene= 0.304764
Spin=Alpha
Occup=0
     1    2.389123325899e-02
     2   -1.685263311010e+00
     3    2.303096931093e-02
     4   -1.222084423158e-03
     5    1.059092771711e-03
     6    8.036856746518e-04
     7    4.657166369145e-04
     8   -5.199360880607e-02
     9    1.315092376995e-01
    10    1.406916801434e-01
    11    1.451609268195e-02
    12    1.182901163241e+00
    13    1.207258218797e+00
    14    1.276578354946e-01
    15    5.481304330760e-04
    16    1.668104904612e-03
    17   -2.022000231764e-03
    18    3.445690961512e-02
    19    3.827351931425e-04
    20   -2.732996265698e-02
    21    1.718642310759e+00
    22   -1.291050311833e-03
    23    2.367296938673e-02
    24    1.292362453935e-03
    25   -6.620658728421e-04
    26    8.321538374147e-04
    27   -5.994366295571e-02
    28   -1.350726668973e-01
    29   -1.419376280989e-01
    30   -1.489470252745e-02
    31   -1.126023522137e+00
    32   -1.216202962474e+00
    33   -1.259342077481e-01
    34    8.672098529662e-04
    35    1.279484848646e-03
    36   -2.151387479752e-03
    37    3.172467512415e-02
    38   -3.052232174196e-04
    39   -2.443235790054e-02
    40    1.711899733150e+00
    41    1.652152129342e-03
    42   -2.305560306738e-02
    43   -1.309427452466e-03
    44    1.296998906885e-02
    45   -1.624214413180e+00
    46   -2.291444547553e-02
    47    1.795609945344e-03
    48   -9.647490051169e-04
Sym=X
Ene= 0.468157
Spin=Alpha
Occup=0
     1   -1.447257195583e-01
     2   -6.988082697019e-01
     3   -1.934677223847e-02
     4   -8.729910068701e-03
     5   -1.433902511486e-03
     6    5.980948578336e-02
     7    2.589583787044e-02
     8   -3.968133290162e+00
     9    8.719730040569e-02
    10   -8.472111905877e-02
    11   -1.264416581802e-03
    12    2.530539545012e+00
    13   -2.480988437561e+00
    14   -2.083150676361e-02
    15    5.994580172821e-02
    16   -3.972273618774e-03
    17   -5.197251424567e-03
    18   -2.492258443867e-03
    19    1.783557343371e-02
    20   -1.196846030576e-01
    21   -7.310335737680e-01
    22    1.099878302326e-02
    23    1.780846873305e-02
    24    1.569306275881e-03
    25   -6.146265732943e-02
    26   -1.626531160077e-02
    27    4.007653345496e+00
    28    1.068505361925e-01
    29   -9.718657581545e-02
    30   -1.779706596891e-03
    31    2.456568250900e+00
    32   -2.469540697750e+00
    33   -2.700297758838e-02
    34   -5.477562119224e-02
    35    3.198136200926e-03
    36    4.248501501704e-03
    37    2.870664758303e-03
    38   -2.545115188201e-02
    39    8.001803461115e-02
    40    8.125142855728e-01
    41    1.024882659605e-02
    42    1.698197895956e-02
    43    1.476816771136e-03
    44    1.220163671389e-01
    45    6.394643709738e-01
    46   -1.805944121193e-02
    47   -6.099764125715e-03
    48   -1.253305315055e-03
Sym=X
Ene= 0.573682
Spin=Alpha
Occup=0
     1    2.347037308469e-01
     2   -2.440801685430e-02
     3   -1.871258178570e-02
     4    2.441563964720e-02
     5    5.358145447556e-04
     6   -3.730649038958e-03
     7   -1.802109590595e-01
     8   -6.397647278339e-01
     9    3.130514048028e-01
    10   -2.938386753057e-01
    11   -2.220192997717e-03
    12   -6.204768239808e-01
    13    5.779645701813e-01
    14    5.168435030563e-03
    15   -1.488247227784e-03
    16    3.515380919379e-03
    17    2.358304228870e-03
    18    4.967859159906e-03
    19    5.255837756692e-02
    20    2.191053008538e-01
    21    1.936865771642e-02
    22   -2.292875299435e-02
    23    2.011783730170e-02
    24    8.186917567456e-05
    25   -1.253324238173e-02
    26   -1.875141018405e-01
    27   -1.671633281330e-01
    28   -3.025068078594e-01
    29    2.776058707211e-01
    30    1.350841055083e-03
    31    9.019933947658e-01
    32   -8.759499308271e-01
    33   -9.447238797742e-03
    34   -3.225731301067e-03
    35    3.711355033268e-03
    36    2.438196941127e-03
    37    6.840095268347e-03
    38    5.264090761186e-02
    39    2.025337786097e-01
    40    1.706681256908e-01
    41    2.752369298838e-02
    42   -2.181116552420e-02
    43   -3.399544172057e-05
    44    2.359057384482e-01
    45    4.741619374255e-02
    46    2.281864416169e-02
    47   -2.923982916356e-02
    48   -6.924585574065e-04
Sym=X
Ene= 0.614102
Spin=Alpha
Occup=0
     1   -4.830099145485e-01
     2    2.325828085720e-01
     3   -5.812734512715e-02
     4    4.041748188360e-02
     5   -4.372541971007e-04
     6    1.700296422718e-03
     7    1.767032742420e-05
     8    1.608533369226e-01
     9   -3.255621558198e-02
    10   -3.665505907671e-02
    11   -3.656831898430e-03
    12    1.646916736087e-01
    13    3.770740795120e-01
    14    2.951113658367e-02
    15   -8.013731140343e-03
    16   -6.743030361927e-03
    17    8.955509028787e-03
    18   -1.445805725744e-01
    19   -7.062831306726e-03
    20    5.304521036670e-01
    21   -1.871435176021e-01
    22    3.914247923872e-02
    23   -6.231606901004e-02
    24   -1.780623224671e-03
    25   -1.654805955171e-03
    26   -1.297534690077e-02
    27   -7.444676725485e-02
    28   -1.639433218319e-02
    29   -4.236857035864e-02
    30   -3.162574000454e-03
    31    1.008857526515e-01
    32    3.946864207571e-01
    33    2.852164849200e-02
    34    6.636947160720e-04
    35    7.712863535632e-03
    36   -9.169317010075e-03
    37    1.559632663309e-01
    38    1.333088809552e-02
    39   -5.380518111292e-01
    40    2.102583595433e-01
    41    3.679228521344e-02
    42   -6.186735250540e-02
    43   -2.036443220159e-03
    44    5.303693542327e-01
    45   -3.602412238646e-01
    46   -6.261638958572e-02
    47    3.913911014801e-02
    48   -5.057348275716e-04
Sym=X
Ene= 0.682615
Spin=Alpha
Occup=0
     1    1.858073056634e-03
     2    1.201611730943e-03
     3    1.144939994645e-03
     4    1.372376368083e-03
     5   -1.986916299018e-02
     6    1.140123523547e-04
     7    9.052325496265e-04
     8    1.806356482394e-03
     9    3.105267406415e-02
    10    3.948730918701e-02
    11   -6.624981714893e-01
    12   -3.235897767838e-02
    13   -3.290259865213e-02
    14    6.134161438252e-01
    15   -1.795494833075e-03
    16    8.129280008463e-02
    17   -8.044409394926e-02
    18   -8.723623267969e-03
    19   -4.424563666673e-04
    20    1.972649613951e-03
    21    9.057160374165e-04
    22    7.178477715982e-04
    23    9.286132469366e-04
    24   -1.984962648322e-02
    25    5.987155572778e-05
    26    1.866645289031e-03
    27   -3.741860585600e-03
    28    3.208969425298e-02
    29    3.907881815428e-02
    30   -6.632208990974e-01
    31   -3.325420332383e-02
    32   -3.241275752732e-02
    33    6.110131581699e-01
    34    8.647074050784e-04
    35   -8.096448061216e-02
    36    8.087702484174e-02
    37    8.583916073979e-03
    38    7.678355959307e-04
    39    3.222550404713e-04
    40   -2.914275656064e-03
    41    1.008806828707e-03
    42    1.801612229504e-03
    43   -2.177692266327e-02
    44    3.758881448810e-04
    45   -2.516636051635e-03
    46    2.066232398952e-04
    47    8.600418532194e-04
    48   -1.365979545551e-02
Sym=X
Ene= 0.706759
Spin=Alpha
Occup=0
     1   -4.933625740453e-01
     2    1.319879451471e-01
     3   -7.349526753653e-02
     4   -4.337869939343e-02
     5   -6.251166103584e-03
     6   -4.633350644318e-02
     7   -3.186493787031e-01
     8    6.469227936724e-01
     9    1.757589267076e-01
    10   -1.853070698940e-01
    11   -4.346755418017e-03
    12   -7.499104134284e-02
    13    1.384214019905e-01
    14    4.178180032180e-03
    15    1.844625620001e-01
    16   -2.021618167040e-02
    17   -2.310685165736e-02
    18    2.354709620399e-03
    19   -8.413786677683e-02
    20   -4.587616258188e-01
    21    1.654785102829e-01
    22    4.318002481479e-02
    23    7.682972355538e-02
    24    6.392171070207e-03
    25   -4.621554310535e-02
    26   -2.975351764701e-01
    27    3.647510851096e-01
    28   -1.934271363861e-01
    29    1.604543486095e-01
    30   -1.532589933326e-03
    31   -6.172429907343e-03
    32    7.109750807362e-02
    33    8.269512485628e-03
    34    1.977692262080e-01
    35   -2.080680346304e-02
    36   -2.422847486985e-02
    37    4.738103449534e-03
    38   -7.528260224856e-02
    39   -4.994582507803e-01
    40    9.047266163485e-02
    41   -3.870634827738e-02
    42   -8.319886116841e-02
    43   -6.724444208042e-03
    44   -5.145204364373e-01
    45    2.005248550586e-01
    46    7.671014981296e-02
    47    4.736819153309e-02
    48    6.573286625052e-03
Sym=X
Ene= 0.789655
Spin=Alpha
Occup=0
     1   -5.448136164405e-01
     2    5.436916909042e-01
     3   -1.225997444582e-01
     4   -3.188409781865e-02
     5   -7.804192047579e-03
     6   -9.194717514377e-02
     7    1.891637393453e-01
     8    8.137689917460e-01
     9   -5.789751502185e-02
    10    7.790443507109e-02
    11   -1.387104288768e-03
    12   -4.463691671277e-01
    13    4.234323184964e-01
    14    8.664294065199e-03
    15    2.120752256921e-01
    16   -1.975834384355e-02
    17   -2.204343919266e-02
    18   -1.113984251900e-02
    19   -2.448374457064e-02
    20   -5.377202119658e-01
    21    4.950999644350e-01
    22    2.302174360389e-02
    23    1.131898299528e-01
    24    7.662944733131e-03
    25    8.816618093752e-02
    26   -2.490801141768e-01
    27   -7.668448908339e-01
    28   -3.615099028459e-02
    29    1.274547837614e-01
    30    8.128043076754e-03
    31   -5.114899870647e-01
    32    3.013285210985e-01
    33   -1.225569975629e-02
    34   -1.963499786127e-01
    35    1.732137179238e-02
    36    2.072865736142e-02
    37    1.478432991848e-02
    38    1.526599931192e-02
    39    5.051729439906e-01
    40   -4.006961732780e-01
    41    2.218099617156e-02
    42    9.981949453602e-02
    43    7.030562725126e-03
    44    5.685922669558e-01
    45   -6.504385741187e-01
    46   -1.215754086594e-01
    47   -3.219130915973e-02
    48   -7.633207584425e-03
Sym=X
Ene= 0.810974
Spin=Alpha
Occup=0
     1    1.890690968816e-03
     2   -2.792996160518e-03
     3    2.227453811355e-03
     4    2.211770811733e-03
     5   -3.616827615351e-02
     6    3.849975187528e-04
     7   -1.450769265838e-03
     8   -1.478967704813e-03
     9    3.711387734419e-02
    10    4.381361760353e-02
    11   -7.629765977889e-01
    12   -5.317793956746e-02
    13   -6.791016451840e-02
    14    1.142475167433e+00
    15    2.383457782012e-04
    16   -7.170577072437e-02
    17    7.141197394065e-02
    18    7.830061158287e-03
    19    5.686872969136e-04
    20    1.878531897153e-03
    21   -1.574213671663e-03
    22    1.659996131916e-03
    23    1.648491912084e-03
    24   -3.394096371310e-02
    25   -2.853824172969e-04
    26   -3.849116886824e-05
    27    2.260138171436e-03
    28   -3.645167165295e-02
    29   -4.637165665413e-02
    30    7.640438623262e-01
    31    5.750564214936e-02
    32    6.691379105294e-02
    33   -1.140675236304e+00
    34    2.140527472800e-03
    35   -7.194998780066e-02
    36    7.114070643638e-02
    37    7.422143356153e-03
    38    8.272671321376e-04
    39   -1.714327216844e-03
    40    1.445325204248e-03
    41   -1.386933401377e-03
    42   -2.619603008915e-03
    43    3.345452180678e-02
    44   -1.910704548706e-03
    45    3.848538321677e-03
    46   -4.382682706672e-04
    47   -1.761053683238e-03
    48    2.874904508308e-02
Sym=X
Ene= 0.856134
Spin=Alpha
Occup=0
     1   -2.943010748520e-02
     2   -1.051503742860e+00
     3    1.322881200857e-01
     4    5.658132846857e-02
     5    9.543851189465e-03
     6   -6.181303368381e-03
     7    4.459313448950e-02
     8   -2.400829885210e-02
     9   -4.095455029335e-01
    10   -3.891505667067e-01
    11   -4.196557373842e-02
    12    9.331272980729e-01
    13    9.487320601697e-01
    14    9.959040995995e-02
    15    1.301808987390e-02
    16    1.037968643288e-02
    17   -1.396307244747e-02
    18    2.234526633666e-01
    19    1.629771132712e-02
    20   -2.130405704853e-02
    21    1.087238223167e+00
    22    5.119491349969e-02
    23    1.490315401948e-01
    24    1.136398749816e-02
    25    9.215122979568e-03
    26    1.791146265663e-02
    27   -1.861486089675e-02
    28   -4.496266060259e-01
    29   -4.206898513284e-01
    30   -4.686687256385e-02
    31    9.869391904995e-01
    32    1.007961768641e+00
    33    1.076467112964e-01
    34   -2.854888967723e-02
    35   -9.493798840539e-03
    36    1.598786869663e-02
    37   -2.310093851121e-01
    38   -1.845543157207e-02
    39    3.970943646320e-02
    40   -1.111049479741e+00
    41    4.053222563260e-02
    42    1.599628578452e-01
    43    1.171624623828e-02
    44    2.876316071981e-02
    45    1.078315537922e+00
    46    1.418648800178e-01
    47    5.286723734863e-02
    48    9.581233947058e-03
Sym=X
Ene= 0.936430
Spin=Alpha
Occup=0
     1    1.419909735668e-01
     2   -1.307186388088e+00
     3    1.971362536709e-01
     4   -5.489030580732e-03
     5    9.349222382349e-03
     6    4.776429184538e-03
     7   -6.924568816449e-02
     8    1.490710494401e-01
     9   -4.673177043714e-01
    10   -5.307010527216e-01
    11   -5.361382695662e-02
    12    1.436852716901e+00
    13    1.610500771950e+00
    14    1.634001724165e-01
    15   -1.286209284395e-02
    16    7.398221183038e-03
    17   -6.000253866210e-03
    18    1.287384924792e-01
    19   -3.710392167030e-03
    20   -1.075573754771e-01
    21    1.301063931098e+00
    22   -1.110422991312e-02
    23    1.791092152963e-01
    24    9.713252560957e-03
    25   -8.004842831752e-03
    26   -9.842669511160e-02
    27    9.171681942613e-02
    28    5.182554175017e-01
    29    4.334182287602e-01
    30    5.042103854852e-02
    31   -1.511232643094e+00
    32   -1.358149844614e+00
    33   -1.525053119592e-01
    34    2.036947099305e-02
    35    5.194206043732e-03
    36   -6.365921274893e-03
    37    1.000433024531e-01
    38    3.876560918976e-02
    39   -1.301264600289e-01
    40    1.116909903883e+00
    41    3.147440780564e-02
    42   -1.622527796935e-01
    43   -8.064756396502e-03
    44    1.134039040919e-01
    45   -1.274521289758e+00
    46   -1.825910039608e-01
    47   -2.564174233913e-03
    48   -8.799495337479e-03
Sym=X
Ene= 0.988036
Spin=Alpha
Occup=0
     1   -7.030126336791e-03
     2    9.794917385988e-01
     3   -9.557843555551e-02
     4   -1.029440857235e-01
     5   -1.061012399460e-02
     6    3.472143517993e-02
     7    3.158102600105e-01
     8    2.758712099748e-01
     9    4.987149180198e-01
    10   -4.266070115027e-01
    11   -6.526517983587e-04
    12   -1.509663747883e+00
    13    1.207106894509e+00
    14   -3.233083145119e-03
    15   -6.951660599395e-02
    16   -1.139814616229e-02
    17   -8.422281567547e-03
    18    8.806745335978e-03
    19   -3.015372091702e-01
    20   -3.892038480254e-02
    21    8.173967748080e-01
    22    9.635657980411e-02
    23    8.270452847172e-02
    24    9.637205625941e-03
    25   -3.454301627950e-02
    26   -2.769921243892e-01
    27   -3.435124214796e-01
    28    4.306445935836e-01
    29   -5.002588066379e-01
    30   -9.957576362962e-03
    31   -1.217310754199e+00
    32    1.542753783647e+00
    33    3.564400524148e-02
    34    6.757349269309e-02
    35    9.307433366060e-03
    36    9.239833303347e-03
    37   -3.230385691702e-02
    38    2.877315034379e-01
    39    3.017258799368e-02
    40   -1.056377060455e+00
    41    9.076249919199e-02
    42    1.112593727360e-01
    43    1.136052090007e-02
    44    2.428853424983e-02
    45   -7.041407329047e-01
    46   -6.275024228202e-02
    47   -9.787903089869e-02
    48   -8.245214743692e-03
[5D]

======= END OF MOLDEN-FORMATTED INPUT FILE =======


        *************************************************************
        *                                                           *
        *  Thank you very much for using Q-Chem.  Have a nice day.  *
        *                                                           *
        *************************************************************


