                  Welcome to Q-Chem
     A Quantum Leap Into The Future Of Chemistry


 Q-Chem 5.4 (devel), Q-Chem, Inc., Pleasanton, CA (2021)

 E. Epifanovsky,  A. T. B. Gilbert,  Xintian Feng,  Joonho Lee,  Yuezhi Mao,  
 N. Mardirossian,  P. Pokhilko,  A. White,  M. Wormit,  M. P. Coons,  
 A. L. Dempwolff,  Zhengting Gan,  D. Hait,  P. R. Horn,  L. D. Jacobson,  
 I. Kaliman,  J. Kussmann,  A. W. Lange,  Ka Un Lao,  D. S. Levine,  Jie Liu,  
 S. C. McKenzie,  A. F. Morrison,  K. Nanda,  F. Plasser,  D. R. Rehn,  
 M. L. Vidal,  Zhi-Qiang You,  Ying Zhu,  B. Alam,  B. Albrecht,  
 A. Aldossary,  E. Alguire,  J. H. Andersen,  D. Barton,  K. Begam,  A. Behn,  
 Y. A. Bernard,  E. J. Berquist,  H. Burton,  A. Carreras,  K. Carter-Fenk,  
 R. Chakraborty,  A. D. Chien,  K. D. Closser,  V. Cofer-Shabica,  
 S. Dasgupta,  Jia Deng,  M. de Wergifosse,  M. Diedenhofen,  Hainam Do,  
 S. Ehlert,  Po-Tung Fang,  S. Fatehi,  Qingguo Feng,  T. Friedhoff,  
 J. Gayvert,  Qinghui Ge,  G. Gidofalvi,  M. Goldey,  J. Gomes,  
 C. Gonzalez-Espinoza,  S. Gulania,  A. Gunina,  M. W. D. Hanson-Heine,  
 P. H. P. Harbach,  A. W. Hauser,  M. F. Herbst,  M. Hernandez Vera,  
 M. Hodecker,  Z. C. Holden,  S. Houck,  Xunkun Huang,  Kerwin Hui,  
 B. C. Huynh,  M. Ivanov,  Hyunjun Ji,  Hanjie Jiang,  B. Kaduk,  S. Kaehler,  
 K. Khistyaev,  Jaehoon Kim,  P. Klunzinger,  Z. Koczor-Benda,  
 Joong Hoon Koh,  D. Kosenkov,  L. Koulias,  T. Kowalczyk,  C. M. Krauter,  
 K. Kue,  A. Kunitsa,  T. Kus,  A. Landau,  K. V. Lawler,  D. Lefrancois,  
 S. Lehtola,  Rain Li,  Yi-Pei Li,  Jiashu Liang,  M. Liebenthal,  
 Hung-Hsuan Lin,  You-Sheng Lin,  Fenglai Liu,  Kuan-Yu Liu,  
 M. Loipersberger,  A. Luenser,  A. Manjanath,  P. Manohar,  E. Mansoor,  
 S. F. Manzer,  Shan-Ping Mao,  A. V. Marenich,  T. Markovich,  S. Mason,  
 S. A. Maurer,  P. F. McLaughlin,  M. F. S. J. Menger,  J.-M. Mewes,  
 S. A. Mewes,  P. Morgante,  J. W. Mullinax,  K. J. Oosterbaan,  G. Paran,  
 Alexander C. Paul,  Suranjan K. Paul,  F. Pavosevic,  Zheng Pei,  S. Prager,  
 E. I. Proynov,  E. Ramos,  B. Rana,  A. E. Rask,  A. Rettig,  R. M. Richard,  
 F. Rob,  E. Rossomme,  T. Scheele,  M. Scheurer,  M. Schneider,  
 N. Sergueev,  S. M. Sharada,  W. Skomorowski,  D. W. Small,  C. J. Stein,  
 Yu-Chuan Su,  E. J. Sundstrom,  Zhen Tao,  J. Thirman,  T. Tsuchimochi,  
 N. M. Tubman,  S. P. Veccham,  O. Vydrov,  J. Wenzel,  J. Witte,  A. Yamada,  
 Kun Yao,  S. Yeganeh,  S. R. Yost,  A. Zech,  Igor Ying Zhang,  Xing Zhang,  
 Yu Zhang,  D. Zuev,  A. Aspuru-Guzik,  A. T. Bell,  N. A. Besley,  
 K. B. Bravaya,  B. R. Brooks,  D. Casanova,  Jeng-Da Chai,  S. Coriani,  
 C. J. Cramer,  A. E. DePrince, III,  R. A. DiStasio Jr.,  A. Dreuw,  
 B. D. Dunietz,  T. R. Furlani,  W. A. Goddard III,  S. Grimme,  
 S. Hammes-Schiffer,  T. Head-Gordon,  W. J. Hehre,  Chao-Ping Hsu,  
 T.-C. Jagau,  Yousung Jung,  A. Klamt,  Jing Kong,  D. S. Lambrecht,  
 WanZhen Liang,  N. J. Mayhall,  C. W. McCurdy,  J. B. Neaton,  
 C. Ochsenfeld,  J. A. Parkhill,  R. Peverati,  V. A. Rassolov,  Yihan Shao,  
 L. V. Slipchenko,  T. Stauch,  R. P. Steele,  J. E. Subotnik,  
 A. J. W. Thom,  A. Tkatchenko,  D. G. Truhlar,  T. Van Voorhis,  
 T. A. Wesolowski,  K. B. Whaley,  H. L. Woodcock III,  P. M. Zimmerman,  
 S. Faraji,  P. M. W. Gill,  M. Head-Gordon,  J. M. Herbert,  A. I. Krylov

 Additional authors for Version 5.4.1: 
 S. Kotaru,  Shaozhi Li,  Xiangyuan Li,  F. Matz,  A. Molle,  Haisheng Ren,  
 Yingli Su,  Hung-Yi Tsai,  C. Utku,  Fang Wang

 Contributors to earlier versions of Q-Chem not listed above: 
 R. D. Adamson,  B. Austin,  R. Baer,  J. Baker,  G. J. O. Beran,  
 K. Brandhorst,  S. T. Brown,  E. F. C. Byrd,  A. K. Chakraborty,  
 G. K. L. Chan,  Chun-Min Chang,  Yunqing Chen,  C.-L. Cheng,  
 Siu Hung Chien,  D. M. Chipman,  D. L. Crittenden,  H. Dachsel,  
 R. J. Doerksen,  A. D. Dutoi,  R. G. Edgar,  J. Fosso-Tande,  
 L. Fusti-Molnar,  D. Ghosh,  A. Ghysels,  A. Golubeva-Zadorozhnaya,  
 J. Gonthier,  M. S. Gordon,  S. R. Gwaltney,  G. Hawkins,  J. E. Herr,  
 A. Heyden,  S. Hirata,  E. G. Hohenstein,  G. Kedziora,  F. J. Keil,  
 C. Kelley,  Jihan Kim,  R. A. King,  R. Z. Khaliullin,  P. P. Korambath,  
 W. Kurlancheek,  A. Laurent,  A. M. Lee,  M. S. Lee,  S. V. Levchenko,  
 Ching Yeh Lin,  D. Liotard,  E. Livshits,  R. C. Lochan,  I. Lotan,  
 L. A. Martinez-Martinez,  P. E. Maslen,  N. Nair,  D. P. O'Neill,  
 D. Neuhauser,  E. Neuscamman,  C. M. Oana,  R. Olivares-Amaya,  R. Olson,  
 T. M. Perrine,  B. Peters,  P. A. Pieniazek,  A. Prociuk,  Y. M. Rhee,  
 J. Ritchie,  M. A. Rohrdanz,  E. Rosta,  N. J. Russ,  H. F. Schaefer III,  
 M. W. Schmidt,  N. E. Schultz,  S. Sharma,  N. Shenvi,  C. D. Sherrill,  
 A. C. Simmonett,  A. Sodt,  T. Stein,  D. Stuck,  K. S. Thanthiriwatte,  
 V. Vanovschi,  L. Vogt,  Tao Wang,  A. Warshel,  M. A. Watson,  
 C. F. Williams,  Q. Wu,  X. Xu,  Jun Yang,  W. Zhang,  Yan Zhao

 Please cite Q-Chem as follows:
 Y. Shao et al., Mol. Phys. 113, 184-215 (2015)
 DOI: 10.1080/00268976.2014.952696

 Q-Chem 5.4.1 for Intel X86 EM64T Linux

 Parts of Q-Chem use Armadillo 9.800.1 (Horizon Scraper).
 http://arma.sourceforge.net/

 Q-Chem begins on Tue Mar 21 11:26:10 2023  

 Host: cpu186.baobab
0

     Scratch files written to /scratch/fum/qchem55617//
 Processing $rem in /home/share/wesolowski/qc5.aug2021.FDE/config/preferences:
 Processing $rem in /home/fum/.qchemrc:

 Checking the input file for inconsistencies... 	...done.

--------------------------------------------------------------
User input:
--------------------------------------------------------------
$comment
generated from CCJob.Templates
$end

$rem
sym_ignore = true
method = adc(2)
ee_states = 10
basis = cc-pVDZ
mem_static = 1024
mem_total = 40000
adc_davidson_maxiter = 900
adc_davidson_conv = 6
adc_print = 3
adc_prop_es = true
adc_prop_es2es = true
adc_prop_tpa = true
molden_format = True
state_analysis = true
print_orbitals = 15
gen_scfman = false
fde_export_density = true
fde_details = 3
$end

$molecule
0 1
H -0.02162079564259355 -0.2470771699579586 0.0667141062153057
C -1.0778252827503916 -0.5243113472380254 -0.004074373386901614
H -1.3012829407465034 -1.593134948253675 -0.07610859358461126
C -2.044845604849528 0.3937355263380923 0.008318920885522196
H -1.8214274078535657 1.4625706133534997 0.08033945508698487
H -3.1010610190576164 0.11651231545789861 -0.06238449291292055                     
$end
--------------------------------------------------------------
 ----------------------------------------------------------------
             Standard Nuclear Orientation (Angstroms)
    I     Atom           X                Y                Z
 ----------------------------------------------------------------
    1      H      -0.0216207956    -0.2470771700     0.0667141062
    2      C      -1.0778252828    -0.5243113472    -0.0040743734
    3      H      -1.3012829407    -1.5931349483    -0.0761085936
    4      C      -2.0448456048     0.3937355263     0.0083189209
    5      H      -1.8214274079     1.4625706134     0.0803394551
    6      H      -3.1010610191     0.1165123155    -0.0623844929
 ----------------------------------------------------------------
 Nuclear Repulsion Energy =          33.20986033 hartrees
 There are        8 alpha and        8 beta electrons
 Requested basis set is cc-pVDZ
 There are 24 shells and 48 basis functions
 Total memory of 40000 MB is distributed as follows: 
   MEM_STATIC is set to 1024 MB
   QALLOC/CCMAN JOB total memory use is  38976 MB
 Warning: actual memory use might exceed 40000 MB

 Total QAlloc Memory Limit  40000 MB
 Mega-Array Size      1001 MB
 MEM_STATIC part      1024 MB

                       Distance Matrix (Angstroms)
             H (  1)   C (  2)   H (  3)   C (  4)   H (  5)
   C (  2)  1.094275
   H (  3)  1.862741  1.094306
   C (  4)  2.123085  1.333451  2.123127
   H (  5)  2.482415  2.123151  3.103605  1.094308
   H (  6)  3.103517  2.123096  2.482395  1.094277  1.862714

 A cutoff of  1.0D-11 yielded    300 shell pairs
 There are      1220 function pairs (      1329 Cartesian)
 Smallest overlap matrix eigenvalue = 4.81E-03

 Scale SEOQF with 1.000000e-01/1.000000e-01/1.000000e+00

 Standard Electronic Orientation quadrupole field applied
 Nucleus-field energy     =     0.0000000022 hartrees
 Guess from superposition of atomic densities
 Warning:  Energy on first SCF cycle will be non-variational
 SAD guess density has 16.000000 electrons
 A restricted Hartree-Fock SCF calculation will be
 performed using Pulay DIIS extrapolation
 SCF converges when DIIS error is below 1.0E-08
 using 10 threads for integral computing
 -------------------------------------------------------
 OpenMP Integral computing Module                
 Release: version 1.0, May 2013, Q-Chem Inc. Pittsburgh 
 -------------------------------------------------------
 ---------------------------------------
  Cycle       Energy         DIIS Error
 ---------------------------------------
    1     -78.3977644382      9.93E-02
    2     -78.0175860106      7.13E-03
    3     -78.0380517797      1.83E-03
    4     -78.0395278872      5.64E-04
    5     -78.0396454971      5.81E-05
    6     -78.0396473606      9.29E-06
    7     -78.0396474220      1.95E-06
    8     -78.0396474247      1.67E-07
    9     -78.0396474247      1.80E-08
   10     -78.0396474247      4.29E-09 Convergence criterion met
 ---------------------------------------
 SCF time:  CPU 1.91 s  wall 2.34 s
 SCF   energy in the final basis set = -78.03964742
 Total energy in the final basis set = -78.03964742
Exporting Density Matrix to file 'Densmat_SCF.txt'.
Export successful
================================================================================
|                                                                              |
|                                 A D C  M A N                                 |
|                                                                              |
 ------------------------------------------------------------------------------ 
|                                                                              |
| Components:                                                                  |
|                                                                              |
| - libvmm - 1.3-trunk                                                         |
|   Authors:                                                                   |
|   Evgeny Epifanovsky, Ilya Kaliman                                           |
|                                                                              |
| - libtensor - 2.5-trunk                                                      |
|   Authors:                                                                   |
|   Evgeny Epifanovsky, Michael Wormit, Dmitry Zuev, Sam Manzer,               |
|   Ilya Kaliman                                                               |
|                                                                              |
| - libwfa - 1.1-trunk                                                         |
|   Authors:                                                                   |
|   Felix Plasser, Stefanie Mewes (Baeppler), Benjamin Thomitzni,              |
|   Michael Wormit, Feng Chen, Anna I. Krylov, Pavel Pokhilko                  |
|                                                                              |
| - libadc - 1.1-trunk                                                         |
|   Authors:                                                                   |
|   Michael Wormit, Adrian L. Dempwolff, Philipp H. P. Harbach,                |
|   Caroline Krauter, Dirk Rehn, Matthias Schneider, Jan Wenzel                |
|                                                                              |
| - adcman - 2.6-trunk                                                         |
|   Authors:                                                                   |
|   Michael Wormit, Adrian L. Dempwolff, Philipp H. P. Harbach,                |
|   Caroline Krauter, Daniel Lefrancois, Jan-Michael Mewes, Dirk Rehn,         |
|   Matthias Schneider, Jan Wenzel, Andreas Dreuw                              |
|                                                                              |
| Authors of earlier versions of ADCMAN:                                       |
| Andreas Dreuw, Jan Hendrik Starcke, Dirk Rehn, Michael Wormit                |
|                                                                              |
================================================================================

 Created directory /scratch/fum/qchem55617/plots
  Import QC data ...  CPU 0.00 s  wall 0.00 s

 Alpha MOs, Restricted
 -- Occupied --                  
-11.239 -11.237  -1.030  -0.786  -0.635  -0.582  -0.500  -0.374
  1 A     2 A     3 A     4 A     5 A     6 A     7 A     8 A                  
 -- Virtual --                   
  0.168   0.203   0.231   0.236   0.303   0.463   0.580   0.609
  9 A    10 A    11 A    12 A    13 A    14 A    15 A    16 A                  
  0.689   0.705   0.776   0.807   0.858   0.928   0.971   1.006
 17 A    18 A    19 A    20 A    21 A    22 A    23 A    24 A                  
  1.130   1.237   1.241   1.263   1.291   1.593   1.728   1.744
 25 A    26 A    27 A    28 A    29 A    30 A    31 A    32 A                  
  1.811   1.852   1.854   1.901   1.963   1.972   2.224   2.248
 33 A    34 A    35 A    36 A    37 A    38 A    39 A    40 A                  
  2.355   2.423   2.493   2.623   2.679   2.795   3.099   3.369
 41 A    42 A    43 A    44 A    45 A    46 A    47 A    48 A                  

 Beta MOs, Restricted
 -- Occupied --                  
-11.239 -11.237  -1.030  -0.786  -0.635  -0.582  -0.500  -0.374
  1 A     2 A     3 A     4 A     5 A     6 A     7 A     8 A                  
 -- Virtual --                   
  0.168   0.203   0.231   0.236   0.303   0.463   0.580   0.609
  9 A    10 A    11 A    12 A    13 A    14 A    15 A    16 A                  
  0.689   0.705   0.776   0.807   0.858   0.928   0.971   1.006
 17 A    18 A    19 A    20 A    21 A    22 A    23 A    24 A                  
  1.130   1.237   1.241   1.263   1.291   1.593   1.728   1.744
 25 A    26 A    27 A    28 A    29 A    30 A    31 A    32 A                  
  1.811   1.852   1.854   1.901   1.963   1.972   2.224   2.248
 33 A    34 A    35 A    36 A    37 A    38 A    39 A    40 A                  
  2.355   2.423   2.493   2.623   2.679   2.795   3.099   3.369
 41 A    42 A    43 A    44 A    45 A    46 A    47 A    48 A                  
  Import AO data ...  CPU 0.00 s  wall 0.00 s
  Using point group: C1
  Irreducible representations in point group: A
  Molecular orbitals: 
  Occupied MOs:
  Block   0:   1 (  A) A   2 (  A) A   3 (  A) A   4 (  A) A   5 (  A) A
                  -11.24      -11.24       -1.03     -0.7859      -0.635
               6 (  A) A   7 (  A) A   8 (  A) A
                 -0.5823     -0.4995     -0.3744
  Block   1:   1 (  A) B   2 (  A) B   3 (  A) B   4 (  A) B   5 (  A) B
                  -11.24      -11.24       -1.03     -0.7859      -0.635
               6 (  A) B   7 (  A) B   8 (  A) B
                 -0.5823     -0.4995     -0.3744
  Virtual MOs:
  Block   0:   9 (  A) A  10 (  A) A  11 (  A) A  12 (  A) A  13 (  A) A
                  0.1679      0.2026       0.231      0.2364       0.303
              14 (  A) A  15 (  A) A  16 (  A) A  17 (  A) A  18 (  A) A
                  0.4628      0.5798      0.6089      0.6887      0.7048
              19 (  A) A  20 (  A) A  21 (  A) A  22 (  A) A
                  0.7757      0.8074      0.8584       0.928
  Block   1:  23 (  A) A  24 (  A) A  25 (  A) A  26 (  A) A  27 (  A) A
                  0.9706       1.006        1.13       1.237       1.241
              28 (  A) A  29 (  A) A  30 (  A) A  31 (  A) A  32 (  A) A
                   1.263       1.291       1.593       1.728       1.744
              33 (  A) A  34 (  A) A  35 (  A) A  36 (  A) A
                   1.811       1.852       1.854       1.901
  Block   2:  37 (  A) A  38 (  A) A  39 (  A) A  40 (  A) A  41 (  A) A
                   1.963       1.972       2.224       2.248       2.355
              42 (  A) A  43 (  A) A  44 (  A) A  45 (  A) A  46 (  A) A
                   2.423       2.493       2.623       2.679       2.795
              47 (  A) A  48 (  A) A
                   3.099       3.369
  Block   3:   9 (  A) B  10 (  A) B  11 (  A) B  12 (  A) B  13 (  A) B
                  0.1679      0.2026       0.231      0.2364       0.303
              14 (  A) B  15 (  A) B  16 (  A) B  17 (  A) B  18 (  A) B
                  0.4628      0.5798      0.6089      0.6887      0.7048
              19 (  A) B  20 (  A) B  21 (  A) B  22 (  A) B
                  0.7757      0.8074      0.8584       0.928
  Block   4:  23 (  A) B  24 (  A) B  25 (  A) B  26 (  A) B  27 (  A) B
                  0.9706       1.006        1.13       1.237       1.241
              28 (  A) B  29 (  A) B  30 (  A) B  31 (  A) B  32 (  A) B
                   1.263       1.291       1.593       1.728       1.744
              33 (  A) B  34 (  A) B  35 (  A) B  36 (  A) B
                   1.811       1.852       1.854       1.901
  Block   5:  37 (  A) B  38 (  A) B  39 (  A) B  40 (  A) B  41 (  A) B
                   1.963       1.972       2.224       2.248       2.355
              42 (  A) B  43 (  A) B  44 (  A) B  45 (  A) B  46 (  A) B
                   2.423       2.493       2.623       2.679       2.795
              47 (  A) B  48 (  A) B
                   3.099       3.369
  Import MO data ...  CPU 0.02 s  wall 0.01 s
  Import HF data ...  CPU 0.44 s  wall 0.14 s
  Import 2e integrals ...  CPU 1.08 s  wall 0.21 s

--------------------------------------------------------------------------------
                                   HF Summary                                   
--------------------------------------------------------------------------------
  Energy:                                                  -78.0396474247 a.u.
  Dip. moment [a.u.]:                  [  -0.000005,    0.000002,    0.000020]
  Total dipole [Debye]:                                               0.000052
  <r^2> [a.u.]:                        [ 175.825461,   35.295030,   11.680922]
  Total <r^2> [a.u.]:                                               222.801413
--------------------------------------------------------------------------------
  HF properties ...  CPU 0.03 s  wall 0.02 s
  MP(1) calculation ...  CPU 0.01 s  wall 0.01 s
  N^6 prerequesite intermediates ...  CPU 0.80 s  wall 0.13 s
  Difference density matrix of state mp2_gs printed to ASCII file 'State_mp2_gs_Difference.txt'
Exporting MP density matrix to file 'Densmat_MP.txt'.
Export successful
  Total density matrix of state mp2_gs printed to ASCII file 'State_mp2_gs_Total.txt'
Exporting MP density matrix to file 'Densmat_MP.txt'.
Export successful

--------------------------------------------------------------------------------
                                 MP(2) Summary                                  
--------------------------------------------------------------------------------
  MP energy contribution:                                   -0.2804897551 a.u.
  Total energy:                                            -78.3201371798 a.u.
  Dip. moment [a.u.]:                  [  -0.000005,    0.000002,    0.000019]
  Total dipole [Debye]:                                               0.000051
  <r^2> [a.u.]:                        [ 175.865726,   35.330803,   11.508506]
  Total <r^2> [a.u.]:                                               222.705035

  Density matrix analysis:
  ------------------------
  NOs
    Occupation of frontier NOs:
       0.0455   1.9380
    Number of electrons: 16.000000
    Number of unpaired electrons: n_u =  0.40725, n_u,nl =  0.04580
    NO participation ratio (PR_NO): 13.896449
  
  
  Mulliken Population Analysis
  Atom      Charge (e)              h+              e-           Del q
  --------------------------------------------------------------------
   1 H        0.054972        0.013907       -0.011309        0.002598
   2 C       -0.109945        0.094596       -0.099791       -0.005195
   3 H        0.054980        0.013907       -0.011309        0.002597
   4 C       -0.109954        0.094595       -0.099791       -0.005196
   5 H        0.054979        0.013907       -0.011309        0.002598
   6 H        0.054970        0.013907       -0.011309        0.002598
  --------------------------------------------------------------------
  Sum:       -0.000000        0.244819       -0.244819        0.000000
  
  Multipole moment analysis of the density matrix
    Molecular charge:                      -0.000000
    Number of electrons:                   16.000000
      Center of electronic charge [Ang]: [ -1.561338,  -0.065287,   0.002126]
    Total nuclear charge:                  16.000000
      Center of nuclear charge [Ang]:    [ -1.561339,  -0.065287,   0.002127]
    Dipole moment [D]:                     0.000051
      Cartesian components [D]:          [ -0.000012,   0.000004,   0.000049]
    RMS size of the density [Ang]:         1.206520
      Cartesian components [Ang]:        [  0.800116,   0.783639,   0.448793]
  
  Exciton analysis of the difference density matrix
    <r_h> [Ang]:                  [ -1.561338,  -0.065287,   0.002123]
    <r_e> [Ang]:                  [ -1.561339,  -0.065286,   0.002124]
    |<r_e - r_h>| [Ang]:            0.000001
    Hole size [Ang]:                1.401654
      Cartesian components [Ang]: [  0.853022,   0.840219,   0.728712]
    Electron size [Ang]:            1.361761
      Cartesian components [Ang]: [  0.879603,   0.864225,   0.577761]
--------------------------------------------------------------------------------
  MP(2) calculation ...  CPU 0.28 s  wall 0.20 s
  Start ADC(2)-s ...  CPU 0.02 s  wall 0.01 s
  ADC(2) intermediates ...  CPU 0.04 s  wall 0.01 s
  Starting Davidson for singlet states of irrep A ... 
--------------------------------------------------------------------------------
   It NVec Conv  Avg. Norm  Max. Norm  Conv. states           Remark
--------------------------------------------------------------------------------
        10    0  1.329e-01  4.687e-01  0.4117 n n n n n n n n Guess.
    1   20    0  2.334e-02  1.125e-01  0.3261 n n n n n n n n 
    2   30    0  6.149e-03  2.461e-02  0.3213 n n n n n n n n 
    3   40    0  2.087e-03  1.049e-02  0.3209 n n n n n n n n 
    4   50    0  5.354e-04  3.450e-03  0.3209 n n n n n n n n 
    5   20    0  3.096e-04  1.665e-03  0.3209 n n n n n n n n Subspace collapsed.
    6   30    0  2.272e-04  1.575e-03  0.3209 n n n n n n n n 
    7   40    0  1.274e-04  7.766e-04  0.3209 n n n n n n n n 
    8   50    0  5.183e-05  3.348e-04  0.3209 n n n n n n n n 
    9   20    2  2.801e-05  1.914e-04  0.3209 n y n y n n n n Subspace collapsed.
   10   30    2  2.147e-05  1.770e-04  0.3209 n y n y n n n n 
   11   40    4  1.092e-05  8.844e-05  0.3209 n y y y y n n n 
   12   50    6  4.645e-06  2.880e-05  0.3209 y y y y y y n n 
   13   20    6  2.913e-06  1.920e-05  0.3209 y y y y y y n n Subspace collapsed.
   14   30    6  2.177e-06  1.383e-05  0.3209 y y y y y y n n 
   15   40    6  1.661e-06  1.229e-05  0.3209 y y y y y y n n 
   16   50    6  1.307e-06  1.138e-05  0.3209 y y y y y y n n 
   17   20    6  7.217e-07  6.115e-06  0.3209 y y y y y y n n Subspace collapsed.
   18   30    7  5.687e-07  4.912e-06  0.3209 y y y y y y n n 
   19   40    8  5.511e-07  5.178e-06  0.3209 y y y y y y y n 
   20   50    8  4.004e-07  3.848e-06  0.3209 y y y y y y y n 
   21   20    9  3.227e-07  3.120e-06  0.3209 y y y y y y y y Subspace collapsed.
   22   30    9  2.526e-07  2.443e-06  0.3209 y y y y y y y y 
   23   39    9  2.202e-07  2.148e-06  0.3209 y y y y y y y y 
   24   46    9  2.155e-07  2.122e-06  0.3209 y y y y y y y y 
   25   50    9  2.105e-07  2.073e-06  0.3209 y y y y y y y y 
   26   15   10  7.967e-08  7.853e-07  0.3209 y y y y y y y y Converged.
--------------------------------------------------------------------------------
  Davidson Summary: 
 ------------------------------------------------------------
  State  0: excitation energy =   0.3209 a.u.   (converged)
  State  1: excitation energy =   0.3290 a.u.   (converged)
  State  2: excitation energy =   0.3360 a.u.   (converged)
  State  3: excitation energy =   0.3579 a.u.   (converged)
  State  4: excitation energy =   0.3733 a.u.   (converged)
  State  5: excitation energy =   0.3866 a.u.   (converged)
  State  6: excitation energy =   0.4202 a.u.   (converged)
  State  7: excitation energy =   0.4435 a.u.   (converged)
  State  8: excitation energy =   0.4537 a.u.   (converged)
  State  9: excitation energy =   0.4585 a.u.   (converged)
 ------------------------------------------------------------

  Singlet states of irrep A ...  CPU 182.78 s  wall 57.94 s
  TDMs ...  CPU 2.11 s  wall 0.77 s
  SDMs ...  CPU 4.04 s  wall 1.32 s
  Starting TPA DIIS iterations ... 
------------------------------------ 
   It     Res. Norm  Remark
------------------------------------
                       Guess.
    1     4.399e+00  
    2     5.837e+00  
    3     1.086e+00  
    4     2.633e-01  
    5     6.571e-02  
    6     2.777e-02  
    7     8.476e-03  
    8     1.551e-03  
    9     5.825e-04  
   10     9.776e-05  
   11     3.153e-05  
   12     4.882e-06  
   13     1.644e-06  
   14     4.797e-07  Converged.
   ... Converged in 14 steps (norm: 4.79747e-07)
------------------------------------
  Starting TPA DIIS iterations ... 
------------------------------------ 
   It     Res. Norm  Remark
------------------------------------
                       Guess.
    1     4.185e+00  
    2     5.542e+00  
    3     1.036e+00  
    4     2.615e-01  
    5     6.545e-02  
    6     2.778e-02  
    7     8.336e-03  
    8     1.572e-03  
    9     5.922e-04  
   10     9.732e-05  
   11     3.186e-05  
   12     4.848e-06  
   13     1.673e-06  
   14     4.748e-07  Converged.
   ... Converged in 14 steps (norm: 4.74806e-07)
------------------------------------
  Starting TPA DIIS iterations ... 
------------------------------------ 
   It     Res. Norm  Remark
------------------------------------
                       Guess.
    1     6.890e-01  
    2     4.875e-01  
    3     1.717e-01  
    4     9.804e-02  
    5     1.782e-02  
    6     6.370e-03  
    7     1.073e-03  
    8     4.589e-04  
    9     1.263e-04  
   10     3.102e-05  
   11     5.077e-06  
   12     1.908e-06  
   13     1.085e-06  
   14     3.382e-07  Converged.
   ... Converged in 14 steps (norm: 3.38245e-07)
------------------------------------
  Starting TPA DIIS iterations ... 
------------------------------------ 
   It     Res. Norm  Remark
------------------------------------
                       Guess.
    1     4.595e+00  
    2     6.188e+00  
    3     1.142e+00  
    4     2.833e-01  
    5     7.138e-02  
    6     3.037e-02  
    7     9.257e-03  
    8     1.692e-03  
    9     6.389e-04  
   10     1.077e-04  
   11     3.495e-05  
   12     5.446e-06  
   13     1.843e-06  
   14     5.364e-07  Converged.
   ... Converged in 14 steps (norm: 5.3643e-07)
------------------------------------
  Starting TPA DIIS iterations ... 
------------------------------------ 
   It     Res. Norm  Remark
------------------------------------
                       Guess.
    1     4.371e+00  
    2     5.876e+00  
    3     1.089e+00  
    4     2.812e-01  
    5     7.111e-02  
    6     3.040e-02  
    7     9.105e-03  
    8     1.717e-03  
    9     6.499e-04  
   10     1.072e-04  
   11     3.531e-05  
   12     5.405e-06  
   13     1.877e-06  
   14     5.308e-07  Converged.
   ... Converged in 14 steps (norm: 5.30753e-07)
------------------------------------
  Starting TPA DIIS iterations ... 
------------------------------------ 
   It     Res. Norm  Remark
------------------------------------
                       Guess.
    1     6.976e-01  
    2     5.001e-01  
    3     1.786e-01  
    4     1.065e-01  
    5     1.877e-02  
    6     6.804e-03  
    7     1.165e-03  
    8     5.143e-04  
    9     1.440e-04  
   10     3.439e-05  
   11     5.536e-06  
   12     2.119e-06  
   13     1.226e-06  
   14     3.887e-07  Converged.
   ... Converged in 14 steps (norm: 3.88655e-07)
------------------------------------
  Starting TPA DIIS iterations ... 
------------------------------------ 
   It     Res. Norm  Remark
------------------------------------
                       Guess.
    1     4.775e+00  
    2     6.515e+00  
    3     1.193e+00  
    4     3.021e-01  
    5     7.675e-02  
    6     3.284e-02  
    7     9.997e-03  
    8     1.826e-03  
    9     6.926e-04  
   10     1.171e-04  
   11     3.825e-05  
   12     5.988e-06  
   13     2.036e-06  
   14     5.910e-07  Converged.
   ... Converged in 14 steps (norm: 5.91004e-07)
------------------------------------
  Starting TPA DIIS iterations ... 
------------------------------------ 
   It     Res. Norm  Remark
------------------------------------
                       Guess.
    1     4.541e+00  
    2     6.186e+00  
    3     1.138e+00  
    4     2.997e-01  
    5     7.646e-02  
    6     3.288e-02  
    7     9.834e-03  
    8     1.854e-03  
    9     7.047e-04  
   10     1.166e-04  
   11     3.863e-05  
   12     5.941e-06  
   13     2.074e-06  
   14     5.847e-07  Converged.
   ... Converged in 14 steps (norm: 5.84653e-07)
------------------------------------
  Starting TPA DIIS iterations ... 
------------------------------------ 
   It     Res. Norm  Remark
------------------------------------
                       Guess.
    1     7.052e-01  
    2     5.114e-01  
    3     1.850e-01  
    4     1.143e-01  
    5     1.966e-02  
    6     7.213e-03  
    7     1.254e-03  
    8     5.687e-04  
    9     1.613e-04  
   10     3.716e-05  
   11     5.965e-06  
   12     2.321e-06  
   13     1.363e-06  
   14     4.386e-07  Converged.
   ... Converged in 14 steps (norm: 4.38558e-07)
------------------------------------
  Starting TPA DIIS iterations ... 
------------------------------------ 
   It     Res. Norm  Remark
------------------------------------
                       Guess.
    1     5.426e+00  
    2     7.725e+00  
    3     1.377e+00  
    4     3.743e-01  
    5     9.726e-02  
    6     4.240e-02  
    7     1.283e-02  
    8     2.338e-03  
    9     8.998e-04  
   10     1.536e-04  
   11     5.122e-05  
   12     8.128e-06  
   13     2.813e-06  
   14     8.076e-07  Converged.
   ... Converged in 14 steps (norm: 8.07637e-07)
------------------------------------
  Starting TPA DIIS iterations ... 
------------------------------------ 
   It     Res. Norm  Remark
------------------------------------
                       Guess.
    1     5.158e+00  
    2     7.334e+00  
    3     1.313e+00  
    4     3.706e-01  
    5     9.693e-02  
    6     4.250e-02  
    7     1.263e-02  
    8     2.378e-03  
    9     9.164e-04  
   10     1.530e-04  
   11     5.166e-05  
   12     8.054e-06  
   13     2.869e-06  
   14     7.991e-07  Converged.
   ... Converged in 14 steps (norm: 7.99133e-07)
------------------------------------
  Starting TPA DIIS iterations ... 
------------------------------------ 
   It     Res. Norm  Remark
------------------------------------
                       Guess.
    1     7.302e-01  
    2     5.506e-01  
    3     2.075e-01  
    4     1.435e-01  
    5     2.294e-02  
    6     8.772e-03  
    7     1.605e-03  
    8     7.867e-04  
    9     2.297e-04  
   10     4.409e-05  
   11     7.589e-06  
   12     3.097e-06  
   13     1.893e-06  
   14     6.471e-07  Converged.
   ... Converged in 14 steps (norm: 6.47055e-07)
------------------------------------
  Starting TPA DIIS iterations ... 
------------------------------------ 
   It     Res. Norm  Remark
------------------------------------
                       Guess.
    1     5.976e+00  
    2     8.783e+00  
    3     1.532e+00  
    4     4.400e-01  
    5     1.159e-01  
    6     5.120e-02  
    7     1.541e-02  
    8     2.802e-03  
    9     1.090e-03  
   10     1.873e-04  
   11     6.339e-05  
   12     1.014e-05  
   13     3.559e-06  
   14     1.015e-06  
   15     3.301e-07  Converged.
   ... Converged in 15 steps (norm: 3.30129e-07)
------------------------------------
  Starting TPA DIIS iterations ... 
------------------------------------ 
   It     Res. Norm  Remark
------------------------------------
                       Guess.
    1     5.680e+00  
    2     8.338e+00  
    3     1.460e+00  
    4     4.350e-01  
    5     1.155e-01  
    6     5.137e-02  
    7     1.517e-02  
    8     2.854e-03  
    9     1.111e-03  
   10     1.866e-04  
   11     6.387e-05  
   12     1.004e-05  
   13     3.633e-06  
   14     1.005e-06  
   15     3.299e-07  Converged.
   ... Converged in 15 steps (norm: 3.29917e-07)
------------------------------------
  Starting TPA DIIS iterations ... 
------------------------------------ 
   It     Res. Norm  Remark
------------------------------------
                       Guess.
    1     7.491e-01  
    2     5.820e-01  
    3     2.260e-01  
    4     1.686e-01  
    5     2.581e-02  
    6     1.019e-02  
    7     1.942e-03  
    8     9.861e-04  
    9     2.905e-04  
   10     4.687e-05  
   11     9.076e-06  
   12     3.789e-06  
   13     2.350e-06  
   14     8.581e-07  Converged.
   ... Converged in 14 steps (norm: 8.58121e-07)
------------------------------------
  Starting TPA DIIS iterations ... 
------------------------------------ 
   It     Res. Norm  Remark
------------------------------------
                       Guess.
    1     6.527e+00  
    2     9.873e+00  
    3     1.686e+00  
    4     5.096e-01  
    5     1.357e-01  
    6     6.063e-02  
    7     1.815e-02  
    8     3.293e-03  
    9     1.294e-03  
   10     2.233e-04  
   11     7.654e-05  
   12     1.231e-05  
   13     4.377e-06  
   14     1.246e-06  
   15     4.082e-07  Converged.
   ... Converged in 15 steps (norm: 4.08208e-07)
------------------------------------
  Starting TPA DIIS iterations ... 
------------------------------------ 
   It     Res. Norm  Remark
------------------------------------
                       Guess.
    1     6.202e+00  
    2     9.372e+00  
    3     1.606e+00  
    4     5.032e-01  
    5     1.352e-01  
    6     6.088e-02  
    7     1.787e-02  
    8     3.359e-03  
    9     1.319e-03  
   10     2.225e-04  
   11     7.703e-05  
   12     1.217e-05  
   13     4.468e-06  
   14     1.236e-06  
   15     4.084e-07  Converged.
   ... Converged in 15 steps (norm: 4.08404e-07)
------------------------------------
  Starting TPA DIIS iterations ... 
------------------------------------ 
   It     Res. Norm  Remark
------------------------------------
                       Guess.
    1     7.663e-01  
    2     6.122e-01  
    3     2.441e-01  
    4     1.934e-01  
    5     2.877e-02  
    6     1.169e-02  
    7     2.315e-03  
    8     1.186e-03  
    9     3.509e-04  
   10     4.831e-05  
   11     1.069e-05  
   12     4.500e-06  
   13     2.775e-06  
   14     1.101e-06  
   15     3.799e-07  Converged.
   ... Converged in 15 steps (norm: 3.79887e-07)
------------------------------------
  Starting TPA DIIS iterations ... 
------------------------------------ 
   It     Res. Norm  Remark
------------------------------------
                       Guess.
    1     8.349e+00  
    2     1.367e+01  
    3     2.186e+00  
    4     7.632e-01  
    5     2.077e-01  
    6     9.570e-02  
    7     2.814e-02  
    8     5.076e-03  
    9     2.050e-03  
   10     3.566e-04  
   11     1.248e-04  
   12     2.040e-05  
   13     7.394e-06  
   14     2.186e-06  
   15     7.022e-07  Converged.
   ... Converged in 15 steps (norm: 7.02233e-07)
------------------------------------
  Starting TPA DIIS iterations ... 
------------------------------------ 
   It     Res. Norm  Remark
------------------------------------
                       Guess.
    1     7.929e+00  
    2     1.297e+01  
    3     2.081e+00  
    4     7.506e-01  
    5     2.071e-01  
    6     9.627e-02  
    7     2.772e-02  
    8     5.194e-03  
    9     2.090e-03  
   10     3.553e-04  
   11     1.252e-04  
   12     2.014e-05  
   13     7.542e-06  
   14     2.183e-06  
   15     7.080e-07  Converged.
   ... Converged in 15 steps (norm: 7.08017e-07)
------------------------------------
  Starting TPA DIIS iterations ... 
------------------------------------ 
   It     Res. Norm  Remark
------------------------------------
                       Guess.
    1     8.145e-01  
    2     7.055e-01  
    3     3.015e-01  
    4     2.688e-01  
    5     3.905e-02  
    6     1.710e-02  
    7     3.777e-03  
    8     1.730e-03  
    9     5.364e-04  
   10     5.600e-05  
   11     1.702e-05  
   12     6.916e-06  
   13     3.663e-06  
   14     2.099e-06  
   15     6.160e-07  Converged.
   ... Converged in 15 steps (norm: 6.15998e-07)
------------------------------------
  Starting TPA DIIS iterations ... 
------------------------------------ 
   It     Res. Norm  Remark
------------------------------------
                       Guess.
    1     1.015e+01  
    2     1.767e+01  
    3     2.668e+00  
    4     1.041e+00  
    5     2.873e-01  
    6     1.354e-01  
    7     3.920e-02  
    8     7.039e-03  
    9     2.900e-03  
   10     5.057e-04  
   11     1.764e-04  
   12     2.964e-05  
   13     1.061e-05  
   14     3.384e-06  
   15     1.084e-06  
   16     2.284e-07  Converged.
   ... Converged in 16 steps (norm: 2.28411e-07)
------------------------------------
  Starting TPA DIIS iterations ... 
------------------------------------ 
   It     Res. Norm  Remark
------------------------------------
                       Guess.
    1     9.636e+00  
    2     1.677e+01  
    3     2.539e+00  
    4     1.021e+00  
    5     2.866e-01  
    6     1.364e-01  
    7     3.862e-02  
    8     7.219e-03  
    9     2.958e-03  
   10     5.038e-04  
   11     1.768e-04  
   12     2.923e-05  
   13     1.082e-05  
   14     3.390e-06  
   15     1.109e-06  
   16     2.828e-07  Converged.
   ... Converged in 16 steps (norm: 2.82837e-07)
------------------------------------
  Starting TPA DIIS iterations ... 
------------------------------------ 
   It     Res. Norm  Remark
------------------------------------
                       Guess.
    1     8.532e-01  
    2     7.914e-01  
    3     3.550e-01  
    4     3.294e-01  
    5     4.978e-02  
    6     2.284e-02  
    7     5.482e-03  
    8     2.029e-03  
    9     6.996e-04  
   10     7.348e-05  
   11     2.460e-05  
   12     9.482e-06  
   13     4.131e-06  
   14     3.235e-06  
   15     8.491e-07  Converged.
   ... Converged in 15 steps (norm: 8.49091e-07)
------------------------------------
  Starting TPA DIIS iterations ... 
------------------------------------ 
   It     Res. Norm  Remark
------------------------------------
                       Guess.
    1     1.114e+01  
    2     1.998e+01  
    3     2.929e+00  
    4     1.203e+00  
    5     3.343e-01  
    6     1.592e-01  
    7     4.572e-02  
    8     8.194e-03  
    9     3.408e-03  
   10     5.940e-04  
   11     2.057e-04  
   12     3.532e-05  
   13     1.252e-05  
   14     4.149e-06  
   15     1.383e-06  
   16     2.896e-07  Converged.
   ... Converged in 16 steps (norm: 2.89624e-07)
------------------------------------
  Starting TPA DIIS iterations ... 
------------------------------------ 
   It     Res. Norm  Remark
------------------------------------
                       Guess.
    1     1.058e+01  
    2     1.896e+01  
    3     2.786e+00  
    4     1.178e+00  
    5     3.335e-01  
    6     1.604e-01  
    7     4.506e-02  
    8     8.411e-03  
    9     3.475e-03  
   10     5.916e-04  
   11     2.062e-04  
   12     3.481e-05  
   13     1.277e-05  
   14     4.157e-06  
   15     1.424e-06  
   16     3.681e-07  Converged.
   ... Converged in 16 steps (norm: 3.68081e-07)
------------------------------------
  Starting TPA DIIS iterations ... 
------------------------------------ 
   It     Res. Norm  Remark
------------------------------------
                       Guess.
    1     8.722e-01  
    2     8.372e-01  
    3     3.833e-01  
    4     3.571e-01  
    5     5.588e-02  
    6     2.601e-02  
    7     6.495e-03  
    8     2.118e-03  
    9     7.842e-04  
   10     8.562e-05  
   11     2.923e-05  
   12     1.106e-05  
   13     4.683e-06  
   14     3.917e-06  
   15     1.009e-06  
   16     5.128e-07  Converged.
   ... Converged in 16 steps (norm: 5.12834e-07)
------------------------------------
  Starting TPA DIIS iterations ... 
------------------------------------ 
   It     Res. Norm  Remark
------------------------------------
                       Guess.
    1     1.166e+01  
    2     2.121e+01  
    3     3.064e+00  
    4     1.290e+00  
    5     3.595e-01  
    6     1.721e-01  
    7     4.923e-02  
    8     8.813e-03  
    9     3.682e-03  
   10     6.415e-04  
   11     2.212e-04  
   12     3.846e-05  
   13     1.358e-05  
   14     4.576e-06  
   15     1.572e-06  
   16     3.266e-07  Converged.
   ... Converged in 16 steps (norm: 3.26581e-07)
------------------------------------
  Starting TPA DIIS iterations ... 
------------------------------------ 
   It     Res. Norm  Remark
------------------------------------
                       Guess.
    1     1.107e+01  
    2     2.013e+01  
    3     2.914e+00  
    4     1.262e+00  
    5     3.586e-01  
    6     1.734e-01  
    7     4.851e-02  
    8     9.051e-03  
    9     3.753e-03  
   10     6.388e-04  
   11     2.218e-04  
   12     3.789e-05  
   13     1.385e-05  
   14     4.584e-06  
   15     1.621e-06  
   16     4.169e-07  Converged.
   ... Converged in 16 steps (norm: 4.16864e-07)
------------------------------------
  Starting TPA DIIS iterations ... 
------------------------------------ 
   It     Res. Norm  Remark
------------------------------------
                       Guess.
    1     8.815e-01  
    2     8.608e-01  
    3     3.976e-01  
    4     3.701e-01  
    5     5.909e-02  
    6     2.764e-02  
    7     7.037e-03  
    8     2.151e-03  
    9     8.270e-04  
   10     9.228e-05  
   11     3.174e-05  
   12     1.195e-05  
   13     5.160e-06  
   14     4.292e-06  
   15     1.109e-06  
   16     5.793e-07  Converged.
   ... Converged in 16 steps (norm: 5.79304e-07)
------------------------------------
  Two-photon absorbption ...  CPU 155.01 s  wall 42.66 s
  Transition density matrix of state singlet_A_1 printed to ASCII file 'State_singlet_A_1_Transition.txt'
  Transition density matrix of state singlet_A_2 printed to ASCII file 'State_singlet_A_2_Transition.txt'
  Transition density matrix of state singlet_A_3 printed to ASCII file 'State_singlet_A_3_Transition.txt'
  Transition density matrix of state singlet_A_4 printed to ASCII file 'State_singlet_A_4_Transition.txt'
  Transition density matrix of state singlet_A_5 printed to ASCII file 'State_singlet_A_5_Transition.txt'
  Transition density matrix of state singlet_A_6 printed to ASCII file 'State_singlet_A_6_Transition.txt'
  Transition density matrix of state singlet_A_7 printed to ASCII file 'State_singlet_A_7_Transition.txt'
  Transition density matrix of state singlet_A_8 printed to ASCII file 'State_singlet_A_8_Transition.txt'
  Transition density matrix of state singlet_A_9 printed to ASCII file 'State_singlet_A_9_Transition.txt'
  Transition density matrix of state singlet_A_10 printed to ASCII file 'State_singlet_A_10_Transition.txt'
  Transition properties ...  CPU 0.39 s  wall 0.55 s
  Difference density matrix of state singlet_A_1 printed to ASCII file 'State_singlet_A_1_Difference.txt'
  Total density matrix of state singlet_A_1 printed to ASCII file 'State_singlet_A_1_Total.txt'
  Difference density matrix of state singlet_A_2 printed to ASCII file 'State_singlet_A_2_Difference.txt'
  Total density matrix of state singlet_A_2 printed to ASCII file 'State_singlet_A_2_Total.txt'
  Difference density matrix of state singlet_A_3 printed to ASCII file 'State_singlet_A_3_Difference.txt'
  Total density matrix of state singlet_A_3 printed to ASCII file 'State_singlet_A_3_Total.txt'
  Difference density matrix of state singlet_A_4 printed to ASCII file 'State_singlet_A_4_Difference.txt'
  Total density matrix of state singlet_A_4 printed to ASCII file 'State_singlet_A_4_Total.txt'
  Difference density matrix of state singlet_A_5 printed to ASCII file 'State_singlet_A_5_Difference.txt'
  Total density matrix of state singlet_A_5 printed to ASCII file 'State_singlet_A_5_Total.txt'
  Difference density matrix of state singlet_A_6 printed to ASCII file 'State_singlet_A_6_Difference.txt'
  Total density matrix of state singlet_A_6 printed to ASCII file 'State_singlet_A_6_Total.txt'
  Difference density matrix of state singlet_A_7 printed to ASCII file 'State_singlet_A_7_Difference.txt'
  Total density matrix of state singlet_A_7 printed to ASCII file 'State_singlet_A_7_Total.txt'
  Difference density matrix of state singlet_A_8 printed to ASCII file 'State_singlet_A_8_Difference.txt'
  Total density matrix of state singlet_A_8 printed to ASCII file 'State_singlet_A_8_Total.txt'
  Difference density matrix of state singlet_A_9 printed to ASCII file 'State_singlet_A_9_Difference.txt'
  Total density matrix of state singlet_A_9 printed to ASCII file 'State_singlet_A_9_Total.txt'
  Difference density matrix of state singlet_A_10 printed to ASCII file 'State_singlet_A_10_Difference.txt'
  Total density matrix of state singlet_A_10 printed to ASCII file 'State_singlet_A_10_Total.txt'
  Properties ...  CPU 0.62 s  wall 0.91 s
  ISR TDMS ...  CPU 30.24 s  wall 9.80 s
  ISR transition properties ...  CPU 0.66 s  wall 0.32 s
  Sum-over-states TPA ...  CPU 0.00 s  wall 0.00 s

--------------------------------------------------------------------------------
                   State-averaged natural transition orbitals
--------------------------------------------------------------------------------
--------------------------------------------------------------------------------
  SA-NTO decomposition ...  CPU 0.01 s  wall 0.03 s

--------------------------------------------------------------------------------
                             Excited State Summary
--------------------------------------------------------------------------------
--------------------------------------------------------------------------------

  Excited state 1 (singlet, A)                                     [converged]
  ----------------------------------------------------------------------------
  Term symbol:  2 (1) A                                     R^2 =  4.13278e-13

  Total energy:                                            -77.9992530950 a.u.
  Excitation energy:                                               8.731700 eV

  Osc. strength:                                                      0.446169
  Trans. dip. moment [a.u.]:           [   1.047347,   -0.994244,   -0.014029]
  <i|r^2|0> [a.u.]:                    [   6.180362,   -0.245380,    0.000190]
  Two-photon absorption cross-section (SoS) [a.u.]:                   0.000000
  Two-photon absorption matrix (SoS) [a.u.]:
                                       |    0.000045   -0.000004    0.000030 |
                                       |   -0.000004   -0.000004    0.000067 |
                                       |    0.000030    0.000067    0.000024 |
  Two-photon absorption cross-section [a.u.]:                         0.000001
  Two-photon absorption matrix [a.u.]:
                                       |    0.000042    0.000018   -0.000257 |
                                       |    0.000018   -0.000036   -0.000204 |
                                       |   -0.000257   -0.000204   -0.000042 |

  Dip. moment [a.u.]:                  [  -0.000006,    0.000000,    0.000024]
  Total dipole [Debye]:                                               0.000062
  <r^2> [a.u.]:                        [ 176.612821,   36.017473,   11.919384]
  Total <r^2> [a.u.]:                                               224.549678

  V1^2 = 0.9713, V2^2 = 0.0287

  Important amplitudes:
      occ i     occ j     vir a      vir b          v   
    -----------------------------------------------------
     8 (A) A              9 (A) A                 0.6809
     6 (A) A             14 (A) A                -0.0617
     4 (A) A             10 (A) A                 0.0614
     7 (A) A             16 (A) A                 0.0575
     5 (A) A             13 (A) A                -0.0527
     6 (A) A             23 (A) A                -0.0485
     8 (A) A             20 (A) A                 0.0348
     6 (A) A             19 (A) A                -0.0302
     3 (A) A             12 (A) A                -0.0285
     5 (A) A             22 (A) A                 0.0218
     4 (A) A             24 (A) A                 0.0188
     3 (A) A             26 (A) A                 0.0187
     7 (A) A             11 (A) A                -0.0186
     8 (A) A   8 (A) B   17 (A) A   20 (A) B     -0.0184
     8 (A) A   8 (A) B    9 (A) A   28 (A) B     -0.0168
     6 (A) A             26 (A) A                 0.0163
     7 (A) A             21 (A) A                 0.0152
     3 (A) A             14 (A) A                -0.0143
     6 (A) A             12 (A) A                 0.0136
     3 (A) A   4 (A) B    9 (A) A    9 (A) B     -0.0129
     3 (A) A             19 (A) A                -0.0121
     8 (A) A   8 (A) B   18 (A) A   19 (A) B      0.0111
     7 (A) A             32 (A) A                 0.0097
     7 (A) A             36 (A) A                 0.0086
     3 (A) A             23 (A) A                -0.0082
     8 (A) A   8 (A) B   25 (A) A   29 (A) B     -0.0076
     6 (A) A             35 (A) A                 0.0072
     6 (A) A             40 (A) A                -0.0067
     3 (A) A   6 (A) B    9 (A) A   28 (A) B     -0.0065
     5 (A) A   8 (A) B   11 (A) A    9 (A) B     -0.0062
     7 (A) A   8 (A) B   13 (A) A   20 (A) B      0.0060
     5 (A) A   8 (A) B   11 (A) A   20 (A) B      0.0060
     5 (A) A   7 (A) B    9 (A) A    9 (A) B     -0.0060
     5 (A) A             27 (A) A                 0.0060
     6 (A) A   8 (A) A   19 (A) A   28 (A) A     -0.0060
     5 (A) A   8 (A) B   16 (A) A    9 (A) B     -0.0059
     3 (A) A   5 (A) B    9 (A) A   25 (A) B     -0.0058
     7 (A) A   8 (A) B   22 (A) A   20 (A) B     -0.0057
     3 (A) A             40 (A) A                -0.0056
     8 (A) A   8 (A) B   19 (A) A   30 (A) B      0.0056
    -----------------------------------------------------

  Density matrix analysis:
  ------------------------
  NOs
    Occupation of frontier NOs:
       0.9491   1.0219
    Number of electrons: 16.000000
    Number of unpaired electrons: n_u =  2.31679, n_u,nl =  2.03329
    NO participation ratio (PR_NO):  2.874037
  
  
  Mulliken Population Analysis
  Atom      Charge (e)              h+              e-           Del q
  --------------------------------------------------------------------
   1 H        0.062974        0.020441       -0.012439        0.008002
   2 C       -0.125950        0.490665       -0.506671       -0.016005
   3 H        0.062983        0.020443       -0.012439        0.008004
   4 C       -0.125962        0.490664       -0.506672       -0.016008
   5 H        0.062982        0.020442       -0.012438        0.008004
   6 H        0.062973        0.020442       -0.012439        0.008003
  --------------------------------------------------------------------
  Sum:       -0.000000        1.063097       -1.063097        0.000000
  
  Multipole moment analysis of the density matrix
    Molecular charge:                      0.000000
    Number of electrons:                   16.000000
      Center of electronic charge [Ang]: [ -1.561338,  -0.065287,   0.002126]
    Total nuclear charge:                  16.000000
      Center of nuclear charge [Ang]:    [ -1.561339,  -0.065287,   0.002127]
    Dipole moment [D]:                     0.000062
      Cartesian components [D]:          [ -0.000014,   0.000001,   0.000060]
    RMS size of the density [Ang]:         1.219826
      Cartesian components [Ang]:        [  0.808246,   0.791270,   0.456734]
  
  Exciton analysis of the difference density matrix
    <r_h> [Ang]:                  [ -1.561337,  -0.065288,   0.002116]
    <r_e> [Ang]:                  [ -1.561336,  -0.065288,   0.002114]
    |<r_e - r_h>| [Ang]:            0.000002
    Hole size [Ang]:                1.287313
      Cartesian components [Ang]: [  0.730255,   0.714730,   0.782983]
    Electron size [Ang]:            1.463923
      Cartesian components [Ang]: [  0.854438,   0.831693,   0.849288]

  Transition density matrix analysis:
  -----------------------------------
  
  CT numbers (Mulliken)
    omega =     0.9532
    <Phe> =    -0.1603
  
  Exciton analysis of the transition density matrix
    Trans. dipole moment [D]:             1.835369
      Cartesian components [D]:         [  1.331045,  -1.263558,  -0.017829]
    <r_h> [Ang]:                        [ -1.561335,  -0.065289,   0.002118]
    <r_e> [Ang]:                        [ -1.561336,  -0.065287,   0.002113]
    |<r_e - r_h>| [Ang]:                  0.000006
    Hole size [Ang]:                      1.214406
      Cartesian components [Ang]:       [  0.649967,   0.637004,   0.804083]
    Electron size [Ang]:                  1.486826
      Cartesian components [Ang]:       [  0.864925,   0.840551,   0.869500]
    RMS electron-hole separation [Ang]:   1.937232
      Cartesian components [Ang]:       [  1.106962,   1.076177,   1.170191]
    Covariance(r_h, r_e) [Ang^2]:        -0.033718
    Correlation coefficient:             -0.018674
    Center-of-mass size [Ang]:            0.951052
      Cartesian components [Ang]:       [  0.528143,   0.516344,   0.599128]

  Decomposition into state-averaged NTOs
    H- 0 -> L+ 0:  0.6696 ( 89.7%)
    H- 2 -> L+ 5: -0.0830 (  1.4%)
                   omega =  95.3%
  ----------------------------------------------------------------------------


  Excited state 2 (singlet, A)                                     [converged]
  ----------------------------------------------------------------------------
  Term symbol:  3 (1) A                                     R^2 =  6.14672e-13

  Total energy:                                            -77.9911469976 a.u.
  Excitation energy:                                               8.952278 eV

  Osc. strength:                                                      0.000000
  Trans. dip. moment [a.u.]:           [   0.000548,   -0.000500,   -0.000010]
  <i|r^2|0> [a.u.]:                    [   0.058351,    0.097529,   -0.152766]
  Two-photon absorption cross-section (SoS) [a.u.]:                   4.564662
  Two-photon absorption matrix (SoS) [a.u.]:
                                       |    0.033955    0.056572   -0.515103 |
                                       |    0.056572    0.081516   -0.539901 |
                                       |   -0.515103   -0.539901   -0.115410 |
  Two-photon absorption cross-section [a.u.]:                         0.192012
  Two-photon absorption matrix [a.u.]:
                                       |   -0.058741   -0.013666    0.097487 |
                                       |   -0.013666    0.036247    0.108054 |
                                       |    0.097487    0.108054    0.022502 |

  Dip. moment [a.u.]:                  [  -0.000054,    0.000047,    0.000045]
  Total dipole [Debye]:                                               0.000215
  <r^2> [a.u.]:                        [ 174.949105,   34.361971,   13.215742]
  Total <r^2> [a.u.]:                                               222.526818

  V1^2 = 0.9541, V2^2 = 0.0459

  Important amplitudes:
      occ i     occ j     vir a      vir b          v   
    -----------------------------------------------------
     7 (A) A              9 (A) A                -0.6685
     8 (A) A             11 (A) A                 0.1513
     7 (A) A             20 (A) A                -0.0756
     5 (A) A   8 (A) B    9 (A) A    9 (A) B      0.0315
     8 (A) A             16 (A) A                 0.0281
     8 (A) A             21 (A) A                -0.0178
     5 (A) A             28 (A) A                 0.0150
     4 (A) A   7 (A) B    9 (A) A   19 (A) B     -0.0136
     5 (A) A   7 (A) B    9 (A) A   16 (A) B     -0.0134
     7 (A) A   8 (A) B   20 (A) A   17 (A) B      0.0106
     7 (A) A   8 (A) A    9 (A) A   28 (A) A     -0.0098
     5 (A) A   8 (A) B    9 (A) A   20 (A) B      0.0094
     4 (A) A   6 (A) B    9 (A) A   16 (A) B      0.0091
     5 (A) A   6 (A) A    9 (A) A   23 (A) A      0.0090
     5 (A) A   6 (A) A    9 (A) A   14 (A) A      0.0089
     5 (A) A   6 (A) B    9 (A) A   19 (A) B      0.0086
     8 (A) A   7 (A) B    9 (A) A   28 (A) B      0.0085
     6 (A) A   7 (A) B    9 (A) A   18 (A) B      0.0085
     4 (A) A   5 (A) A    9 (A) A   10 (A) A      0.0085
     5 (A) A   6 (A) B    9 (A) A   23 (A) B      0.0080
     3 (A) A   7 (A) B    9 (A) A   18 (A) B     -0.0080
     5 (A) A   7 (A) A    9 (A) A   16 (A) A     -0.0078
     4 (A) A   8 (A) B    9 (A) A   25 (A) B      0.0076
     4 (A) A   7 (A) B   19 (A) A    9 (A) B     -0.0075
     7 (A) A   8 (A) B   17 (A) A   20 (A) B      0.0074
     5 (A) A   5 (A) B    9 (A) A   13 (A) B      0.0073
     7 (A) A   8 (A) B   19 (A) A   18 (A) B     -0.0071
     4 (A) A   5 (A) B    9 (A) A   18 (A) B     -0.0069
     5 (A) A   8 (A) A    9 (A) A   20 (A) A      0.0068
     7 (A) A   7 (A) B   20 (A) A   22 (A) B      0.0066
     7 (A) A   8 (A) B   17 (A) A    9 (A) B      0.0065
     5 (A) A   6 (A) B    9 (A) A   14 (A) B      0.0063
     5 (A) A   7 (A) B   11 (A) A   20 (A) B     -0.0062
     4 (A) A   5 (A) B   10 (A) A    9 (A) B     -0.0061
     4 (A) A   7 (A) A    9 (A) A   19 (A) A     -0.0061
     5 (A) A             38 (A) A                 0.0060
     4 (A) A   6 (A) B   16 (A) A    9 (A) B      0.0058
     4 (A) A   8 (A) A    9 (A) A   25 (A) A      0.0056
     6 (A) A   7 (A) A   19 (A) A   28 (A) A      0.0056
     5 (A) A   7 (A) A   11 (A) A   20 (A) A     -0.0054
    -----------------------------------------------------

  Density matrix analysis:
  ------------------------
  NOs
    Occupation of frontier NOs:
       0.9560   1.0553
    Number of electrons: 16.000000
    Number of unpaired electrons: n_u =  2.35843, n_u,nl =  2.06488
    NO participation ratio (PR_NO):  3.045178
  
  
  Mulliken Population Analysis
  Atom      Charge (e)              h+              e-           Del q
  --------------------------------------------------------------------
   1 H        0.155082        0.124900       -0.024790        0.100110
   2 C       -0.310172        0.272574       -0.472801       -0.200226
   3 H        0.155083        0.124901       -0.024798        0.100104
   4 C       -0.310179        0.272592       -0.472817       -0.200225
   5 H        0.155096        0.124912       -0.024795        0.100117
   6 H        0.155090        0.124911       -0.024791        0.100120
  --------------------------------------------------------------------
  Sum:       -0.000000        1.044791       -1.044791       -0.000000
  
  Multipole moment analysis of the density matrix
    Molecular charge:                      -0.000000
    Number of electrons:                   16.000000
      Center of electronic charge [Ang]: [ -1.561337,  -0.065288,   0.002125]
    Total nuclear charge:                  16.000000
      Center of nuclear charge [Ang]:    [ -1.561339,  -0.065287,   0.002127]
    Dipole moment [D]:                     0.000215
      Cartesian components [D]:          [ -0.000137,   0.000121,   0.000114]
    RMS size of the density [Ang]:         1.205229
      Cartesian components [Ang]:        [  0.790031,   0.772744,   0.480931]
  
  Exciton analysis of the difference density matrix
    <r_h> [Ang]:                  [ -1.561369,  -0.065261,   0.002129]
    <r_e> [Ang]:                  [ -1.561344,  -0.065284,   0.002116]
    |<r_e - r_h>| [Ang]:            0.000036
    Hole size [Ang]:                1.496151
      Cartesian components [Ang]: [  1.013870,   1.001301,   0.455993]
    Electron size [Ang]:            1.480127
      Cartesian components [Ang]: [  0.884497,   0.861935,   0.815787]

  Transition density matrix analysis:
  -----------------------------------
  
  CT numbers (Mulliken)
    omega =     0.9214
    <Phe> =    -0.0114
  
  Exciton analysis of the transition density matrix
    Trans. dipole moment [D]:             0.000944
      Cartesian components [D]:         [  0.000697,  -0.000636,  -0.000013]
    <r_h> [Ang]:                        [ -1.561375,  -0.065257,   0.002132]
    <r_e> [Ang]:                        [ -1.561340,  -0.065287,   0.002113]
    |<r_e - r_h>| [Ang]:                  0.000050
    Hole size [Ang]:                      1.527104
      Cartesian components [Ang]:       [  1.038675,   1.026092,   0.447589]
    Electron size [Ang]:                  1.475536
      Cartesian components [Ang]:       [  0.873464,   0.850067,   0.831657]
    RMS electron-hole separation [Ang]:   2.103527
      Cartesian components [Ang]:       [  1.341105,   1.317471,   0.943680]
    Covariance(r_h, r_e) [Ang^2]:         0.042215
    Correlation coefficient:              0.018735
    Center-of-mass size [Ang]:            1.071644
      Cartesian components [Ang]:       [  0.686478,   0.673652,   0.472612]

  Decomposition into state-averaged NTOs
    H- 1 -> L+ 0:  0.6608 ( 87.3%)
    H- 0 -> L+ 2: -0.1512 (  4.6%)
                   omega =  92.1%
  ----------------------------------------------------------------------------


  Excited state 3 (singlet, A)                                     [converged]
  ----------------------------------------------------------------------------
  Term symbol:  4 (1) A                                     R^2 =  4.47208e-13

  Total energy:                                            -77.9841852348 a.u.
  Excitation energy:                                               9.141717 eV

  Osc. strength:                                                      0.023626
  Trans. dip. moment [a.u.]:           [  -0.024586,   -0.010958,    0.323675]
  <i|r^2|0> [a.u.]:                    [  -0.144859,   -0.002898,   -0.002611]
  Two-photon absorption cross-section (SoS) [a.u.]:                   0.000016
  Two-photon absorption matrix (SoS) [a.u.]:
                                       |    0.001354    0.000071    0.000158 |
                                       |    0.000071   -0.001434   -0.000025 |
                                       |    0.000158   -0.000025   -0.000164 |
  Two-photon absorption cross-section [a.u.]:                         0.000009
  Two-photon absorption matrix [a.u.]:
                                       |    0.000905    0.000078    0.000136 |
                                       |    0.000078   -0.001110   -0.000036 |
                                       |    0.000136   -0.000036   -0.000097 |

  Dip. moment [a.u.]:                  [   0.000043,    0.000059,   -0.000021]
  Total dipole [Debye]:                                               0.000193
  <r^2> [a.u.]:                        [ 181.389818,   41.006369,   11.057924]
  Total <r^2> [a.u.]:                                               233.454111

  V1^2 = 0.9580, V2^2 = 0.0420

  Important amplitudes:
      occ i     occ j     vir a      vir b          v   
    -----------------------------------------------------
     8 (A) A             10 (A) A                -0.6887
     8 (A) A             24 (A) A                -0.0508
     8 (A) A             18 (A) A                 0.0332
     4 (A) A              9 (A) A                -0.0247
     8 (A) A   8 (A) B    9 (A) A   12 (A) B      0.0223
     8 (A) A   8 (A) B   10 (A) A   17 (A) B     -0.0172
     5 (A) A   8 (A) B   11 (A) A   10 (A) B      0.0169
     8 (A) A             15 (A) A                -0.0149
     7 (A) A   8 (A) B   13 (A) A   10 (A) B      0.0143
     4 (A) A   8 (A) B   12 (A) A   10 (A) B      0.0113
     6 (A) A   8 (A) A   10 (A) A   15 (A) A      0.0112
     7 (A) A   8 (A) B   22 (A) A   10 (A) B     -0.0109
     6 (A) A   8 (A) B   15 (A) A   10 (A) B     -0.0109
     4 (A) A   8 (A) A   10 (A) A   12 (A) A     -0.0108
     7 (A) A   8 (A) A   10 (A) A   22 (A) A      0.0099
     7 (A) A   8 (A) A   10 (A) A   13 (A) A     -0.0098
     5 (A) A   8 (A) A   10 (A) A   11 (A) A     -0.0097
     5 (A) A   8 (A) B   21 (A) A   10 (A) B     -0.0094
     6 (A) A   8 (A) B   10 (A) A   10 (A) B      0.0090
     6 (A) A   8 (A) A   10 (A) A   18 (A) A      0.0086
     7 (A) A   8 (A) A   12 (A) A   16 (A) A      0.0084
     3 (A) A   4 (A) B   10 (A) A    9 (A) B      0.0080
     5 (A) A   8 (A) A   10 (A) A   21 (A) A      0.0079
     4 (A) A   8 (A) B   19 (A) A   10 (A) B      0.0076
     8 (A) A   8 (A) B    9 (A) A   23 (A) B     -0.0075
     8 (A) A   8 (A) B   10 (A) A   28 (A) B      0.0074
     5 (A) A   8 (A) B   10 (A) A   11 (A) B      0.0072
     7 (A) A   8 (A) B   16 (A) A   12 (A) B     -0.0072
     3 (A) A   8 (A) A   10 (A) A   24 (A) A      0.0072
     3 (A) A   8 (A) B   10 (A) A   10 (A) B     -0.0071
     8 (A) A   8 (A) B    9 (A) A   19 (A) B      0.0070
     3 (A) A   8 (A) B   10 (A) A   18 (A) B      0.0068
     6 (A) A   8 (A) B   18 (A) A   10 (A) B     -0.0065
     3 (A) A   6 (A) B   10 (A) A   28 (A) B      0.0062
     7 (A) A   8 (A) B   12 (A) A   11 (A) B     -0.0059
     6 (A) A             28 (A) A                -0.0058
     5 (A) A   8 (A) A   10 (A) A   16 (A) A     -0.0057
     3 (A) A   5 (A) B   10 (A) A   25 (A) B      0.0056
     6 (A) A   8 (A) A   11 (A) A   16 (A) A     -0.0055
     4 (A) A   8 (A) A   10 (A) A   23 (A) A      0.0055
    -----------------------------------------------------

  Density matrix analysis:
  ------------------------
  NOs
    Occupation of frontier NOs:
       0.9812   0.9847
    Number of electrons: 16.000000
    Number of unpaired electrons: n_u =  2.28863, n_u,nl =  2.02504
    NO participation ratio (PR_NO):  2.701213
  
  
  Mulliken Population Analysis
  Atom      Charge (e)              h+              e-           Del q
  --------------------------------------------------------------------
   1 H       -0.155067        0.054350       -0.264389       -0.210039
   2 C        0.310142        0.538084       -0.117996        0.420088
   3 H       -0.155074        0.054352       -0.264405       -0.210053
   4 C        0.310134        0.538080       -0.117992        0.420089
   5 H       -0.155054        0.054353       -0.264385       -0.210033
   6 H       -0.155081        0.054351       -0.264402       -0.210051
  --------------------------------------------------------------------
  Sum:       -0.000000        1.293569       -1.293569        0.000000
  
  Multipole moment analysis of the density matrix
    Molecular charge:                      -0.000000
    Number of electrons:                   16.000000
      Center of electronic charge [Ang]: [ -1.561340,  -0.065288,   0.002127]
    Total nuclear charge:                  16.000000
      Center of nuclear charge [Ang]:    [ -1.561339,  -0.065287,   0.002127]
    Dipole moment [D]:                     0.000193
      Cartesian components [D]:          [  0.000110,   0.000150,  -0.000052]
    RMS size of the density [Ang]:         1.282113
      Cartesian components [Ang]:        [  0.858407,   0.844643,   0.439919]
  
  Exciton analysis of the difference density matrix
    <r_h> [Ang]:                  [ -1.561337,  -0.065288,   0.002121]
    <r_e> [Ang]:                  [ -1.561357,  -0.065312,   0.002137]
    |<r_e - r_h>| [Ang]:            0.000035
    Hole size [Ang]:                1.412897
      Cartesian components [Ang]: [  0.836607,   0.822605,   0.787202]
    Electron size [Ang]:            2.079217
      Cartesian components [Ang]: [  1.376841,   1.380329,   0.722597]

  Transition density matrix analysis:
  -----------------------------------
  
  CT numbers (Mulliken)
    omega =     0.9250
    <Phe> =    -0.0109
  
  Exciton analysis of the transition density matrix
    Trans. dipole moment [D]:             0.412769
      Cartesian components [D]:         [ -0.031246,  -0.013926,   0.411349]
    <r_h> [Ang]:                        [ -1.561334,  -0.065288,   0.002116]
    <r_e> [Ang]:                        [ -1.561363,  -0.065321,   0.002141]
    |<r_e - r_h>| [Ang]:                  0.000051
    Hole size [Ang]:                      1.212756
      Cartesian components [Ang]:       [  0.636445,   0.623556,   0.822734]
    Electron size [Ang]:                  2.301728
      Cartesian components [Ang]:       [  1.523280,   1.529448,   0.798974]
    RMS electron-hole separation [Ang]:   2.591581
      Cartesian components [Ang]:       [  1.643245,   1.644537,   1.145223]
    Covariance(r_h, r_e) [Ang^2]:         0.026218
    Correlation coefficient:              0.009392
    Center-of-mass size [Ang]:            1.305868
      Cartesian components [Ang]:       [  0.829251,   0.829392,   0.574231]

  Decomposition into state-averaged NTOs
    H- 0 -> L+ 1:  0.6794 ( 92.3%)
                   omega =  92.5%
  ----------------------------------------------------------------------------


  Excited state 4 (singlet, A)                                     [converged]
  ----------------------------------------------------------------------------
  Term symbol:  5 (1) A                                     R^2 =  4.66259e-13

  Total energy:                                            -77.9622624767 a.u.
  Excitation energy:                                               9.738266 eV

  Osc. strength:                                                      0.000000
  Trans. dip. moment [a.u.]:           [   0.000166,   -0.000154,   -0.000007]
  <i|r^2|0> [a.u.]:                    [  -0.011186,   -0.019857,    0.031981]
  Two-photon absorption cross-section (SoS) [a.u.]:                 134.709600
  Two-photon absorption matrix (SoS) [a.u.]:
                                       |   -0.217789   -0.309060    2.797280 |
                                       |   -0.309060   -0.409353    2.935010 |
                                       |    2.797280    2.935010    0.627090 |
  Two-photon absorption cross-section [a.u.]:                        80.100214
  Two-photon absorption matrix [a.u.]:
                                       |   -0.127272   -0.236202    2.158460 |
                                       |   -0.236202   -0.356176    2.260403 |
                                       |    2.158460    2.260403    0.483398 |

  Dip. moment [a.u.]:                  [  -0.000054,   -0.000047,   -0.000033]
  Total dipole [Debye]:                                               0.000201
  <r^2> [a.u.]:                        [ 181.497458,   41.009653,   10.787045]
  Total <r^2> [a.u.]:                                               233.294156

  V1^2 = 0.9633, V2^2 = 0.0367

  Important amplitudes:
      occ i     occ j     vir a      vir b          v   
    -----------------------------------------------------
     8 (A) A             11 (A) A                -0.6688
     7 (A) A              9 (A) A                -0.1534
     8 (A) A             21 (A) A                 0.0779
     8 (A) A             16 (A) A                -0.0674
     8 (A) A   8 (A) B    9 (A) A   13 (A) B     -0.0167
     5 (A) A   8 (A) B   11 (A) A   11 (A) B      0.0157
     7 (A) A             20 (A) A                -0.0140
     8 (A) A   8 (A) B   11 (A) A   17 (A) B     -0.0137
     7 (A) A   8 (A) B   13 (A) A   11 (A) B      0.0127
     4 (A) A   8 (A) B   12 (A) A   11 (A) B      0.0111
     8 (A) A   8 (A) B    9 (A) A   22 (A) B      0.0110
     5 (A) A   8 (A) A   11 (A) A   21 (A) A      0.0109
     7 (A) A   8 (A) A   11 (A) A   22 (A) A      0.0095
     6 (A) A   8 (A) B   10 (A) A   11 (A) B      0.0091
     6 (A) A   8 (A) B   15 (A) A   11 (A) B     -0.0089
     7 (A) A   8 (A) B   22 (A) A   11 (A) B     -0.0089
     3 (A) A   4 (A) B   11 (A) A    9 (A) B      0.0083
     3 (A) A   8 (A) B   11 (A) A   18 (A) B      0.0080
     6 (A) A   8 (A) A   11 (A) A   15 (A) A      0.0079
     7 (A) A   8 (A) A   13 (A) A   16 (A) A     -0.0079
     7 (A) A   8 (A) A   11 (A) A   13 (A) A     -0.0075
     4 (A) A   8 (A) B   19 (A) A   11 (A) B      0.0070
     5 (A) A   8 (A) B   21 (A) A   11 (A) B     -0.0069
     5 (A) A   8 (A) B    9 (A) A    9 (A) B      0.0069
     4 (A) A   8 (A) A   11 (A) A   12 (A) A     -0.0062
     3 (A) A   6 (A) B   11 (A) A   28 (A) B      0.0060
     6 (A) A   8 (A) A   11 (A) A   18 (A) A      0.0059
     6 (A) A   8 (A) B   18 (A) A   11 (A) B     -0.0058
     7 (A) A   8 (A) B   16 (A) A   13 (A) B      0.0057
     3 (A) A   8 (A) B   11 (A) A   30 (A) B      0.0056
     5 (A) A   8 (A) B   10 (A) A   10 (A) B      0.0055
     7 (A) A   8 (A) B   12 (A) A   10 (A) B     -0.0055
     8 (A) A   8 (A) B   20 (A) A   22 (A) B      0.0055
     6 (A) A   8 (A) B   11 (A) A   10 (A) B      0.0055
     3 (A) A   8 (A) A   11 (A) A   18 (A) A      0.0054
     3 (A) A   5 (A) B   11 (A) A   25 (A) B      0.0054
     3 (A) A   8 (A) A   11 (A) A   24 (A) A      0.0053
     5 (A) A   8 (A) A   11 (A) A   16 (A) A     -0.0049
     6 (A) A   8 (A) A   10 (A) A   16 (A) A     -0.0047
     8 (A) A   8 (A) B   11 (A) A   28 (A) B      0.0043
    -----------------------------------------------------

  Density matrix analysis:
  ------------------------
  NOs
    Occupation of frontier NOs:
       0.9387   1.0295
    Number of electrons: 16.000000
    Number of unpaired electrons: n_u =  2.32235, n_u,nl =  2.05104
    NO participation ratio (PR_NO):  2.932598
  
  
  Mulliken Population Analysis
  Atom      Charge (e)              h+              e-           Del q
  --------------------------------------------------------------------
   1 H       -0.125433        0.046012       -0.226417       -0.180405
   2 C        0.251094        0.495268       -0.134228        0.361039
   3 H       -0.125658        0.046003       -0.226641       -0.180638
   4 C        0.251080        0.495268       -0.134234        0.361034
   5 H       -0.125672        0.046004       -0.226655       -0.180651
   6 H       -0.125410        0.046012       -0.226392       -0.180380
  --------------------------------------------------------------------
  Sum:       -0.000000        1.174566       -1.174566        0.000000
  
  Multipole moment analysis of the density matrix
    Molecular charge:                      0.000000
    Number of electrons:                   16.000000
      Center of electronic charge [Ang]: [ -1.561337,  -0.065285,   0.002128]
    Total nuclear charge:                  16.000000
      Center of nuclear charge [Ang]:    [ -1.561339,  -0.065287,   0.002127]
    Dipole moment [D]:                     0.000201
      Cartesian components [D]:          [ -0.000138,  -0.000120,  -0.000083]
    RMS size of the density [Ang]:         1.281025
      Cartesian components [Ang]:        [  0.859509,   0.844677,   0.434497]
  
  Exciton analysis of the difference density matrix
    <r_h> [Ang]:                  [ -1.561336,  -0.065284,   0.002120]
    <r_e> [Ang]:                  [ -1.561314,  -0.065262,   0.002143]
    |<r_e - r_h>| [Ang]:            0.000039
    Hole size [Ang]:                1.394925
      Cartesian components [Ang]: [  0.819621,   0.806251,   0.789935]
    Electron size [Ang]:            2.114342
      Cartesian components [Ang]: [  1.419335,   1.415606,   0.672304]

  Transition density matrix analysis:
  -----------------------------------
  
  CT numbers (Mulliken)
    omega =     0.9293
    <Phe> =    -0.0146
  
  Exciton analysis of the transition density matrix
    Trans. dipole moment [D]:             0.000287
      Cartesian components [D]:         [  0.000211,  -0.000195,  -0.000009]
    <r_h> [Ang]:                        [ -1.561337,  -0.065286,   0.002116]
    <r_e> [Ang]:                        [ -1.561311,  -0.065257,   0.002147]
    |<r_e - r_h>| [Ang]:                  0.000050
    Hole size [Ang]:                      1.229178
      Cartesian components [Ang]:       [  0.662084,   0.649419,   0.806708]
    Electron size [Ang]:                  2.247918
      Cartesian components [Ang]:       [  1.508834,   1.506172,   0.712741]
    RMS electron-hole separation [Ang]:   2.550896
      Cartesian components [Ang]:       [  1.638857,   1.632018,   1.075980]
    Covariance(r_h, r_e) [Ang^2]:         0.028471
    Correlation coefficient:              0.010304
    Center-of-mass size [Ang]:            1.286561
      Cartesian components [Ang]:       [  0.828254,   0.824184,   0.538475]

  Decomposition into state-averaged NTOs
    H- 0 -> L+ 2:  0.6641 ( 88.2%)
    H- 1 -> L+ 0:  0.1513 (  4.6%)
                   omega =  92.9%
  ----------------------------------------------------------------------------


  Excited state 5 (singlet, A)                                     [converged]
  ----------------------------------------------------------------------------
  Term symbol:  6 (1) A                                     R^2 =  8.90605e-13

  Total energy:                                            -77.9468224612 a.u.
  Excitation energy:                                              10.158410 eV

  Osc. strength:                                                      0.000000
  Trans. dip. moment [a.u.]:           [  -0.000036,   -0.000019,    0.000001]
  <i|r^2|0> [a.u.]:                    [   0.079508,   -0.098696,    0.014573]
  Two-photon absorption cross-section (SoS) [a.u.]:                 223.477775
  Two-photon absorption matrix (SoS) [a.u.]:
                                       |    0.315579    0.094107   -3.823520 |
                                       |    0.094107   -0.485875    3.624048 |
                                       |   -3.823520    3.624048    0.071655 |
  Two-photon absorption cross-section [a.u.]:                       115.480825
  Two-photon absorption matrix [a.u.]:
                                       |    0.189968    0.043238   -2.751515 |
                                       |    0.043238   -0.388420    2.600446 |
                                       |   -2.751515    2.600446    0.059072 |

  Dip. moment [a.u.]:                  [   0.000035,   -0.000055,   -0.000001]
  Total dipole [Debye]:                                               0.000165
  <r^2> [a.u.]:                        [ 180.370208,   39.748865,   11.601161]
  Total <r^2> [a.u.]:                                               231.720235

  V1^2 = 0.9554, V2^2 = 0.0446

  Important amplitudes:
      occ i     occ j     vir a      vir b          v   
    -----------------------------------------------------
     8 (A) A             12 (A) A                -0.5697
     6 (A) A              9 (A) A                -0.3820
     8 (A) A             19 (A) A                -0.0525
     6 (A) A             20 (A) A                -0.0520
     8 (A) A             23 (A) A                 0.0293
     8 (A) A   8 (A) B    9 (A) A   10 (A) B      0.0205
     8 (A) A             26 (A) A                 0.0184
     3 (A) A              9 (A) A                -0.0159
     4 (A) A   8 (A) B    9 (A) A    9 (A) B     -0.0158
[...]
    16   -1.615219923589e-03
    17   -1.561521624473e-03
    18    1.548525209009e-04
    19   -2.903088026674e-03
    20    1.150094428961e-02
    21    9.277845398223e-01
    22   -5.031773434365e-04
    23    1.373439404250e-02
    24    7.072866876036e-04
    25    7.034928886641e-02
    26   -5.223895050464e-02
    27   -1.383658492888e+00
    28    9.974672080530e-02
    29   -9.494148469859e-02
    30    1.040169522926e-03
    31    3.846263145886e-01
    32   -3.660904339866e-01
    33    4.046630632235e-03
    34    1.507121391476e-02
    35   -1.612790630110e-03
    36   -1.560445946504e-03
    37    1.550113322710e-04
    38   -2.902415030541e-03
    39    1.149657340006e-02
    40    9.277818257360e-01
    41    5.028842073658e-04
    42   -1.373417728638e-02
    43   -7.069054873930e-04
    44    1.150131024650e-02
    45    9.278063661822e-01
    46    1.373880876347e-02
    47    1.889030401339e-04
    48    7.690764346572e-04
Sym=X
Ene= 0.231048
Spin=Alpha
Occup=0
     1   -2.986406785125e-02
     2   -1.167784025307e+00
     3    1.294609902148e-02
     4    3.505611500685e-03
     5    8.736545723347e-04
     6    5.384949514323e-05
     7   -5.580249682093e-05
     8   -8.573994078363e-04
     9    1.545473727058e-01
    10    1.626297381223e-01
    11    1.726044518302e-02
    12    5.300781648390e-01
    13    5.578804837212e-01
    14    5.921384856486e-02
    15    4.207568951612e-05
    16    8.252290364475e-05
    17    2.398687079966e-04
    18   -1.382069432771e-03
    19   -9.447720734910e-05
    20    2.989518871215e-02
    21    1.169029070792e+00
    22    2.856073617467e-03
    23    1.312225964349e-02
    24    8.912442115736e-04
    25   -5.525206969624e-05
    26    5.693217338644e-05
    27    8.923678667468e-04
    28    1.545452556966e-01
    29    1.626355124905e-01
    30    1.723265959125e-02
    31    5.300394296184e-01
    32    5.578724252180e-01
    33    5.910043086759e-02
    34   -4.209873783671e-05
    35   -8.079457656400e-05
    36   -2.405934118143e-04
    37    1.380638268384e-03
    38    9.434812664575e-05
    39   -2.989529879166e-02
    40   -1.169012143472e+00
    41    2.855905025479e-03
    42    1.312247408032e-02
    43    8.897564431837e-04
    44    2.986400141886e-02
    45    1.167722004326e+00
    46    1.294575505619e-02
    47    3.505377027405e-03
    48    8.720137255927e-04
Sym=X
Ene= 0.236440
Spin=Alpha
Occup=0
     1    1.931186200227e-02
     2    1.072924843894e+00
     3   -1.589106910204e-02
     4   -9.212587486057e-03
     5   -1.385022559429e-03
     6    8.712321092032e-02
     7   -8.232509119940e-02
     8   -1.545052022725e+00
     9   -5.893909451613e-02
    10    5.587389510649e-02
    11   -2.951181972508e-04
    12   -2.422383519945e-01
    13    2.296420913892e-01
    14   -3.688812974717e-04
    15    2.128191754929e-02
    16   -2.515485721586e-03
    17   -2.868789249864e-03
    18    6.143639840343e-04
    19   -1.241219061470e-02
    20    1.928457203214e-02
    21    1.071412671212e+00
    22    8.398502947394e-03
    23    1.632069179107e-02
    24    1.324524848329e-03
    25   -8.712188618529e-02
    26    8.232160291209e-02
    27    1.545042970013e+00
    28   -5.894018350435e-02
    29    5.587603757932e-02
    30   -2.776087732239e-04
    31   -2.422370605336e-01
    32    2.296635458598e-01
    33   -2.971186557675e-04
    34   -2.128197156937e-02
    35    2.512882634715e-03
    36    2.869336722719e-03
    37   -6.153030223378e-04
    38    1.241176977593e-02
    39   -1.928416627791e-02
    40   -1.071428046171e+00
    41    8.398965644714e-03
    42    1.632096771602e-02
    43    1.325230187714e-03
    44   -1.931077124063e-02
    45   -1.072895054022e+00
    46   -1.589036294307e-02
    47   -9.213573133976e-03
    48   -1.383457476914e-03
Sym=X
Ene= 0.302962
Spin=Alpha
Occup=0
     1   -2.107140386168e-02
     2    1.657809905357e+00
     3   -2.350857812089e-02
     4    4.026868726198e-04
     5   -1.089541898515e-03
     6   -6.964354032703e-08
     7   -2.223132358573e-06
     8   -8.597853583997e-06
     9   -1.356179470297e-01
    10   -1.426575181781e-01
    11   -1.513860974699e-02
    12   -1.124933913208e+00
    13   -1.183246658682e+00
    14   -1.255315531249e-01
    15    8.378798737599e-06
    16   -1.864803737983e-03
    17    1.846413175776e-03
    18   -3.408010099027e-02
    19   -1.728407077023e-03
    20    2.106761228529e-02
    21   -1.657785637888e+00
    22    1.603550827531e-03
    23   -2.344380901637e-02
    24   -1.355468280775e-03
    25    1.608398528267e-06
    26   -1.626117353505e-06
    27   -7.523603838734e-05
    28    1.356228994117e-01
    29    1.426620293020e-01
    30    1.512434145818e-02
    31    1.124906402561e+00
    32    1.183264264407e+00
    33    1.254826560163e-01
    34    1.007486653539e-05
    35   -1.861462157241e-03
    36    1.848236790579e-03
    37   -3.407862651043e-02
    38   -1.729360810789e-03
    39    2.106356273240e-02
    40   -1.657779524096e+00
    41   -1.604565807782e-03
    42    2.344321269062e-02
    43    1.355138679473e-03
    44   -2.106665338714e-02
    45    1.657838528504e+00
    46    2.350924709270e-02
    47   -4.030069516160e-04
    48    1.087661643490e-03
Sym=X
Ene= 0.462771
Spin=Alpha
Occup=0
     1   -1.144246732128e-01
     2   -6.987647722175e-01
     3   -1.496820452785e-02
     4   -1.030755596140e-02
     5   -1.316813585866e-03
     6    6.251482839796e-02
     7    1.658614998046e-02
     8   -3.641014251237e+00
     9    1.042657496113e-01
    10   -9.918661204314e-02
    11    5.916002205923e-04
    12    2.433598819878e+00
    13   -2.310483262853e+00
    14   -2.970442790017e-02
    15    5.296945319736e-02
    16   -3.300636904131e-03
    17   -4.505927461646e-03
    18   -1.073295214280e-03
    19    2.012063965259e-02
    20   -1.144135701587e-01
    21   -6.987429949051e-01
    22    9.535394763288e-03
    23    1.546228522417e-02
    24    1.418389309573e-03
    25   -6.251590774697e-02
    26   -1.657886451501e-02
    27    3.641019434641e+00
    28    1.042798248145e-01
    29   -9.919523201864e-02
    30    5.819435065921e-04
    31    2.433580087483e+00
    32   -2.310447296791e+00
    33   -2.974629068013e-02
    34   -5.296466561593e-02
    35    3.296279052056e-03
    36    4.499604184444e-03
    37    1.072486941177e-03
    38   -2.012680512015e-02
    39    1.143779943746e-01
    40    6.987751932022e-01
    41    9.534578029804e-03
    42    1.546151275704e-02
    43    1.416256161116e-03
    44    1.143949324434e-01
    45    6.987898169823e-01
    46   -1.496692838346e-02
    47   -1.030532934681e-02
    48   -1.315423460423e-03
Sym=X
Ene= 0.579809
Spin=Alpha
Occup=0
     1    2.377699510046e-01
     2    4.784164291148e-02
     3   -2.206899650656e-02
     4    2.698212374373e-02
     5    5.097280224598e-04
     6   -6.251788309133e-03
     7   -1.690067587603e-01
     8   -4.173631792784e-01
     9    3.056200384770e-01
    10   -2.901498034040e-01
    11   -3.714227427203e-03
    12   -7.481659056331e-01
    13    7.106359887517e-01
    14    5.427629018029e-03
    15   -1.981934545167e-03
    16    3.636590990835e-03
    17    3.297281888520e-03
    18   -3.052319492038e-03
    19    5.979192736819e-02
    20    2.377756159564e-01
    21    4.781451168351e-02
    22   -2.808025672836e-02
    23    2.065920543193e-02
    24   -1.611344536836e-04
    25   -6.259665483173e-03
    26   -1.690110239584e-01
    27   -4.170007438524e-01
    28   -3.056110413412e-01
    29    2.901320928460e-01
    30    3.712545930471e-03
    31    7.484364010551e-01
    32   -7.108581297511e-01
    33   -5.438497702561e-03
    34   -1.981528309104e-03
    35    3.636693264818e-03
    36    3.296688336243e-03
    37   -3.045894832648e-03
    38    5.979217653818e-02
    39    2.377350557620e-01
    40    4.794442289798e-02
    41    2.808669429591e-02
    42   -2.066437632129e-02
    43    1.600194411917e-04
    44    2.377900134874e-01
    45    4.792926830697e-02
    46    2.206833129625e-02
    47   -2.698295921247e-02
    48   -5.105823780774e-04
Sym=X
Ene= 0.608869
Spin=Alpha
Occup=0
     1   -5.193345560285e-01
     2    2.451339133386e-01
     3   -5.951313836964e-02
     4    3.706438004466e-02
     5   -7.361243752417e-04
     6    2.273605903311e-06
     7   -1.396353518400e-05
     8    1.366225737549e-04
     9   -3.565275562517e-02
    10   -3.749608065989e-02
    11   -3.973474089890e-03
    12    2.611937074267e-01
    13    2.747685808136e-01
    14    2.917375619049e-02
    15    4.586893729806e-05
    16   -8.004098916112e-03
    17    8.182255653176e-03
    18   -1.485928678351e-01
    19   -7.551625384548e-03
    20    5.193865363938e-01
    21   -2.452186538378e-01
    22    4.005950672210e-02
    23   -5.753261966010e-02
    24   -1.432881933283e-03
    25   -2.914335343757e-06
    26    1.537096514611e-05
    27   -8.991426511034e-05
    28   -3.564044217475e-02
    29   -3.751020123145e-02
    30   -3.982051869466e-03
    31    2.611596172239e-01
    32    2.748325906081e-01
    33    2.911550077617e-02
    34   -4.485694774790e-05
    35    7.995861094885e-03
    36   -8.189080231168e-03
    37    1.486012698426e-01
    38    7.550297663510e-03
    39   -5.194334857385e-01
    40    2.452533962141e-01
    41    4.005435464240e-02
    42   -5.753274361602e-02
    43   -1.437267675454e-03
    44    5.193309600308e-01
    45   -2.451751320724e-01
    46   -5.951500666480e-02
    47    3.706497809037e-02
    48   -7.356210624588e-04
Sym=X
Ene= 0.688657
Spin=Alpha
Occup=0
     1   -1.926850539172e-03
     2   -3.607702328952e-03
     3    1.185729573478e-03
     4    8.647417028119e-04
     5   -1.880085408147e-02
     6   -9.867766566897e-05
     7    1.185916007152e-03
     8   -4.440583622144e-03
     9    3.243021838982e-02
    10    4.032809320674e-02
    11   -6.706315744280e-01
    12   -2.243432043754e-02
    13   -4.368161400131e-02
    14    6.125814674120e-01
    15   -1.812066597659e-03
    16    8.259250418086e-02
    17   -7.834976765715e-02
    18   -8.658132332373e-03
    19   -1.974990553466e-03
    20   -1.932569354469e-03
    21   -3.581354910236e-03
    22    1.191785524160e-03
    23    8.695155456055e-04
    24   -1.879450972130e-02
    25    1.007515779684e-04
    26   -1.151056670242e-03
    27    4.415365890381e-03
    28    3.241288300263e-02
    29    4.029301559688e-02
    30   -6.706337162492e-01
    31   -2.240576920548e-02
    32   -4.364126962348e-02
    33    6.125830044187e-01
    34    1.799275527534e-03
    35   -8.259115874110e-02
    36    7.835116546687e-02
    37    8.667090474503e-03
    38    1.980265762040e-03
    39    1.956688397615e-03
    40    3.585754526998e-03
    41    1.189957870208e-03
    42    8.757208907494e-04
    43   -1.879406497384e-02
    44    1.962156867121e-03
    45    3.560313102519e-03
    46    1.174245694834e-03
    47    8.576605637122e-04
    48   -1.880168380193e-02
Sym=X
Ene= 0.704774
Spin=Alpha
Occup=0
     1   -4.879227172446e-01
     2    1.637648470721e-01
     3   -7.812768468340e-02
     4   -4.438424158958e-02
     5   -6.150794694557e-03
     6   -4.595718370161e-02
     7   -3.012944944156e-01
     8    4.636863062953e-01
     9    1.958956559673e-01
    10   -1.860808652478e-01
    11   -1.833520762588e-03
    12   -5.793288851038e-02
    13    5.463230428393e-02
    14    5.430578050978e-03
    15    1.911439667249e-01
    16   -2.031928519511e-02
    17   -2.420388355993e-02
    18    3.733944161284e-03
    19   -7.662878446603e-02
    20   -4.879660853757e-01
    21    1.639343753887e-01
    22    4.032800243076e-02
    23    8.023003487783e-02
    24    7.070116715428e-03
    25   -4.595169508120e-02
    26   -3.012950787100e-01
    27    4.633962728458e-01
    28   -1.958951760267e-01
    29    1.860814092172e-01
    30    1.787361113294e-03
    31    5.773483164188e-02
    32   -5.446251517149e-02
    33   -5.376931838098e-03
    34    1.911471263527e-01
    35   -2.030945447618e-02
    36   -2.419261261803e-02
    37    3.730536085008e-03
    38   -7.661884035988e-02
    39   -4.879436640254e-01
    40    1.638651607535e-01
    41   -4.032689183082e-02
    42   -8.022784880510e-02
    43   -7.067784317107e-03
    44   -4.879250428025e-01
    45    1.637043265755e-01
    46    7.812812569347e-02
    47    4.438330343407e-02
    48    6.145270058475e-03
Sym=X
Ene= 0.775743
Spin=Alpha
Occup=0
     1    5.387598113270e-01
     2   -4.806592279913e-01
     3    1.077394095720e-01
     4    2.644019838850e-02
     5    6.743055495753e-03
     6    8.893553813560e-02
     7   -2.266980873791e-01
     8   -5.667545241941e-01
     9    1.035941577202e-01
    10   -9.820115323929e-02
    11   -2.180694670210e-03
    12    2.942035563003e-01
    13   -2.795307011227e-01
    14   -3.216555421539e-03
    15   -2.032380088853e-01
    16    1.792749546961e-02
    17    2.135169652926e-02
    18   -2.535668502480e-04
    19    7.654248437570e-03
    20    5.387011068511e-01
    21   -4.807976633444e-01
    22   -2.093151377399e-02
    23   -1.088886023018e-01
    24   -7.617535757210e-03
    25   -8.893663166766e-02
    26    2.267000993489e-01
    27    5.668097717297e-01
    28    1.036088462722e-01
    29   -9.819802451542e-02
    30   -2.221269810694e-03
    31    2.941459963242e-01
    32   -2.795117501265e-01
    33   -3.126025358517e-03
    34    2.032444992720e-01
    35   -1.790248197415e-02
    36   -2.134082845588e-02
    37    2.576085090032e-04
    38   -7.653028730874e-03
    39   -5.387306177163e-01
    40    4.808013465936e-01
    41   -2.093275857085e-02
    42   -1.088909201863e-01
    43   -7.612622689180e-03
    44   -5.387812961321e-01
    45    4.806337300773e-01
    46    1.077357611901e-01
    47    2.644462785344e-02
    48    6.736910565695e-03
Sym=X
Ene= 0.807404
Spin=Alpha
Occup=0
     1   -8.341841352819e-05
     2   -5.160325499000e-04
     3    1.966333726827e-03
     4    1.747277609596e-03
     5   -3.141986245287e-02
     6   -9.803694556325e-05
     7    1.917246264896e-03
     8   -9.677154743716e-04
     9    3.628582068325e-02
    10    4.661304948352e-02
    11   -7.642342997340e-01
    12   -5.291059246530e-02
    13   -6.903587190552e-02
    14    1.124349268139e+00
    15    1.324464359198e-03
    16   -6.538089916525e-02
    17    6.201497269365e-02
    18    6.860393264817e-03
    19    1.305470003416e-03
    20   -8.123803882104e-05
    21   -5.889324433597e-04
    22    1.679181714059e-03
    23    1.442615975749e-03
    24   -3.144385631437e-02
    25   -1.029858420347e-04
    26    1.927735460422e-03
    27   -9.738906546690e-04
    28   -3.621677631388e-02
    29   -4.658302210609e-02
    30    7.642409697047e-01
    31    5.283387136318e-02
    32    6.894945409679e-02
    33   -1.124358250578e+00
    34    1.341321184486e-03
    35   -6.538078073563e-02
    36    6.201229036072e-02
    37    6.879436136701e-03
    38    1.311862301712e-03
    39   -1.085937323011e-04
    40   -4.791458566014e-04
    41   -1.680656044819e-03
    42   -1.460996265923e-03
    43    3.144023023636e-02
    44   -1.071553000405e-04
    45   -5.531389797344e-04
    46   -1.962662109714e-03
    47   -1.755033550497e-03
    48    3.141852334228e-02
Sym=X
Ene= 0.858423
Spin=Alpha
Occup=0
     1    1.433054693876e-02
     2   -1.075755996068e+00
     3    1.463030309590e-01
     4    5.604322755878e-02
     5    1.091438722610e-02
     6    6.825597246183e-06
     7    2.347030417585e-06
     8    2.467068437854e-05
     9   -4.116846179553e-01
    10   -4.330671880201e-01
    11   -4.597431984690e-02
    12    9.372525536266e-01
    13    9.858599682111e-01
    14    1.046581302276e-01
    15   -1.400992867723e-04
    16    1.224065059676e-02
    17   -1.286103656723e-02
    18    2.303815949003e-01
    19    1.171894243487e-02
    20   -1.427458146434e-02
    21    1.075677797369e+00
    22    4.858716212630e-02
    23    1.489336196496e-01
    24    1.083392035123e-02
    25   -6.495621603844e-06
    26    1.881575810968e-06
    27   -2.423653359200e-05
    28   -4.116963326548e-01
    29   -4.330866670374e-01
    30   -4.589478721289e-02
    31    9.372696452513e-01
    32    9.859080458223e-01
    33    1.044846634523e-01
    34    1.391337358445e-04
    35   -1.223999513056e-02
    36    1.286286890289e-02
    37   -2.303890764254e-01
    38   -1.172332132312e-02
    39    1.426998193222e-02
    40   -1.075684077044e+00
    41    4.857849751495e-02
    42    1.489379699907e-01
    43    1.083084200042e-02
    44   -1.432496678799e-02
    45    1.075760051199e+00
    46    1.463079823807e-01
    47    5.603876379335e-02
    48    1.090604584937e-02
Sym=X
Ene= 0.927999
Spin=Alpha
Occup=0
     1   -1.416761693023e-01
     2    1.231197612555e+00
     3   -1.827028788524e-01
     4    5.746734607574e-03
     5   -8.246020044807e-03
     6   -2.705218971756e-06
     7   -1.063216003549e-04
     8    1.611457934728e-04
     9    4.739766450086e-01
    10    4.985799854002e-01
    11    5.289470419259e-02
    12   -1.382929758288e+00
    13   -1.454756603270e+00
    14   -1.543331623543e-01
    15    1.377484040346e-04
    16   -6.385812590960e-03
    17    7.327573144455e-03
    18   -1.256138040656e-01
    19   -6.425230880158e-03
    20    1.416639350485e-01
    21   -1.231323167499e+00
    22    1.508313751136e-02
    23   -1.820682069434e-01
    24   -1.046372364066e-02
    25   -3.153257243705e-06
    26   -9.819327595330e-05
    27    1.671491845928e-04
    28   -4.739769591201e-01
    29   -4.985692445029e-01
    30   -5.287014965956e-02
    31    1.382927934152e+00
    32    1.454704812611e+00
    33    1.542625316277e-01
    34    1.427837429869e-04
    35   -6.365697661469e-03
    36    7.324645274461e-03
    37   -1.256097264400e-01
    38   -6.437102483021e-03
    39    1.416582271000e-01
    40   -1.231273404236e+00
    41   -1.509286538616e-02
    42    1.820597430302e-01
    43    1.045979312305e-02
    44   -1.416860730310e-01
    45    1.231205785515e+00
    46    1.827035906350e-01
    47   -5.748157774254e-03
    48    8.232989165726e-03
Sym=X
Ene= 0.970580
Spin=Alpha
Occup=0
     1   -5.973699237726e-02
     2    8.967667356594e-01
     3   -8.754608394166e-02
     4   -9.657879548940e-02
     5   -1.066928137014e-02
     6    2.706950941893e-02
     7    2.528979527808e-01
     8    5.139390602421e-01
     9    4.830966759526e-01
    10   -4.588116682070e-01
    11   -4.222045107453e-03
    12   -1.474838324084e+00
    13    1.400555393625e+00
    14    1.395270843555e-02
    15   -5.790470234659e-02
    16   -1.358220564444e-02
    17   -8.047616694758e-03
    18    1.530741368637e-02
    19   -2.963513359640e-01
    20   -5.975087707195e-02
    21    8.966596719106e-01
    22    9.209589748114e-02
    23    9.237247742679e-02
    24    9.374909648596e-03
    25   -2.706878165960e-02
    26   -2.528294218002e-01
    27   -5.140490970176e-01
    28    4.830844962456e-01
    29   -4.588160006088e-01
    30   -4.246773372099e-03
    31   -1.474795618294e+00
    32    1.400604591604e+00
    33    1.402381871266e-02
    34    5.789963127404e-02
    35    1.358136488274e-02
    36    8.050377056850e-03
    37   -1.531021841564e-02
    38    2.963383911201e-01
    39    5.974941434633e-02
    40   -8.966637523636e-01
    41    9.209014561129e-02
    42    9.237322419603e-02
    43    9.377805949099e-03
    44    5.974623959670e-02
    45   -8.966997414852e-01
    46   -8.753811495578e-02
    47   -9.657616212879e-02
    48   -1.066183230880e-02
[5D]

======= END OF MOLDEN-FORMATTED INPUT FILE =======


        *************************************************************
        *                                                           *
        *  Thank you very much for using Q-Chem.  Have a nice day.  *
        *                                                           *
        *************************************************************


