                  Welcome to Q-Chem
     A Quantum Leap Into The Future Of Chemistry


 Q-Chem 5.4 (devel), Q-Chem, Inc., Pleasanton, CA (2021)

 E. Epifanovsky,  A. T. B. Gilbert,  Xintian Feng,  Joonho Lee,  Yuezhi Mao,  
 N. Mardirossian,  P. Pokhilko,  A. White,  M. Wormit,  M. P. Coons,  
 A. L. Dempwolff,  Zhengting Gan,  D. Hait,  P. R. Horn,  L. D. Jacobson,  
 I. Kaliman,  J. Kussmann,  A. W. Lange,  Ka Un Lao,  D. S. Levine,  Jie Liu,  
 S. C. McKenzie,  A. F. Morrison,  K. Nanda,  F. Plasser,  D. R. Rehn,  
 M. L. Vidal,  Zhi-Qiang You,  Ying Zhu,  B. Alam,  B. Albrecht,  
 A. Aldossary,  E. Alguire,  J. H. Andersen,  D. Barton,  K. Begam,  A. Behn,  
 Y. A. Bernard,  E. J. Berquist,  H. Burton,  A. Carreras,  K. Carter-Fenk,  
 R. Chakraborty,  A. D. Chien,  K. D. Closser,  V. Cofer-Shabica,  
 S. Dasgupta,  Jia Deng,  M. de Wergifosse,  M. Diedenhofen,  Hainam Do,  
 S. Ehlert,  Po-Tung Fang,  S. Fatehi,  Qingguo Feng,  T. Friedhoff,  
 J. Gayvert,  Qinghui Ge,  G. Gidofalvi,  M. Goldey,  J. Gomes,  
 C. Gonzalez-Espinoza,  S. Gulania,  A. Gunina,  M. W. D. Hanson-Heine,  
 P. H. P. Harbach,  A. W. Hauser,  M. F. Herbst,  M. Hernandez Vera,  
 M. Hodecker,  Z. C. Holden,  S. Houck,  Xunkun Huang,  Kerwin Hui,  
 B. C. Huynh,  M. Ivanov,  Hyunjun Ji,  Hanjie Jiang,  B. Kaduk,  S. Kaehler,  
 K. Khistyaev,  Jaehoon Kim,  P. Klunzinger,  Z. Koczor-Benda,  
 Joong Hoon Koh,  D. Kosenkov,  L. Koulias,  T. Kowalczyk,  C. M. Krauter,  
 K. Kue,  A. Kunitsa,  T. Kus,  A. Landau,  K. V. Lawler,  D. Lefrancois,  
 S. Lehtola,  Rain Li,  Yi-Pei Li,  Jiashu Liang,  M. Liebenthal,  
 Hung-Hsuan Lin,  You-Sheng Lin,  Fenglai Liu,  Kuan-Yu Liu,  
 M. Loipersberger,  A. Luenser,  A. Manjanath,  P. Manohar,  E. Mansoor,  
 S. F. Manzer,  Shan-Ping Mao,  A. V. Marenich,  T. Markovich,  S. Mason,  
 S. A. Maurer,  P. F. McLaughlin,  M. F. S. J. Menger,  J.-M. Mewes,  
 S. A. Mewes,  P. Morgante,  J. W. Mullinax,  K. J. Oosterbaan,  G. Paran,  
 Alexander C. Paul,  Suranjan K. Paul,  F. Pavosevic,  Zheng Pei,  S. Prager,  
 E. I. Proynov,  E. Ramos,  B. Rana,  A. E. Rask,  A. Rettig,  R. M. Richard,  
 F. Rob,  E. Rossomme,  T. Scheele,  M. Scheurer,  M. Schneider,  
 N. Sergueev,  S. M. Sharada,  W. Skomorowski,  D. W. Small,  C. J. Stein,  
 Yu-Chuan Su,  E. J. Sundstrom,  Zhen Tao,  J. Thirman,  T. Tsuchimochi,  
 N. M. Tubman,  S. P. Veccham,  O. Vydrov,  J. Wenzel,  J. Witte,  A. Yamada,  
 Kun Yao,  S. Yeganeh,  S. R. Yost,  A. Zech,  Igor Ying Zhang,  Xing Zhang,  
 Yu Zhang,  D. Zuev,  A. Aspuru-Guzik,  A. T. Bell,  N. A. Besley,  
 K. B. Bravaya,  B. R. Brooks,  D. Casanova,  Jeng-Da Chai,  S. Coriani,  
 C. J. Cramer,  A. E. DePrince, III,  R. A. DiStasio Jr.,  A. Dreuw,  
 B. D. Dunietz,  T. R. Furlani,  W. A. Goddard III,  S. Grimme,  
 S. Hammes-Schiffer,  T. Head-Gordon,  W. J. Hehre,  Chao-Ping Hsu,  
 T.-C. Jagau,  Yousung Jung,  A. Klamt,  Jing Kong,  D. S. Lambrecht,  
 WanZhen Liang,  N. J. Mayhall,  C. W. McCurdy,  J. B. Neaton,  
 C. Ochsenfeld,  J. A. Parkhill,  R. Peverati,  V. A. Rassolov,  Yihan Shao,  
 L. V. Slipchenko,  T. Stauch,  R. P. Steele,  J. E. Subotnik,  
 A. J. W. Thom,  A. Tkatchenko,  D. G. Truhlar,  T. Van Voorhis,  
 T. A. Wesolowski,  K. B. Whaley,  H. L. Woodcock III,  P. M. Zimmerman,  
 S. Faraji,  P. M. W. Gill,  M. Head-Gordon,  J. M. Herbert,  A. I. Krylov

 Additional authors for Version 5.4.1: 
 S. Kotaru,  Shaozhi Li,  Xiangyuan Li,  F. Matz,  A. Molle,  Haisheng Ren,  
 Yingli Su,  Hung-Yi Tsai,  C. Utku,  Fang Wang

 Contributors to earlier versions of Q-Chem not listed above: 
 R. D. Adamson,  B. Austin,  R. Baer,  J. Baker,  G. J. O. Beran,  
 K. Brandhorst,  S. T. Brown,  E. F. C. Byrd,  A. K. Chakraborty,  
 G. K. L. Chan,  Chun-Min Chang,  Yunqing Chen,  C.-L. Cheng,  
 Siu Hung Chien,  D. M. Chipman,  D. L. Crittenden,  H. Dachsel,  
 R. J. Doerksen,  A. D. Dutoi,  R. G. Edgar,  J. Fosso-Tande,  
 L. Fusti-Molnar,  D. Ghosh,  A. Ghysels,  A. Golubeva-Zadorozhnaya,  
 J. Gonthier,  M. S. Gordon,  S. R. Gwaltney,  G. Hawkins,  J. E. Herr,  
 A. Heyden,  S. Hirata,  E. G. Hohenstein,  G. Kedziora,  F. J. Keil,  
 C. Kelley,  Jihan Kim,  R. A. King,  R. Z. Khaliullin,  P. P. Korambath,  
 W. Kurlancheek,  A. Laurent,  A. M. Lee,  M. S. Lee,  S. V. Levchenko,  
 Ching Yeh Lin,  D. Liotard,  E. Livshits,  R. C. Lochan,  I. Lotan,  
 L. A. Martinez-Martinez,  P. E. Maslen,  N. Nair,  D. P. O'Neill,  
 D. Neuhauser,  E. Neuscamman,  C. M. Oana,  R. Olivares-Amaya,  R. Olson,  
 T. M. Perrine,  B. Peters,  P. A. Pieniazek,  A. Prociuk,  Y. M. Rhee,  
 J. Ritchie,  M. A. Rohrdanz,  E. Rosta,  N. J. Russ,  H. F. Schaefer III,  
 M. W. Schmidt,  N. E. Schultz,  S. Sharma,  N. Shenvi,  C. D. Sherrill,  
 A. C. Simmonett,  A. Sodt,  T. Stein,  D. Stuck,  K. S. Thanthiriwatte,  
 V. Vanovschi,  L. Vogt,  Tao Wang,  A. Warshel,  M. A. Watson,  
 C. F. Williams,  Q. Wu,  X. Xu,  Jun Yang,  W. Zhang,  Yan Zhao

 Please cite Q-Chem as follows:
 Y. Shao et al., Mol. Phys. 113, 184-215 (2015)
 DOI: 10.1080/00268976.2014.952696

 Q-Chem 5.4.1 for Intel X86 EM64T Linux

 Parts of Q-Chem use Armadillo 9.800.1 (Horizon Scraper).
 http://arma.sourceforge.net/

 Q-Chem begins on Thu Nov 17 00:22:07 2022  

 Host: cpu319.baobab
0

     Scratch files written to /scratch/fum/qchem2171//
 Processing $rem in /home/share/wesolowski/qc5.aug2021.FDE/config/preferences:
 Processing $rem in /home/fum/.qchemrc:

 Checking the input file for inconsistencies... 	...done.

--------------------------------------------------------------
User input:
--------------------------------------------------------------
$comment
generated from CCJob.Templates
$end

$rem
sym_ignore = true
method = adc(2)
ee_states = 10
basis = cc-pVDZ
mem_static = 1024
mem_total = 30000
adc_davidson_maxiter = 900
adc_davidson_conv = 6
adc_print = 3
adc_prop_es = true
adc_prop_es2es = true
adc_prop_tpa = true
molden_format = True
state_analysis = true
print_orbitals = 15
gen_scfman = false
fde_export_density = true
fde_details = 3
$end

$molecule
0 1
H -0.0348278765 -0.2442097827 0.0636489606
C -1.0765972949 -0.5242748755 -0.0023551776
H -1.313264467 -1.5767591607 -0.0757276926
C -2.043634118 0.3926884087 0.0061254933
H -1.8137616575 1.4459188338 0.0804456828
H -3.085977293 0.114931858 -0.0543381042                     
$end
--------------------------------------------------------------
 ----------------------------------------------------------------
             Standard Nuclear Orientation (Angstroms)
    I     Atom           X                Y                Z
 ----------------------------------------------------------------
    1      H      -0.0348278765    -0.2442097827     0.0636489606
    2      C      -1.0765972949    -0.5242748755    -0.0023551776
    3      H      -1.3132644670    -1.5767591607    -0.0757276926
    4      C      -2.0436341180     0.3926884087     0.0061254933
    5      H      -1.8137616575     1.4459188338     0.0804456828
    6      H      -3.0859772930     0.1149318580    -0.0543381042
 ----------------------------------------------------------------
 Nuclear Repulsion Energy =          33.42460083 hartrees
 There are        8 alpha and        8 beta electrons
 Requested basis set is cc-pVDZ
 There are 24 shells and 48 basis functions
 Total memory of 30000 MB is distributed as follows: 
   MEM_STATIC is set to 1024 MB
   QALLOC/CCMAN JOB total memory use is  28976 MB
 Warning: actual memory use might exceed 30000 MB

 Total QAlloc Memory Limit  30000 MB
 Mega-Array Size      1001 MB
 MEM_STATIC part      1024 MB

                       Distance Matrix (Angstroms)
             H (  1)   C (  2)   H (  3)   C (  4)   H (  5)
   C (  2)  1.080776
   H (  3)  1.851895  1.081258
   C (  4)  2.108139  1.332687  2.102109
   H (  5)  2.453859  2.105215  3.067812  1.080583
   H (  6)  3.074478  2.109240  2.450467  1.080409  1.846138

 A cutoff of  1.0D-11 yielded    300 shell pairs
 There are      1220 function pairs (      1329 Cartesian)
 Smallest overlap matrix eigenvalue = 4.80E-03

 Scale SEOQF with 1.000000e-01/1.000000e-01/1.000000e+00

 Standard Electronic Orientation quadrupole field applied
 Nucleus-field energy     =     0.0000000022 hartrees
 Guess from superposition of atomic densities
 Warning:  Energy on first SCF cycle will be non-variational
 SAD guess density has 16.000000 electrons
 A restricted Hartree-Fock SCF calculation will be
 performed using Pulay DIIS extrapolation
 SCF converges when DIIS error is below 1.0E-08
 using 8 threads for integral computing
 -------------------------------------------------------
 OpenMP Integral computing Module                
 Release: version 1.0, May 2013, Q-Chem Inc. Pittsburgh 
 -------------------------------------------------------
 ---------------------------------------
  Cycle       Energy         DIIS Error
 ---------------------------------------
    1     -78.4390302241      1.01E-01
    2     -78.0176853252      7.21E-03
    3     -78.0383181993      1.84E-03
    4     -78.0398011606      5.73E-04
    5     -78.0399228009      5.80E-05
    6     -78.0399246770      9.37E-06
    7     -78.0399247378      2.33E-06
    8     -78.0399247407      9.74E-07
    9     -78.0399247410      9.14E-08
   10     -78.0399247410      1.14E-08
   11     -78.0399247410      2.92E-09 Convergence criterion met
 ---------------------------------------
 SCF time:  CPU 2.97 s  wall 2.22 s
 SCF   energy in the final basis set = -78.03992474
 Total energy in the final basis set = -78.03992474
Exporting Density Matrix to file 'Densmat_SCF.txt'.
Export successful
================================================================================
|                                                                              |
|                                 A D C  M A N                                 |
|                                                                              |
 ------------------------------------------------------------------------------ 
|                                                                              |
| Components:                                                                  |
|                                                                              |
| - libvmm - 1.3-trunk                                                         |
|   Authors:                                                                   |
|   Evgeny Epifanovsky, Ilya Kaliman                                           |
|                                                                              |
| - libtensor - 2.5-trunk                                                      |
|   Authors:                                                                   |
|   Evgeny Epifanovsky, Michael Wormit, Dmitry Zuev, Sam Manzer,               |
|   Ilya Kaliman                                                               |
|                                                                              |
| - libwfa - 1.1-trunk                                                         |
|   Authors:                                                                   |
|   Felix Plasser, Stefanie Mewes (Baeppler), Benjamin Thomitzni,              |
|   Michael Wormit, Feng Chen, Anna I. Krylov, Pavel Pokhilko                  |
|                                                                              |
| - libadc - 1.1-trunk                                                         |
|   Authors:                                                                   |
|   Michael Wormit, Adrian L. Dempwolff, Philipp H. P. Harbach,                |
|   Caroline Krauter, Dirk Rehn, Matthias Schneider, Jan Wenzel                |
|                                                                              |
| - adcman - 2.6-trunk                                                         |
|   Authors:                                                                   |
|   Michael Wormit, Adrian L. Dempwolff, Philipp H. P. Harbach,                |
|   Caroline Krauter, Daniel Lefrancois, Jan-Michael Mewes, Dirk Rehn,         |
|   Matthias Schneider, Jan Wenzel, Andreas Dreuw                              |
|                                                                              |
| Authors of earlier versions of ADCMAN:                                       |
| Andreas Dreuw, Jan Hendrik Starcke, Dirk Rehn, Michael Wormit                |
|                                                                              |
================================================================================

 Created directory /scratch/fum/qchem2171/plots
  Import QC data ...  CPU 0.00 s  wall 0.00 s

 Alpha MOs, Restricted
 -- Occupied --                  
-11.235 -11.233  -1.032  -0.790  -0.641  -0.582  -0.505  -0.374
  1 A     2 A     3 A     4 A     5 A     6 A     7 A     8 A                  
 -- Virtual --                   
  0.168   0.204   0.233   0.239   0.303   0.462   0.578   0.615
  9 A    10 A    11 A    12 A    13 A    14 A    15 A    16 A                  
  0.689   0.709   0.785   0.808   0.862   0.936   0.972   1.010
 17 A    18 A    19 A    20 A    21 A    22 A    23 A    24 A                  
  1.130   1.235   1.254   1.266   1.293   1.601   1.727   1.750
 25 A    26 A    27 A    28 A    29 A    30 A    31 A    32 A                  
  1.819   1.859   1.867   1.922   1.977   1.978   2.222   2.258
 33 A    34 A    35 A    36 A    37 A    38 A    39 A    40 A                  
  2.376   2.454   2.506   2.634   2.721   2.822   3.140   3.399
 41 A    42 A    43 A    44 A    45 A    46 A    47 A    48 A                  

 Beta MOs, Restricted
 -- Occupied --                  
-11.235 -11.233  -1.032  -0.790  -0.641  -0.582  -0.505  -0.374
  1 A     2 A     3 A     4 A     5 A     6 A     7 A     8 A                  
 -- Virtual --                   
  0.168   0.204   0.233   0.239   0.303   0.462   0.578   0.615
  9 A    10 A    11 A    12 A    13 A    14 A    15 A    16 A                  
  0.689   0.709   0.785   0.808   0.862   0.936   0.972   1.010
 17 A    18 A    19 A    20 A    21 A    22 A    23 A    24 A                  
  1.130   1.235   1.254   1.266   1.293   1.601   1.727   1.750
 25 A    26 A    27 A    28 A    29 A    30 A    31 A    32 A                  
  1.819   1.859   1.867   1.922   1.977   1.978   2.222   2.258
 33 A    34 A    35 A    36 A    37 A    38 A    39 A    40 A                  
  2.376   2.454   2.506   2.634   2.721   2.822   3.140   3.399
 41 A    42 A    43 A    44 A    45 A    46 A    47 A    48 A                  
  Import AO data ...  CPU 0.00 s  wall 0.03 s
  Using point group: C1
  Irreducible representations in point group: A
  Molecular orbitals: 
  Occupied MOs:
  Block   0:   1 (  A) A   2 (  A) A   3 (  A) A   4 (  A) A   5 (  A) A
                  -11.24      -11.23      -1.032     -0.7898     -0.6412
               6 (  A) A   7 (  A) A   8 (  A) A
                 -0.5819     -0.5046      -0.374
  Block   1:   1 (  A) B   2 (  A) B   3 (  A) B   4 (  A) B   5 (  A) B
                  -11.24      -11.23      -1.032     -0.7898     -0.6412
               6 (  A) B   7 (  A) B   8 (  A) B
                 -0.5819     -0.5046      -0.374
  Virtual MOs:
  Block   0:   9 (  A) A  10 (  A) A  11 (  A) A  12 (  A) A  13 (  A) A
                  0.1684      0.2037       0.233      0.2394      0.3033
              14 (  A) A  15 (  A) A  16 (  A) A  17 (  A) A  18 (  A) A
                  0.4621      0.5775      0.6151      0.6892      0.7089
              19 (  A) A  20 (  A) A  21 (  A) A  22 (  A) A
                  0.7846       0.808      0.8623       0.936
  Block   1:  23 (  A) A  24 (  A) A  25 (  A) A  26 (  A) A  27 (  A) A
                  0.9725        1.01        1.13       1.235       1.254
              28 (  A) A  29 (  A) A  30 (  A) A  31 (  A) A  32 (  A) A
                   1.266       1.293       1.601       1.727        1.75
              33 (  A) A  34 (  A) A  35 (  A) A  36 (  A) A
                   1.819       1.859       1.867       1.922
  Block   2:  37 (  A) A  38 (  A) A  39 (  A) A  40 (  A) A  41 (  A) A
                   1.977       1.978       2.222       2.258       2.376
              42 (  A) A  43 (  A) A  44 (  A) A  45 (  A) A  46 (  A) A
                   2.454       2.506       2.634       2.721       2.822
              47 (  A) A  48 (  A) A
                    3.14       3.399
  Block   3:   9 (  A) B  10 (  A) B  11 (  A) B  12 (  A) B  13 (  A) B
                  0.1684      0.2037       0.233      0.2394      0.3033
              14 (  A) B  15 (  A) B  16 (  A) B  17 (  A) B  18 (  A) B
                  0.4621      0.5775      0.6151      0.6892      0.7089
              19 (  A) B  20 (  A) B  21 (  A) B  22 (  A) B
                  0.7846       0.808      0.8623       0.936
  Block   4:  23 (  A) B  24 (  A) B  25 (  A) B  26 (  A) B  27 (  A) B
                  0.9725        1.01        1.13       1.235       1.254
              28 (  A) B  29 (  A) B  30 (  A) B  31 (  A) B  32 (  A) B
                   1.266       1.293       1.601       1.727        1.75
              33 (  A) B  34 (  A) B  35 (  A) B  36 (  A) B
                   1.819       1.859       1.867       1.922
  Block   5:  37 (  A) B  38 (  A) B  39 (  A) B  40 (  A) B  41 (  A) B
                   1.977       1.978       2.222       2.258       2.376
              42 (  A) B  43 (  A) B  44 (  A) B  45 (  A) B  46 (  A) B
                   2.454       2.506       2.634       2.721       2.822
              47 (  A) B  48 (  A) B
                    3.14       3.399
  Import MO data ...  CPU 0.41 s  wall 0.45 s
  Import HF data ...  CPU 1.62 s  wall 0.72 s
  Import 2e integrals ...  CPU 3.65 s  wall 0.57 s

--------------------------------------------------------------------------------
                                   HF Summary                                   
--------------------------------------------------------------------------------
  Energy:                                                  -78.0399247410 a.u.
  Dip. moment [a.u.]:                  [  -0.000837,    0.000603,    0.001827]
  Total dipole [Debye]:                                               0.005333
  <r^2> [a.u.]:                        [ 175.318587,   34.918822,   11.624068]
  Total <r^2> [a.u.]:                                               221.861477
--------------------------------------------------------------------------------
  HF properties ...  CPU 0.01 s  wall 0.01 s
  MP(1) calculation ...  CPU 0.01 s  wall 0.01 s
  N^6 prerequesite intermediates ...  CPU 0.35 s  wall 0.06 s
  Difference density matrix of state mp2_gs printed to ASCII file 'State_mp2_gs_Difference.txt'
Exporting MP density matrix to file 'Densmat_MP.txt'.
Export successful
  Total density matrix of state mp2_gs printed to ASCII file 'State_mp2_gs_Total.txt'
Exporting MP density matrix to file 'Densmat_MP.txt'.
Export successful

--------------------------------------------------------------------------------
                                 MP(2) Summary                                  
--------------------------------------------------------------------------------
  MP energy contribution:                                   -0.2797002710 a.u.
  Total energy:                                            -78.3196250121 a.u.
  Dip. moment [a.u.]:                  [  -0.000814,    0.000507,    0.001799]
  Total dipole [Debye]:                                               0.005182
  <r^2> [a.u.]:                        [ 175.365422,   34.959425,   11.455896]
  Total <r^2> [a.u.]:                                               221.780744

  Density matrix analysis:
  ------------------------
  NOs
    Occupation of frontier NOs:
       0.0453   1.9383
    Number of electrons: 16.000000
    Number of unpaired electrons: n_u =  0.40341, n_u,nl =  0.04507
    NO participation ratio (PR_NO): 13.857270
  
  
  Mulliken Population Analysis
  Atom      Charge (e)              h+              e-           Del q
  --------------------------------------------------------------------
   1 H        0.050952        0.014031       -0.011202        0.002829
   2 C       -0.100781        0.093228       -0.098846       -0.005618
   3 H        0.050543        0.014074       -0.011191        0.002883
   4 C       -0.101304        0.092960       -0.098892       -0.005932
   5 H        0.050111        0.014124       -0.011183        0.002941
   6 H        0.050479        0.014088       -0.011190        0.002898
  --------------------------------------------------------------------
  Sum:       -0.000000        0.242504       -0.242504        0.000000
  
  Multipole moment analysis of the density matrix
    Molecular charge:                      -0.000000
    Number of electrons:                   16.000000
      Center of electronic charge [Ang]: [ -1.560549,  -0.065619,   0.002231]
    Total nuclear charge:                  16.000000
      Center of nuclear charge [Ang]:    [ -1.560576,  -0.065602,   0.002291]
    Dipole moment [D]:                     0.005182
      Cartesian components [D]:          [ -0.002070,   0.001288,   0.004573]
    RMS size of the density [Ang]:         1.200805
      Cartesian components [Ang]:        [  0.796174,   0.779453,   0.447765]
  
  Exciton analysis of the difference density matrix
    <r_h> [Ang]:                  [ -1.560356,  -0.065879,   0.001931]
    <r_e> [Ang]:                  [ -1.560404,  -0.065669,   0.001992]
    |<r_e - r_h>| [Ang]:            0.000224
    Hole size [Ang]:                1.393667
      Cartesian components [Ang]: [  0.846600,   0.834150,   0.727853]
    Electron size [Ang]:            1.359764
      Cartesian components [Ang]: [  0.877873,   0.861812,   0.579288]
--------------------------------------------------------------------------------
  MP(2) calculation ...  CPU 0.45 s  wall 0.25 s
  Start ADC(2)-s ...  CPU 0.00 s  wall 0.00 s
  ADC(2) intermediates ...  CPU 0.02 s  wall 0.01 s
  Starting Davidson for singlet states of irrep A ... 
--------------------------------------------------------------------------------
   It NVec Conv  Avg. Norm  Max. Norm  Conv. states           Remark
--------------------------------------------------------------------------------
        10    0  1.330e-01  4.687e-01  0.4119 n n n n n n n n Guess.
    1   20    0  2.304e-02  1.109e-01  0.3262 n n n n n n n n 
    2   30    0  5.861e-03  2.551e-02  0.3215 n n n n n n n n 
    3   40    0  2.021e-03  1.340e-02  0.3211 n n n n n n n n 
    4   50    0  5.805e-04  3.965e-03  0.3211 n n n n n n n n 
    5   20    0  2.672e-04  1.879e-03  0.3211 n n n n n n n n Subspace collapsed.
    6   30    0  1.614e-04  1.361e-03  0.3211 n n n n n n n n 
    7   40    0  1.174e-04  8.737e-04  0.3211 n n n n n n n n 
    8   50    0  1.346e-04  1.292e-03  0.3211 n n n n n n n n 
    9   20    1  5.950e-05  5.574e-04  0.3211 n y n n n n n n Subspace collapsed.
   10   30    3  4.951e-05  4.597e-04  0.3211 n y y y n n n n 
   11   40    4  3.185e-05  3.079e-04  0.3211 n y y y y n n n 
   12   50    6  4.850e-05  4.822e-04  0.3211 y y y y y y n n 
   13   20    6  2.361e-05  2.347e-04  0.3211 y y y y y y n n Subspace collapsed.
   14   30    6  2.730e-05  2.717e-04  0.3211 y y y y y y n n 
   15   40    6  2.175e-05  2.169e-04  0.3211 y y y y y y n n 
   16   50    6  3.331e-05  3.327e-04  0.3211 y y y y y y n n 
   17   20    6  1.289e-05  1.287e-04  0.3211 y y y y y y n n Subspace collapsed.
   18   30    6  1.431e-05  1.429e-04  0.3211 y y y y y y n n 
   19   40    7  9.087e-06  9.081e-05  0.3211 y y y y y y y n 
   20   50    7  1.323e-05  1.322e-04  0.3211 y y y y y y y n 
   21   20    8  5.634e-06  5.631e-05  0.3211 y y y y y y y y Subspace collapsed.
   22   30    8  8.578e-06  8.575e-05  0.3211 y y y y y y y y 
   23   32    8  8.122e-06  8.119e-05  0.3211 y y y y y y y y 
   24   34    8  7.785e-06  7.783e-05  0.3211 y y y y y y y y 
   25   43    8  6.476e-06  6.474e-05  0.3211 y y y y y y y y 
   26   43    8  6.476e-06  6.474e-05  0.3211 y y y y y y y y 
   27   50    8  7.756e-06  7.755e-05  0.3211 y y y y y y y y 
   28   16    9  4.682e-06  4.681e-05  0.3211 y y y y y y y y Subspace collapsed.
   29   22    9  4.135e-06  4.134e-05  0.3211 y y y y y y y y 
   30   28    9  4.602e-06  4.601e-05  0.3211 y y y y y y y y 
   31   33    9  5.187e-06  5.186e-05  0.3211 y y y y y y y y 
   32   33    9  5.187e-06  5.186e-05  0.3211 y y y y y y y y 
   33   43    9  4.116e-06  4.116e-05  0.3211 y y y y y y y y 
   34   43    9  4.116e-06  4.116e-05  0.3211 y y y y y y y y 
   35   44    9  4.074e-06  4.074e-05  0.3211 y y y y y y y y 
   36   44    9  4.074e-06  4.074e-05  0.3211 y y y y y y y y 
   37   44    9  4.074e-06  4.074e-05  0.3211 y y y y y y y y 
   38   50    9  3.918e-06  3.918e-05  0.3211 y y y y y y y y 
   39   14    9  1.898e-06  1.898e-05  0.3211 y y y y y y y y Subspace collapsed.
   40   18    9  1.509e-06  1.509e-05  0.3211 y y y y y y y y 
   41   22    9  9.017e-07  9.017e-06  0.3211 y y y y y y y y 
   42   26    9  7.592e-07  7.592e-06  0.3211 y y y y y y y y 
   43   30    9  6.378e-07  6.378e-06  0.3211 y y y y y y y y 
   44   34    9  8.849e-07  8.849e-06  0.3211 y y y y y y y y 
   45   38    9  5.817e-07  5.817e-06  0.3211 y y y y y y y y 
   46   42    9  3.875e-07  3.875e-06  0.3211 y y y y y y y y 
   47   46    9  1.795e-07  1.795e-06  0.3211 y y y y y y y y 
   48   50   10  9.736e-08  9.736e-07  0.3211 y y y y y y y y Converged.
--------------------------------------------------------------------------------
  Davidson Summary: 
 ------------------------------------------------------------
  State  0: excitation energy =   0.3211 a.u.   (converged)
  State  1: excitation energy =   0.3328 a.u.   (converged)
  State  2: excitation energy =   0.3370 a.u.   (converged)
  State  3: excitation energy =   0.3614 a.u.   (converged)
  State  4: excitation energy =   0.3753 a.u.   (converged)
  State  5: excitation energy =   0.3872 a.u.   (converged)
  State  6: excitation energy =   0.4247 a.u.   (converged)
  State  7: excitation energy =   0.4471 a.u.   (converged)
  State  8: excitation energy =   0.4563 a.u.   (converged)
  State  9: excitation energy =   0.4647 a.u.   (converged)
 ------------------------------------------------------------

  Singlet states of irrep A ...  CPU 213.88 s  wall 88.43 s
  TDMs ...  CPU 1.42 s  wall 0.47 s
  SDMs ...  CPU 3.07 s  wall 0.90 s
  Starting TPA DIIS iterations ... 
------------------------------------ 
   It     Res. Norm  Remark
------------------------------------
                       Guess.
    1     4.406e+00  
    2     5.841e+00  
    3     1.077e+00  
    4     2.566e-01  
    5     6.575e-02  
    6     2.674e-02  
    7     8.239e-03  
    8     1.441e-03  
    9     5.343e-04  
   10     9.061e-05  
   11     2.835e-05  
   12     4.815e-06  
   13     1.532e-06  
   14     7.064e-07  Converged.
   ... Converged in 14 steps (norm: 7.06363e-07)
------------------------------------
  Starting TPA DIIS iterations ... 
------------------------------------ 
   It     Res. Norm  Remark
------------------------------------
                       Guess.
    1     4.185e+00  
    2     5.541e+00  
    3     1.029e+00  
    4     2.555e-01  
    5     6.535e-02  
    6     2.673e-02  
    7     8.116e-03  
    8     1.454e-03  
    9     5.369e-04  
   10     9.009e-05  
   11     2.848e-05  
   12     4.565e-06  
   13     1.643e-06  
   14     6.262e-07  Converged.
   ... Converged in 14 steps (norm: 6.26237e-07)
------------------------------------
  Starting TPA DIIS iterations ... 
------------------------------------ 
   It     Res. Norm  Remark
------------------------------------
                       Guess.
    1     6.874e-01  
    2     4.822e-01  
    3     1.702e-01  
    4     5.380e-02  
    5     1.835e-02  
    6     6.809e-03  
    7     1.035e-03  
    8     4.475e-04  
    9     1.234e-04  
   10     2.995e-05  
   11     4.925e-06  
   12     1.476e-06  
   13     6.842e-07  Converged.
   ... Converged in 13 steps (norm: 6.84195e-07)
------------------------------------
  Starting TPA DIIS iterations ... 
------------------------------------ 
   It     Res. Norm  Remark
------------------------------------
                       Guess.
    1     4.693e+00  
    2     6.358e+00  
    3     1.158e+00  
    4     2.852e-01  
    5     7.409e-02  
    6     3.039e-02  
    7     9.345e-03  
    8     1.632e-03  
    9     6.098e-04  
   10     1.041e-04  
   11     3.290e-05  
   12     5.705e-06  
   13     1.826e-06  
   14     8.807e-07  Converged.
   ... Converged in 14 steps (norm: 8.80681e-07)
------------------------------------
  Starting TPA DIIS iterations ... 
------------------------------------ 
   It     Res. Norm  Remark
------------------------------------
                       Guess.
    1     4.457e+00  
    2     6.031e+00  
    3     1.107e+00  
    4     2.838e-01  
    5     7.365e-02  
    6     3.040e-02  
    7     9.209e-03  
    8     1.648e-03  
    9     6.127e-04  
   10     1.034e-04  
   11     3.300e-05  
   12     5.370e-06  
   13     1.968e-06  
   14     7.691e-07  Converged.
   ... Converged in 14 steps (norm: 7.69128e-07)
------------------------------------
  Starting TPA DIIS iterations ... 
------------------------------------ 
   It     Res. Norm  Remark
------------------------------------
                       Guess.
    1     6.995e-01  
    2     4.996e-01  
    3     1.800e-01  
    4     6.065e-02  
    5     1.985e-02  
    6     7.422e-03  
    7     1.169e-03  
    8     5.275e-04  
    9     1.493e-04  
   10     3.438e-05  
   11     5.562e-06  
   12     1.736e-06  
   13     8.580e-07  Converged.
   ... Converged in 13 steps (norm: 8.57973e-07)
------------------------------------
  Starting TPA DIIS iterations ... 
------------------------------------ 
   It     Res. Norm  Remark
------------------------------------
                       Guess.
    1     4.807e+00  
    2     6.564e+00  
    3     1.190e+00  
    4     2.968e-01  
    5     7.747e-02  
    6     3.188e-02  
    7     9.795e-03  
    8     1.709e-03  
    9     6.406e-04  
   10     1.095e-04  
   11     3.478e-05  
   12     6.080e-06  
   13     1.950e-06  
   14     9.571e-07  Converged.
   ... Converged in 14 steps (norm: 9.57112e-07)
------------------------------------
  Starting TPA DIIS iterations ... 
------------------------------------ 
   It     Res. Norm  Remark
------------------------------------
                       Guess.
    1     4.565e+00  
    2     6.226e+00  
    3     1.137e+00  
    4     2.952e-01  
    5     7.702e-02  
    6     3.189e-02  
    7     9.653e-03  
    8     1.726e-03  
    9     6.436e-04  
   10     1.088e-04  
   11     3.487e-05  
   12     5.705e-06  
   13     2.106e-06  
   14     8.309e-07  Converged.
   ... Converged in 14 steps (norm: 8.3092e-07)
------------------------------------
  Starting TPA DIIS iterations ... 
------------------------------------ 
   It     Res. Norm  Remark
------------------------------------
                       Guess.
    1     7.040e-01  
    2     5.062e-01  
    3     1.838e-01  
    4     6.348e-02  
    5     2.042e-02  
    6     7.670e-03  
    7     1.224e-03  
    8     5.611e-04  
    9     1.601e-04  
   10     3.585e-05  
   11     5.813e-06  
   12     1.845e-06  
   13     9.349e-07  Converged.
   ... Converged in 13 steps (norm: 9.34945e-07)
------------------------------------
  Starting TPA DIIS iterations ... 
------------------------------------ 
   It     Res. Norm  Remark
------------------------------------
                       Guess.
    1     5.547e+00  
    2     7.945e+00  
    3     1.398e+00  
    4     3.769e-01  
    5     1.008e-01  
    6     4.225e-02  
    7     1.290e-02  
    8     2.243e-03  
    9     8.552e-04  
   10     1.480e-04  
   11     4.822e-05  
   12     8.859e-06  
   13     2.891e-06  
   14     1.576e-06  
   15     4.532e-07  Converged.
   ... Converged in 15 steps (norm: 4.53171e-07)
------------------------------------
  Starting TPA DIIS iterations ... 
------------------------------------ 
   It     Res. Norm  Remark
------------------------------------
                       Guess.
    1     5.265e+00  
    2     7.535e+00  
    3     1.335e+00  
    4     3.742e-01  
    5     1.003e-01  
    6     4.234e-02  
    7     1.272e-02  
    8     2.267e-03  
    9     8.587e-04  
   10     1.468e-04  
   11     4.812e-05  
   12     8.143e-06  
   13     3.150e-06  
   14     1.316e-06  
   15     5.034e-07  Converged.
   ... Converged in 15 steps (norm: 5.03445e-07)
------------------------------------
  Starting TPA DIIS iterations ... 
------------------------------------ 
   It     Res. Norm  Remark
------------------------------------
                       Guess.
    1     7.308e-01  
    2     5.473e-01  
    3     2.081e-01  
    4     8.377e-02  
    5     2.407e-02  
    6     9.387e-03  
    7     1.621e-03  
    8     7.988e-04  
    9     2.354e-04  
   10     4.157e-05  
   11     7.486e-06  
   12     2.653e-06  
   13     1.562e-06  
   14     5.258e-07  Converged.
   ... Converged in 14 steps (norm: 5.25796e-07)
------------------------------------
  Starting TPA DIIS iterations ... 
------------------------------------ 
   It     Res. Norm  Remark
------------------------------------
                       Guess.
    1     6.058e+00  
    2     8.930e+00  
    3     1.540e+00  
    4     4.363e-01  
    5     1.181e-01  
    6     5.004e-02  
    7     1.520e-02  
    8     2.638e-03  
    9     1.016e-03  
   10     1.770e-04  
   11     5.859e-05  
   12     1.113e-05  
   13     3.677e-06  
   14     2.140e-06  
   15     6.385e-07  Converged.
   ... Converged in 15 steps (norm: 6.38519e-07)
------------------------------------
  Starting TPA DIIS iterations ... 
------------------------------------ 
   It     Res. Norm  Remark
------------------------------------
                       Guess.
    1     5.749e+00  
    2     8.470e+00  
    3     1.470e+00  
    4     4.327e-01  
    5     1.175e-01  
    6     5.019e-02  
    7     1.500e-02  
    8     2.667e-03  
    9     1.020e-03  
   10     1.754e-04  
   11     5.828e-05  
   12     1.007e-05  
   13     4.016e-06  
   14     1.741e-06  
   15     6.593e-07  Converged.
   ... Converged in 15 steps (norm: 6.59292e-07)
------------------------------------
  Starting TPA DIIS iterations ... 
------------------------------------ 
   It     Res. Norm  Remark
------------------------------------
                       Guess.
    1     7.470e-01  
    2     5.737e-01  
    3     2.243e-01  
    4     9.952e-02  
    5     2.654e-02  
    6     1.067e-02  
    7     1.932e-03  
    8     9.706e-04  
    9     2.889e-04  
   10     4.275e-05  
   11     8.703e-06  
   12     3.301e-06  
   13     2.122e-06  
   14     6.549e-07  Converged.
   ... Converged in 14 steps (norm: 6.54873e-07)
------------------------------------
  Starting TPA DIIS iterations ... 
------------------------------------ 
   It     Res. Norm  Remark
------------------------------------
                       Guess.
    1     6.558e+00  
    2     9.920e+00  
    3     1.678e+00  
    4     4.974e-01  
    5     1.359e-01  
    6     5.812e-02  
    7     1.758e-02  
    8     3.043e-03  
    9     1.183e-03  
   10     2.072e-04  
   11     6.954e-05  
   12     1.363e-05  
   13     4.563e-06  
   14     2.817e-06  
   15     8.764e-07  Converged.
   ... Converged in 15 steps (norm: 8.7639e-07)
------------------------------------
  Starting TPA DIIS iterations ... 
------------------------------------ 
   It     Res. Norm  Remark
------------------------------------
                       Guess.
    1     6.222e+00  
    2     9.407e+00  
    3     1.601e+00  
    4     4.928e-01  
    5     1.353e-01  
    6     5.835e-02  
    7     1.734e-02  
    8     3.078e-03  
    9     1.187e-03  
   10     2.050e-04  
   11     6.891e-05  
   12     1.215e-05  
   13     4.982e-06  
   14     2.234e-06  
   15     8.313e-07  Converged.
   ... Converged in 15 steps (norm: 8.31319e-07)
------------------------------------
  Starting TPA DIIS iterations ... 
------------------------------------ 
   It     Res. Norm  Remark
------------------------------------
                       Guess.
    1     7.615e-01  
    2     5.982e-01  
    3     2.397e-01  
    4     1.162e-01  
    5     2.900e-02  
    6     1.200e-02  
    7     2.265e-03  
    8     1.134e-03  
    9     3.402e-04  
   10     4.316e-05  
   11     9.968e-06  
   12     4.003e-06  
   13     2.769e-06  
   14     7.894e-07  Converged.
   ... Converged in 14 steps (norm: 7.89361e-07)
------------------------------------
  Starting TPA DIIS iterations ... 
------------------------------------ 
   It     Res. Norm  Remark
------------------------------------
                       Guess.
    1     8.666e+00  
    2     1.433e+01  
    3     2.251e+00  
    4     7.826e-01  
    5     2.192e-01  
    6     9.664e-02  
    7     2.865e-02  
    8     4.927e-03  
    9     1.979e-03  
   10     3.514e-04  
   11     1.226e-04  
   12     2.758e-05  
   13     9.783e-06  
   14     7.295e-06  
   15     2.693e-06  
   16     1.759e-06  
   17     4.733e-07  Converged.
   ... Converged in 17 steps (norm: 4.73253e-07)
------------------------------------
  Starting TPA DIIS iterations ... 
------------------------------------ 
   It     Res. Norm  Remark
------------------------------------
                       Guess.
    1     8.219e+00  
    2     1.359e+01  
    3     2.147e+00  
    4     7.725e-01  
    5     2.183e-01  
    6     9.729e-02  
    7     2.830e-02  
    8     4.983e-03  
    9     1.978e-03  
   10     3.456e-04  
   11     1.194e-04  
   12     2.300e-05  
   13     1.030e-05  
   14     5.250e-06  
   15     1.730e-06  
   16     7.849e-07  Converged.
   ... Converged in 16 steps (norm: 7.84905e-07)
------------------------------------
  Starting TPA DIIS iterations ... 
------------------------------------ 
   It     Res. Norm  Remark
------------------------------------
                       Guess.
    1     8.112e-01  
    2     6.906e-01  
    3     3.007e-01  
    4     1.982e-01  
    5     4.014e-02  
    6     1.819e-02  
    7     3.929e-03  
    8     1.654e-03  
    9     5.381e-04  
   10     5.136e-05  
   11     1.618e-05  
   12     7.617e-06  
   13     6.432e-06  
   14     1.426e-06  
   15     5.594e-07  Converged.
   ... Converged in 15 steps (norm: 5.59369e-07)
------------------------------------
  Starting TPA DIIS iterations ... 
------------------------------------ 
   It     Res. Norm  Remark
------------------------------------
                       Guess.
    1     1.049e+01  
    2     1.843e+01  
    3     2.734e+00  
    4     1.057e+00  
    5     2.999e-01  
    6     1.349e-01  
    7     3.940e-02  
    8     6.750e-03  
    9     2.769e-03  
   10     4.949e-04  
   11     1.749e-04  
   12     4.455e-05  
   13     1.693e-05  
   14     1.365e-05  
   15     5.545e-06  
   16     3.271e-06  
   17     9.156e-07  Converged.
   ... Converged in 17 steps (norm: 9.15584e-07)
------------------------------------
  Starting TPA DIIS iterations ... 
------------------------------------ 
   It     Res. Norm  Remark
------------------------------------
                       Guess.
    1     9.946e+00  
    2     1.747e+01  
    3     2.606e+00  
    4     1.040e+00  
    5     2.989e-01  
    6     1.360e-01  
    7     3.893e-02  
    8     6.820e-03  
    9     2.759e-03  
   10     4.838e-04  
   11     1.678e-04  
   12     3.525e-05  
   13     1.655e-05  
   14     9.230e-06  
   15     2.720e-06  
   16     1.313e-06  
   17     2.477e-07  Converged.
   ... Converged in 17 steps (norm: 2.47724e-07)
------------------------------------
  Starting TPA DIIS iterations ... 
------------------------------------ 
   It     Res. Norm  Remark
------------------------------------
                       Guess.
    1     8.443e-01  
    2     7.600e-01  
    3     3.493e-01  
    4     2.780e-01  
    5     5.074e-02  
    6     2.388e-02  
    7     5.608e-03  
    8     1.868e-03  
    9     6.898e-04  
   10     6.897e-05  
   11     2.259e-05  
   12     1.146e-05  
   13     1.059e-05  
   14     2.063e-06  
   15     8.463e-07  Converged.
   ... Converged in 15 steps (norm: 8.46253e-07)
------------------------------------
  Starting TPA DIIS iterations ... 
------------------------------------ 
   It     Res. Norm  Remark
------------------------------------
                       Guess.
    1     1.143e+01  
    2     2.063e+01  
    3     2.978e+00  
    4     1.206e+00  
    5     3.442e-01  
    6     1.562e-01  
    7     4.529e-02  
    8     7.747e-03  
    9     3.208e-03  
   10     5.746e-04  
   11     2.037e-04  
   12     5.524e-05  
   13     2.192e-05  
   14     1.789e-05  
   15     7.503e-06  
   16     4.240e-06  
   17     1.191e-06  
   18     3.819e-07  Converged.
   ... Converged in 18 steps (norm: 3.81945e-07)
------------------------------------
  Starting TPA DIIS iterations ... 
------------------------------------ 
   It     Res. Norm  Remark
------------------------------------
                       Guess.
    1     1.084e+01  
    2     1.956e+01  
    3     2.838e+00  
    4     1.185e+00  
    5     3.431e-01  
    6     1.576e-01  
    7     4.475e-02  
    8     7.822e-03  
    9     3.191e-03  
   10     5.599e-04  
   11     1.939e-04  
   12     4.269e-05  
   13     2.042e-05  
   14     1.183e-05  
   15     3.350e-06  
   16     1.640e-06  
   17     3.496e-07  Converged.
   ... Converged in 17 steps (norm: 3.49567e-07)
------------------------------------
  Starting TPA DIIS iterations ... 
------------------------------------ 
   It     Res. Norm  Remark
------------------------------------
                       Guess.
    1     8.590e-01  
    2     7.931e-01  
    3     3.731e-01  
    4     3.198e-01  
    5     5.644e-02  
    6     2.676e-02  
    7     6.524e-03  
    8     1.926e-03  
    9     7.637e-04  
   10     7.973e-05  
   11     2.624e-05  
   12     1.370e-05  
   13     1.305e-05  
   14     2.436e-06  
   15     1.037e-06  
   16     4.658e-07  Converged.
   ... Converged in 16 steps (norm: 4.6579e-07)
------------------------------------
  Starting TPA DIIS iterations ... 
------------------------------------ 
   It     Res. Norm  Remark
------------------------------------
                       Guess.
    1     1.240e+01  
    2     2.298e+01  
    3     3.229e+00  
    4     1.365e+00  
    5     3.919e-01  
    6     1.793e-01  
    7     5.164e-02  
    8     8.821e-03  
    9     3.685e-03  
   10     6.612e-04  
   11     2.350e-04  
   12     6.781e-05  
   13     2.820e-05  
   14     2.298e-05  
   15     9.866e-06  
   16     5.394e-06  
   17     1.503e-06  
   18     4.954e-07  Converged.
   ... Converged in 18 steps (norm: 4.95408e-07)
------------------------------------
  Starting TPA DIIS iterations ... 
------------------------------------ 
   It     Res. Norm  Remark
------------------------------------
                       Guess.
    1     1.176e+01  
    2     2.178e+01  
    3     3.076e+00  
    4     1.340e+00  
    5     3.907e-01  
    6     1.810e-01  
    7     5.103e-02  
    8     8.900e-03  
    9     3.659e-03  
   10     6.422e-04  
   11     2.218e-04  
   12     5.127e-05  
   13     2.496e-05  
   14     1.497e-05  
   15     4.135e-06  
   16     2.034e-06  
   17     4.942e-07  Converged.
   ... Converged in 17 steps (norm: 4.94238e-07)
------------------------------------
  Starting TPA DIIS iterations ... 
------------------------------------ 
   It     Res. Norm  Remark
------------------------------------
                       Guess.
    1     8.728e-01  
    2     8.258e-01  
    3     3.970e-01  
    4     3.626e-01  
    5     6.250e-02  
    6     2.967e-02  
    7     7.498e-03  
    8     1.970e-03  
    9     8.382e-04  
   10     9.137e-05  
   11     3.030e-05  
   12     1.626e-05  
   13     1.583e-05  
   14     2.881e-06  
   15     1.286e-06  
   16     5.953e-07  Converged.
   ... Converged in 16 steps (norm: 5.95297e-07)
------------------------------------
  Two-photon absorbption ...  CPU 107.34 s  wall 27.73 s
  Transition density matrix of state singlet_A_1 printed to ASCII file 'State_singlet_A_1_Transition.txt'
  Transition density matrix of state singlet_A_2 printed to ASCII file 'State_singlet_A_2_Transition.txt'
  Transition density matrix of state singlet_A_3 printed to ASCII file 'State_singlet_A_3_Transition.txt'
  Transition density matrix of state singlet_A_4 printed to ASCII file 'State_singlet_A_4_Transition.txt'
  Transition density matrix of state singlet_A_5 printed to ASCII file 'State_singlet_A_5_Transition.txt'
  Transition density matrix of state singlet_A_6 printed to ASCII file 'State_singlet_A_6_Transition.txt'
  Transition density matrix of state singlet_A_7 printed to ASCII file 'State_singlet_A_7_Transition.txt'
  Transition density matrix of state singlet_A_8 printed to ASCII file 'State_singlet_A_8_Transition.txt'
  Transition density matrix of state singlet_A_9 printed to ASCII file 'State_singlet_A_9_Transition.txt'
  Transition density matrix of state singlet_A_10 printed to ASCII file 'State_singlet_A_10_Transition.txt'
  Transition properties ...  CPU 0.13 s  wall 0.27 s
  Difference density matrix of state singlet_A_1 printed to ASCII file 'State_singlet_A_1_Difference.txt'
  Total density matrix of state singlet_A_1 printed to ASCII file 'State_singlet_A_1_Total.txt'
  Difference density matrix of state singlet_A_2 printed to ASCII file 'State_singlet_A_2_Difference.txt'
  Total density matrix of state singlet_A_2 printed to ASCII file 'State_singlet_A_2_Total.txt'
  Difference density matrix of state singlet_A_3 printed to ASCII file 'State_singlet_A_3_Difference.txt'
  Total density matrix of state singlet_A_3 printed to ASCII file 'State_singlet_A_3_Total.txt'
  Difference density matrix of state singlet_A_4 printed to ASCII file 'State_singlet_A_4_Difference.txt'
  Total density matrix of state singlet_A_4 printed to ASCII file 'State_singlet_A_4_Total.txt'
  Difference density matrix of state singlet_A_5 printed to ASCII file 'State_singlet_A_5_Difference.txt'
  Total density matrix of state singlet_A_5 printed to ASCII file 'State_singlet_A_5_Total.txt'
  Difference density matrix of state singlet_A_6 printed to ASCII file 'State_singlet_A_6_Difference.txt'
  Total density matrix of state singlet_A_6 printed to ASCII file 'State_singlet_A_6_Total.txt'
  Difference density matrix of state singlet_A_7 printed to ASCII file 'State_singlet_A_7_Difference.txt'
  Total density matrix of state singlet_A_7 printed to ASCII file 'State_singlet_A_7_Total.txt'
  Difference density matrix of state singlet_A_8 printed to ASCII file 'State_singlet_A_8_Difference.txt'
  Total density matrix of state singlet_A_8 printed to ASCII file 'State_singlet_A_8_Total.txt'
  Difference density matrix of state singlet_A_9 printed to ASCII file 'State_singlet_A_9_Difference.txt'
  Total density matrix of state singlet_A_9 printed to ASCII file 'State_singlet_A_9_Total.txt'
  Difference density matrix of state singlet_A_10 printed to ASCII file 'State_singlet_A_10_Difference.txt'
  Total density matrix of state singlet_A_10 printed to ASCII file 'State_singlet_A_10_Total.txt'
  Properties ...  CPU 0.23 s  wall 0.53 s
  ISR TDMS ...  CPU 19.23 s  wall 5.13 s
  ISR transition properties ...  CPU 0.20 s  wall 0.10 s
  Sum-over-states TPA ...  CPU 0.00 s  wall 0.00 s

--------------------------------------------------------------------------------
                   State-averaged natural transition orbitals
--------------------------------------------------------------------------------
--------------------------------------------------------------------------------
  SA-NTO decomposition ...  CPU 0.01 s  wall 0.02 s

--------------------------------------------------------------------------------
                             Excited State Summary
--------------------------------------------------------------------------------
--------------------------------------------------------------------------------

  Excited state 1 (singlet, A)                                     [converged]
  ----------------------------------------------------------------------------
  Term symbol:  2 (1) A                                     R^2 =  1.54781e-14

  Total energy:                                            -77.9985472024 a.u.
  Excitation energy:                                               8.736972 eV

  Osc. strength:                                                      0.445504
  Trans. dip. moment [a.u.]:           [  -1.045365,    0.994193,    0.008993]
  <i|r^2|0> [a.u.]:                    [  -6.163178,    0.249118,   -0.002469]
  Two-photon absorption cross-section (SoS) [a.u.]:                   0.000539
  Two-photon absorption matrix (SoS) [a.u.]:
                                       |   -0.005177    0.002039    0.001364 |
                                       |    0.002039   -0.001538   -0.000673 |
                                       |    0.001364   -0.000673   -0.004956 |
  Two-photon absorption cross-section [a.u.]:                         0.001457
  Two-photon absorption matrix [a.u.]:
                                       |   -0.000788    0.002037    0.011104 |
                                       |    0.002037    0.004885    0.006266 |
                                       |    0.011104    0.006266   -0.002129 |

  Dip. moment [a.u.]:                  [  -0.000712,    0.000298,    0.002212]
  Total dipole [Debye]:                                               0.005955
  <r^2> [a.u.]:                        [ 176.119362,   35.649016,   11.866208]
  Total <r^2> [a.u.]:                                               223.634587

  V1^2 = 0.9715, V2^2 = 0.0285

  Important amplitudes:
      occ i     occ j     vir a      vir b          v   
    -----------------------------------------------------
     8 (A) A              9 (A) A                -0.6810
     6 (A) A             14 (A) A                 0.0623
     4 (A) A             10 (A) A                 0.0606
     7 (A) A             16 (A) A                -0.0570
     5 (A) A             13 (A) A                 0.0513
     6 (A) A             23 (A) A                 0.0486
     8 (A) A             20 (A) A                -0.0350
     6 (A) A             19 (A) A                 0.0309
     3 (A) A             12 (A) A                -0.0281
     5 (A) A             22 (A) A                -0.0215
     7 (A) A             11 (A) A                -0.0209
     4 (A) A             24 (A) A                 0.0187
     3 (A) A             26 (A) A                 0.0185
     8 (A) A   8 (A) B   17 (A) A   20 (A) B      0.0184
     8 (A) A   8 (A) B    9 (A) A   28 (A) B      0.0168
     6 (A) A             26 (A) A                 0.0163
     7 (A) A             21 (A) A                -0.0148
     3 (A) A             14 (A) A                 0.0139
     6 (A) A             12 (A) A                 0.0132
     3 (A) A   4 (A) B    9 (A) A    9 (A) B     -0.0129
     3 (A) A             19 (A) A                 0.0119
     8 (A) A   8 (A) B   18 (A) A   19 (A) B     -0.0113
     7 (A) A              9 (A) A                -0.0097
     7 (A) A             32 (A) A                -0.0096
     7 (A) A             36 (A) A                -0.0086
     3 (A) A             23 (A) A                 0.0080
     8 (A) A   8 (A) B   25 (A) A   29 (A) B     -0.0076
     6 (A) A             35 (A) A                 0.0072
     6 (A) A             40 (A) A                 0.0068
     3 (A) A   6 (A) B    9 (A) A   28 (A) B      0.0065
     6 (A) A   8 (A) A   19 (A) A   28 (A) A      0.0061
     5 (A) A   7 (A) B    9 (A) A    9 (A) B      0.0060
     5 (A) A   8 (A) B   11 (A) A   20 (A) B      0.0059
     7 (A) A   8 (A) B   13 (A) A   20 (A) B     -0.0059
     5 (A) A   8 (A) B   16 (A) A    9 (A) B      0.0059
     5 (A) A   8 (A) B   11 (A) A    9 (A) B     -0.0059
     3 (A) A   5 (A) B    9 (A) A   25 (A) B      0.0058
     3 (A) A             40 (A) A                 0.0057
     7 (A) A   8 (A) B   22 (A) A   20 (A) B      0.0057
     6 (A) A   8 (A) A    9 (A) A   18 (A) A      0.0057
    -----------------------------------------------------

  Density matrix analysis:
  ------------------------
  NOs
    Occupation of frontier NOs:
       0.9495   1.0217
    Number of electrons: 16.000000
    Number of unpaired electrons: n_u =  2.31338, n_u,nl =  2.03263
    NO participation ratio (PR_NO):  2.863831
  
  
  Mulliken Population Analysis
  Atom      Charge (e)              h+              e-           Del q
  --------------------------------------------------------------------
   1 H        0.058732        0.020316       -0.012536        0.007780
   2 C       -0.116049        0.490833       -0.506102       -0.015269
   3 H        0.058139        0.020192       -0.012596        0.007596
   4 C       -0.116911        0.490666       -0.506273       -0.015607
   5 H        0.057784        0.020233       -0.012560        0.007673
   6 H        0.058305        0.020345       -0.012518        0.007827
  --------------------------------------------------------------------
  Sum:       -0.000000        1.062585       -1.062585        0.000000
  
  Multipole moment analysis of the density matrix
    Molecular charge:                      -0.000000
    Number of electrons:                   16.000000
      Center of electronic charge [Ang]: [ -1.560553,  -0.065612,   0.002218]
    Total nuclear charge:                  16.000000
      Center of nuclear charge [Ang]:    [ -1.560576,  -0.065602,   0.002291]
    Dipole moment [D]:                     0.005955
      Cartesian components [D]:          [ -0.001809,   0.000756,   0.005623]
    RMS size of the density [Ang]:         1.214236
      Cartesian components [Ang]:        [  0.804412,   0.787157,   0.455714]
  
  Exciton analysis of the difference density matrix
    <r_h> [Ang]:                  [ -1.560194,  -0.065748,   0.001332]
    <r_e> [Ang]:                  [ -1.560245,  -0.065644,   0.001126]
    |<r_e - r_h>| [Ang]:            0.000236
    Hole size [Ang]:                1.285485
      Cartesian components [Ang]: [  0.728520,   0.712700,   0.783447]
    Electron size [Ang]:            1.463175
      Cartesian components [Ang]: [  0.853974,   0.830474,   0.849660]

  Transition density matrix analysis:
  -----------------------------------
  
  CT numbers (Mulliken)
    omega =     0.9535
    <Phe> =    -0.1607
  
  Exciton analysis of the transition density matrix
    Trans. dipole moment [D]:             1.833447
      Cartesian components [D]:         [ -1.328527,   1.263493,   0.011429]
    <r_h> [Ang]:                        [ -1.560054,  -0.065882,   0.001488]
    <r_e> [Ang]:                        [ -1.560260,  -0.065628,   0.000980]
    |<r_e - r_h>| [Ang]:                  0.000604
    Hole size [Ang]:                      1.214233
      Cartesian components [Ang]:       [  0.649695,   0.636516,   0.804427]
    Electron size [Ang]:                  1.486016
      Cartesian components [Ang]:       [  0.864408,   0.839367,   0.869773]
    RMS electron-hole separation [Ang]:   1.936746
      Cartesian components [Ang]:       [  1.106773,   1.075170,   1.170491]
    Covariance(r_h, r_e) [Ang^2]:        -0.034191
    Correlation coefficient:             -0.018949
    Center-of-mass size [Ang]:            0.950556
      Cartesian components [Ang]:       [  0.527652,   0.515604,   0.599410]

  Decomposition into state-averaged NTOs
    H- 0 -> L+ 0: -0.6698 ( 89.7%)
    H- 2 -> L+ 5:  0.0836 (  1.4%)
                   omega =  95.4%
  ----------------------------------------------------------------------------


  Excited state 2 (singlet, A)                                     [converged]
  ----------------------------------------------------------------------------
  Term symbol:  3 (1) A                                     R^2 =  3.50809e-14

  Total energy:                                            -77.9868729572 a.u.
  Excitation energy:                                               9.054644 eV

  Osc. strength:                                                      0.000117
  Trans. dip. moment [a.u.]:           [  -0.017509,    0.014710,    0.002144]
  <i|r^2|0> [a.u.]:                    [  -0.168219,   -0.079190,    0.147794]
  Two-photon absorption cross-section (SoS) [a.u.]:                   4.887963
  Two-photon absorption matrix (SoS) [a.u.]:
                                       |   -0.055346   -0.057753    0.539596 |
                                       |   -0.057753   -0.060515    0.553616 |
                                       |    0.539596    0.553616    0.115259 |
  Two-photon absorption cross-section [a.u.]:                         0.078576
  Two-photon absorption matrix [a.u.]:
                                       |   -0.009823    0.006424   -0.058564 |
                                       |    0.006424    0.024360   -0.076802 |
                                       |   -0.058564   -0.076802   -0.014667 |

  Dip. moment [a.u.]:                  [  -0.004656,    0.008776,    0.004426]
  Total dipole [Debye]:                                               0.027644
  <r^2> [a.u.]:                        [ 174.516665,   33.969929,   13.171431]
  Total <r^2> [a.u.]:                                               221.658024

  V1^2 = 0.9542, V2^2 = 0.0458

  Important amplitudes:
      occ i     occ j     vir a      vir b          v   
    -----------------------------------------------------
     7 (A) A              9 (A) A                 0.6692
     8 (A) A             11 (A) A                 0.1481
     7 (A) A             20 (A) A                 0.0759
     5 (A) A   8 (A) B    9 (A) A    9 (A) B     -0.0316
     8 (A) A             16 (A) A                -0.0273
     8 (A) A             21 (A) A                 0.0175
     5 (A) A             28 (A) A                -0.0150
     4 (A) A   7 (A) B    9 (A) A   19 (A) B     -0.0135
     5 (A) A   7 (A) B    9 (A) A   16 (A) B      0.0134
     7 (A) A   8 (A) B   20 (A) A   17 (A) B     -0.0105
     7 (A) A   8 (A) A    9 (A) A   28 (A) A      0.0098
     5 (A) A   8 (A) B    9 (A) A   20 (A) B     -0.0096
     8 (A) A              9 (A) A                -0.0094
     4 (A) A   6 (A) B    9 (A) A   16 (A) B      0.0091
     5 (A) A   6 (A) A    9 (A) A   23 (A) A     -0.0091
     5 (A) A   6 (A) A    9 (A) A   14 (A) A     -0.0089
     5 (A) A   6 (A) B    9 (A) A   19 (A) B     -0.0087
     8 (A) A   7 (A) B    9 (A) A   28 (A) B     -0.0085
     4 (A) A   5 (A) A    9 (A) A   10 (A) A      0.0085
     6 (A) A   7 (A) B    9 (A) A   18 (A) B     -0.0083
     5 (A) A   6 (A) B    9 (A) A   23 (A) B     -0.0080
     3 (A) A   7 (A) B    9 (A) A   18 (A) B      0.0080
     5 (A) A   7 (A) A    9 (A) A   16 (A) A      0.0079
     4 (A) A   8 (A) B    9 (A) A   25 (A) B      0.0077
     7 (A) A   8 (A) B   17 (A) A   20 (A) B     -0.0074
     4 (A) A   7 (A) B   19 (A) A    9 (A) B     -0.0074
     5 (A) A   5 (A) B    9 (A) A   13 (A) B     -0.0072
     7 (A) A   8 (A) B   19 (A) A   18 (A) B      0.0072
     5 (A) A   8 (A) A    9 (A) A   20 (A) A     -0.0069
     4 (A) A   5 (A) B    9 (A) A   18 (A) B     -0.0068
     7 (A) A   7 (A) B   20 (A) A   22 (A) B     -0.0065
     7 (A) A   8 (A) B   17 (A) A    9 (A) B     -0.0065
     5 (A) A   6 (A) B    9 (A) A   14 (A) B     -0.0063
     4 (A) A   7 (A) A    9 (A) A   19 (A) A     -0.0061
     4 (A) A   5 (A) B   10 (A) A    9 (A) B     -0.0061
     5 (A) A             38 (A) A                -0.0061
     5 (A) A   7 (A) B   11 (A) A   20 (A) B     -0.0060
     4 (A) A   7 (A) B    9 (A) A   14 (A) B      0.0060
     4 (A) A   8 (A) A    9 (A) A   25 (A) A      0.0057
     6 (A) A   7 (A) A   19 (A) A   28 (A) A     -0.0057
    -----------------------------------------------------

  Density matrix analysis:
  ------------------------
  NOs
    Occupation of frontier NOs:
       0.9581   1.0537
    Number of electrons: 16.000000
    Number of unpaired electrons: n_u =  2.35529, n_u,nl =  2.06270
    NO participation ratio (PR_NO):  3.026917
  
  
  Mulliken Population Analysis
  Atom      Charge (e)              h+              e-           Del q
  --------------------------------------------------------------------
   1 H        0.148814        0.121508       -0.023646        0.097862
   2 C       -0.301936        0.270919       -0.472075       -0.201156
   3 H        0.152292        0.127102       -0.025353        0.101749
   4 C       -0.302382        0.273156       -0.474233       -0.201078
   5 H        0.154414        0.128021       -0.023718        0.104303
   6 H        0.148799        0.123296       -0.024976        0.098320
  --------------------------------------------------------------------
  Sum:       -0.000000        1.044002       -1.044002        0.000000
  
  Multipole moment analysis of the density matrix
    Molecular charge:                      -0.000000
    Number of electrons:                   16.000000
      Center of electronic charge [Ang]: [ -1.560422,  -0.065893,   0.002144]
    Total nuclear charge:                  16.000000
      Center of nuclear charge [Ang]:    [ -1.560576,  -0.065602,   0.002291]
    Dipole moment [D]:                     0.027644
      Cartesian components [D]:          [ -0.011836,   0.022306,   0.011251]
    RMS size of the density [Ang]:         1.200061
      Cartesian components [Ang]:        [  0.787042,   0.768240,   0.480124]
  
  Exciton analysis of the difference density matrix
    <r_h> [Ang]:                  [ -1.564875,  -0.062870,   0.002449]
    <r_e> [Ang]:                  [ -1.562928,  -0.067062,   0.001117]
    |<r_e - r_h>| [Ang]:            0.004810
    Hole size [Ang]:                1.486237
      Cartesian components [Ang]: [  0.999025,   1.002200,   0.454363]
    Electron size [Ang]:            1.477002
      Cartesian components [Ang]: [  0.881183,   0.859332,   0.816457]

  Transition density matrix analysis:
  -----------------------------------
  
  CT numbers (Mulliken)
    omega =     0.9218
    <Phe> =    -0.0122
  
  Exciton analysis of the transition density matrix
    Trans. dipole moment [D]:             0.029190
      Cartesian components [D]:         [ -0.022252,   0.018694,   0.002724]
    <r_h> [Ang]:                        [ -1.565540,  -0.062293,   0.002726]
    <r_e> [Ang]:                        [ -1.562489,  -0.067620,   0.000832]
    |<r_e - r_h>| [Ang]:                  0.006424
    Hole size [Ang]:                      1.514878
      Cartesian components [Ang]:       [  1.021616,   1.026671,   0.443964]
    Electron size [Ang]:                  1.474080
      Cartesian components [Ang]:       [  0.871797,   0.848646,   0.832274]
    RMS electron-hole separation [Ang]:   2.093899
      Cartesian components [Ang]:       [  1.327163,   1.317072,   0.942535]
    Covariance(r_h, r_e) [Ang^2]:         0.041697
    Correlation coefficient:              0.018673
    Center-of-mass size [Ang]:            1.066673
      Cartesian components [Ang]:       [  0.679358,   0.673397,   0.472016]

  Decomposition into state-averaged NTOs
    H- 1 -> L+ 0: -0.6615 ( 87.5%)
    H- 0 -> L+ 2:  0.1481 (  4.4%)
                   omega =  92.2%
  ----------------------------------------------------------------------------


  Excited state 3 (singlet, A)                                     [converged]
  ----------------------------------------------------------------------------
  Term symbol:  4 (1) A                                     R^2 =  1.76527e-14

  Total energy:                                            -77.9825904446 a.u.
  Excitation energy:                                               9.171177 eV

  Osc. strength:                                                      0.025209
  Trans. dip. moment [a.u.]:           [  -0.012716,   -0.022171,    0.333979]
  <i|r^2|0> [a.u.]:                    [  -0.064633,   -0.012377,   -0.004376]
  Two-photon absorption cross-section (SoS) [a.u.]:                   0.030169
  Two-photon absorption matrix (SoS) [a.u.]:
                                       |    0.054623    0.001627    0.014309 |
                                       |    0.001627   -0.060594    0.003236 |
                                       |    0.014309    0.003236   -0.015125 |
  Two-photon absorption cross-section [a.u.]:                         0.018116
  Two-photon absorption matrix [a.u.]:
                                       |    0.032526    0.003401    0.016238 |
                                       |    0.003401   -0.049978    0.001015 |
                                       |    0.016238    0.001015   -0.008772 |

  Dip. moment [a.u.]:                  [   0.000412,    0.012382,   -0.001683]
  Total dipole [Debye]:                                               0.031780
  <r^2> [a.u.]:                        [ 180.866311,   40.609839,   11.024869]
  Total <r^2> [a.u.]:                                               232.501019

  V1^2 = 0.9587, V2^2 = 0.0413

  Important amplitudes:
      occ i     occ j     vir a      vir b          v   
    -----------------------------------------------------
     8 (A) A             10 (A) A                -0.6891
     8 (A) A             24 (A) A                -0.0507
     8 (A) A             18 (A) A                 0.0312
     4 (A) A              9 (A) A                 0.0238
     8 (A) A   8 (A) B    9 (A) A   12 (A) B     -0.0219
     8 (A) A   8 (A) B   10 (A) A   17 (A) B     -0.0173
     8 (A) A             15 (A) A                -0.0169
     5 (A) A   8 (A) B   11 (A) A   10 (A) B     -0.0165
     7 (A) A   8 (A) B   13 (A) A   10 (A) B      0.0141
     4 (A) A   8 (A) B   12 (A) A   10 (A) B      0.0111
     6 (A) A   8 (A) A   10 (A) A   15 (A) A      0.0110
     7 (A) A   8 (A) B   22 (A) A   10 (A) B     -0.0108
     6 (A) A   8 (A) B   15 (A) A   10 (A) B     -0.0108
     4 (A) A   8 (A) A   10 (A) A   12 (A) A     -0.0106
     7 (A) A   8 (A) A   10 (A) A   22 (A) A      0.0099
     7 (A) A   8 (A) A   10 (A) A   13 (A) A     -0.0097
     5 (A) A   8 (A) B   21 (A) A   10 (A) B     -0.0094
     5 (A) A   8 (A) A   10 (A) A   11 (A) A      0.0094
     6 (A) A   8 (A) A   10 (A) A   18 (A) A      0.0088
     6 (A) A   8 (A) B   10 (A) A   10 (A) B      0.0087
     7 (A) A   8 (A) A   12 (A) A   16 (A) A     -0.0082
     5 (A) A   8 (A) A   10 (A) A   21 (A) A      0.0080
     3 (A) A   4 (A) B   10 (A) A    9 (A) B     -0.0079
     4 (A) A   8 (A) B   19 (A) A   10 (A) B     -0.0075
     8 (A) A   8 (A) B    9 (A) A   23 (A) B     -0.0075
     8 (A) A   8 (A) B   10 (A) A   28 (A) B      0.0073
     3 (A) A   8 (A) B   10 (A) A   10 (A) B     -0.0072
     5 (A) A   8 (A) B   10 (A) A   11 (A) B     -0.0071
     3 (A) A   8 (A) A   10 (A) A   24 (A) A      0.0071
     7 (A) A   8 (A) B   16 (A) A   12 (A) B      0.0070
     3 (A) A   8 (A) B   10 (A) A   18 (A) B      0.0069
     8 (A) A   8 (A) B    9 (A) A   19 (A) B      0.0068
     6 (A) A   8 (A) B   18 (A) A   10 (A) B     -0.0067
     3 (A) A   6 (A) B   10 (A) A   28 (A) B      0.0062
     7 (A) A   8 (A) B   12 (A) A   11 (A) B     -0.0058
     6 (A) A             28 (A) A                -0.0057
     3 (A) A   5 (A) B   10 (A) A   25 (A) B      0.0056
     5 (A) A   8 (A) A   10 (A) A   16 (A) A     -0.0056
     3 (A) A   8 (A) A   10 (A) A   18 (A) A      0.0056
     4 (A) A   8 (A) A   10 (A) A   23 (A) A     -0.0055
    -----------------------------------------------------

  Density matrix analysis:
  ------------------------
  NOs
    Occupation of frontier NOs:
       0.9815   0.9850
    Number of electrons: 16.000000
    Number of unpaired electrons: n_u =  2.28526, n_u,nl =  2.02441
    NO participation ratio (PR_NO):  2.691912
  
  
  Mulliken Population Analysis
  Atom      Charge (e)              h+              e-           Del q
  --------------------------------------------------------------------
   1 H       -0.162852        0.053881       -0.267684       -0.213804
   2 C        0.327836        0.538944       -0.110327        0.428616
   3 H       -0.166169        0.053746       -0.270458       -0.216711
   4 C        0.326945        0.537521       -0.109273        0.428249
   5 H       -0.162502        0.053975       -0.266588       -0.212613
   6 H       -0.163258        0.053878       -0.267615       -0.213737
  --------------------------------------------------------------------
  Sum:       -0.000000        1.291944       -1.291944        0.000000
  
  Multipole moment analysis of the density matrix
    Molecular charge:                      -0.000000
    Number of electrons:                   16.000000
      Center of electronic charge [Ang]: [ -1.560590,  -0.066012,   0.002346]
    Total nuclear charge:                  16.000000
      Center of nuclear charge [Ang]:    [ -1.560576,  -0.065602,   0.002291]
    Dipole moment [D]:                     0.031780
      Cartesian components [D]:          [  0.001047,   0.031473,  -0.004279]
    RMS size of the density [Ang]:         1.276471
      Cartesian components [Ang]:        [  0.854425,   0.840468,   0.439260]
  
  Exciton analysis of the difference density matrix
    <r_h> [Ang]:                  [ -1.560024,  -0.066086,   0.001727]
    <r_e> [Ang]:                  [ -1.560527,  -0.070950,   0.003153]
    |<r_e - r_h>| [Ang]:            0.005094
    Hole size [Ang]:                1.410249
      Cartesian components [Ang]: [  0.833955,   0.819825,   0.788167]
    Electron size [Ang]:            2.076097
      Cartesian components [Ang]: [  1.373401,   1.377015,   0.726482]

  Transition density matrix analysis:
  -----------------------------------
  
  CT numbers (Mulliken)
    omega =     0.9259
    <Phe> =    -0.0109
  
  Exciton analysis of the transition density matrix
    Trans. dipole moment [D]:             0.425686
      Cartesian components [D]:         [ -0.016161,  -0.028177,   0.424444]
    <r_h> [Ang]:                        [ -1.559749,  -0.065706,   0.001267]
    <r_e> [Ang]:                        [ -1.560423,  -0.072799,   0.003509]
    |<r_e - r_h>| [Ang]:                  0.007469
    Hole size [Ang]:                      1.212943
      Cartesian components [Ang]:       [  0.636397,   0.623536,   0.823064]
    Electron size [Ang]:                  2.296525
      Cartesian components [Ang]:       [  1.518062,   1.524601,   0.803184]
    RMS electron-hole separation [Ang]:   2.587269
      Cartesian components [Ang]:       [  1.638569,   1.640212,   1.148372]
    Covariance(r_h, r_e) [Ang^2]:         0.025676
    Correlation coefficient:              0.009218
    Center-of-mass size [Ang]:            1.303515
      Cartesian components [Ang]:       [  0.826759,   0.827068,   0.575831]

  Decomposition into state-averaged NTOs
    H- 0 -> L+ 1:  0.6798 ( 92.4%)
                   omega =  92.6%
  ----------------------------------------------------------------------------


  Excited state 4 (singlet, A)                                     [converged]
  ----------------------------------------------------------------------------
  Term symbol:  5 (1) A                                     R^2 =  2.04284e-14

  Total energy:                                            -77.9582382304 a.u.
  Excitation energy:                                               9.833834 eV

  Osc. strength:                                                      0.000019
  Trans. dip. moment [a.u.]:           [  -0.006637,    0.005925,    0.001147]
  <i|r^2|0> [a.u.]:                    [  -0.021610,    0.019596,   -0.035626]
  Two-photon absorption cross-section (SoS) [a.u.]:                 149.689225
  Two-photon absorption matrix (SoS) [a.u.]:
                                       |    0.298603    0.319612   -3.012861 |
                                       |    0.319612    0.340411   -3.037321 |
                                       |   -3.012861   -3.037321   -0.638487 |
  Two-photon absorption cross-section [a.u.]:                        91.938435
  Two-photon absorption matrix [a.u.]:
                                       |    0.245054    0.251109   -2.355114 |
                                       |    0.251109    0.256268   -2.386326 |
                                       |   -2.355114   -2.386326   -0.500539 |

  Dip. moment [a.u.]:                  [  -0.012616,   -0.006174,   -0.003630]
  Total dipole [Debye]:                                               0.036873
  <r^2> [a.u.]:                        [ 181.223579,   40.536554,   10.761846]
  Total <r^2> [a.u.]:                                               232.521979

  V1^2 = 0.9635, V2^2 = 0.0365

  Important amplitudes:
      occ i     occ j     vir a      vir b          v   
    -----------------------------------------------------
     8 (A) A             11 (A) A                -0.6697
     7 (A) A              9 (A) A                 0.1501
     8 (A) A             21 (A) A                -0.0781
     8 (A) A             16 (A) A                 0.0645
     8 (A) A   8 (A) B    9 (A) A   13 (A) B      0.0167
     5 (A) A   8 (A) B   11 (A) A   11 (A) B     -0.0155
     8 (A) A   8 (A) B   11 (A) A   17 (A) B     -0.0140
     7 (A) A             20 (A) A                 0.0137
     7 (A) A   8 (A) B   13 (A) A   11 (A) B      0.0127
     8 (A) A             12 (A) A                -0.0113
     5 (A) A   8 (A) A   11 (A) A   21 (A) A      0.0110
     4 (A) A   8 (A) B   12 (A) A   11 (A) B      0.0110
     8 (A) A   8 (A) B    9 (A) A   22 (A) B     -0.0107
     7 (A) A   8 (A) A   11 (A) A   22 (A) A      0.0096
     6 (A) A   8 (A) B   15 (A) A   11 (A) B     -0.0090
     6 (A) A   8 (A) B   10 (A) A   11 (A) B      0.0090
     7 (A) A   8 (A) B   22 (A) A   11 (A) B     -0.0089
     3 (A) A   4 (A) B   11 (A) A    9 (A) B     -0.0083
     3 (A) A   8 (A) B   11 (A) A   18 (A) B      0.0081
     6 (A) A   8 (A) A   11 (A) A   15 (A) A      0.0080
     7 (A) A   8 (A) A   13 (A) A   16 (A) A      0.0078
     7 (A) A   8 (A) A   11 (A) A   13 (A) A     -0.0077
     6 (A) A              9 (A) A                -0.0076
     5 (A) A   8 (A) B   21 (A) A   11 (A) B     -0.0071
     4 (A) A   8 (A) B   19 (A) A   11 (A) B     -0.0070
     5 (A) A   8 (A) B    9 (A) A    9 (A) B     -0.0068
     4 (A) A   8 (A) A   11 (A) A   12 (A) A     -0.0062
     6 (A) A   8 (A) A   11 (A) A   18 (A) A      0.0062
     3 (A) A   6 (A) B   11 (A) A   28 (A) B      0.0060
     6 (A) A   8 (A) B   18 (A) A   11 (A) B     -0.0060
     7 (A) A   8 (A) B   16 (A) A   13 (A) B     -0.0057
     3 (A) A   8 (A) A   11 (A) A   18 (A) A      0.0056
     5 (A) A   8 (A) B   10 (A) A   10 (A) B     -0.0056
     3 (A) A   8 (A) B   11 (A) A   30 (A) B      0.0055
     3 (A) A   5 (A) B   11 (A) A   25 (A) B      0.0055
     6 (A) A   8 (A) B   11 (A) A   10 (A) B      0.0054
     7 (A) A   8 (A) B   12 (A) A   10 (A) B     -0.0054
     8 (A) A   8 (A) B   20 (A) A   22 (A) B     -0.0053
     3 (A) A   8 (A) A   11 (A) A   24 (A) A      0.0053
     5 (A) A   8 (A) A   11 (A) A   16 (A) A     -0.0048
    -----------------------------------------------------

  Density matrix analysis:
  ------------------------
  NOs
    Occupation of frontier NOs:
       0.9408   1.0277
    Number of electrons: 16.000000
    Number of unpaired electrons: n_u =  2.31912, n_u,nl =  2.04905
    NO participation ratio (PR_NO):  2.914002
  
  
  Mulliken Population Analysis
  Atom      Charge (e)              h+              e-           Del q
  --------------------------------------------------------------------
   1 H       -0.146502        0.045762       -0.243216       -0.197454
   2 C        0.275011        0.497218       -0.121426        0.375792
   3 H       -0.128874        0.046931       -0.226348       -0.179417
   4 C        0.273368        0.496824       -0.122152        0.374672
   5 H       -0.131113        0.047060       -0.228284       -0.181224
   6 H       -0.141891        0.045830       -0.238200       -0.192370
  --------------------------------------------------------------------
  Sum:       -0.000000        1.179625       -1.179625        0.000000
  
  Multipole moment analysis of the density matrix
    Molecular charge:                      0.000000
    Number of electrons:                   16.000000
      Center of electronic charge [Ang]: [ -1.560159,  -0.065398,   0.002411]
    Total nuclear charge:                  16.000000
      Center of nuclear charge [Ang]:    [ -1.560576,  -0.065602,   0.002291]
    Dipole moment [D]:                     0.036873
      Cartesian components [D]:          [ -0.032066,  -0.015693,  -0.009226]
    RMS size of the density [Ang]:         1.277173
      Cartesian components [Ang]:        [  0.858859,   0.839753,   0.433988]
  
  Exciton analysis of the difference density matrix
    <r_h> [Ang]:                  [ -1.560062,  -0.065430,   0.001679]
    <r_e> [Ang]:                  [ -1.554768,  -0.062433,   0.004115]
    |<r_e - r_h>| [Ang]:            0.006553
    Hole size [Ang]:                1.394812
      Cartesian components [Ang]: [  0.818192,   0.806878,   0.790574]
    Electron size [Ang]:            2.124193
      Cartesian components [Ang]: [  1.441035,   1.405481,   0.678406]

  Transition density matrix analysis:
  -----------------------------------
  
  CT numbers (Mulliken)
    omega =     0.9298
    <Phe> =    -0.0135
  
  Exciton analysis of the transition density matrix
    Trans. dipole moment [D]:             0.011401
      Cartesian components [D]:         [ -0.008435,   0.007530,   0.001458]
    <r_h> [Ang]:                        [ -1.560401,  -0.065602,   0.001309]
    <r_e> [Ang]:                        [ -1.553797,  -0.061711,   0.004490]
    |<r_e - r_h>| [Ang]:                  0.008298
    Hole size [Ang]:                      1.227924
      Cartesian components [Ang]:       [  0.657769,   0.650241,   0.807666]
    Electron size [Ang]:                  2.262314
      Cartesian components [Ang]:       [  1.535317,   1.497152,   0.720696]
    RMS electron-hole separation [Ang]:   2.563403
      Cartesian components [Ang]:       [  1.661747,   1.624474,   1.081996]
    Covariance(r_h, r_e) [Ang^2]:         0.027449
    Correlation coefficient:              0.009881
    Center-of-mass size [Ang]:            1.292358
      Cartesian components [Ang]:       [  0.839398,   0.820008,   0.541467]

  Decomposition into state-averaged NTOs
    H- 0 -> L+ 2: -0.6650 ( 88.5%)
    H- 1 -> L+ 0: -0.1481 (  4.4%)
                   omega =  93.0%
  ----------------------------------------------------------------------------


  Excited state 5 (singlet, A)                                     [converged]
  ----------------------------------------------------------------------------
  Term symbol:  6 (1) A                                     R^2 =  7.46120e-14

  Total energy:                                            -77.9443224843 a.u.
  Excitation energy:                                              10.212501 eV

  Osc. strength:                                                      0.000000
  Trans. dip. moment [a.u.]:           [  -0.000642,   -0.001055,    0.000098]
  <i|r^2|0> [a.u.]:                    [   0.081636,   -0.102610,    0.018047]
  Two-photon absorption cross-section (SoS) [a.u.]:                 178.594061
  Two-photon absorption matrix (SoS) [a.u.]:
                                       |    0.323883    0.037139   -3.355584 |
[...]
    16   -1.462798087276e-03
    17   -1.807832960837e-03
    18   -1.006466442322e-04
    19   -3.324182089989e-03
    20    1.079042907497e-02
    21    9.349929841241e-01
    22   -2.694695923625e-04
    23    1.398791635224e-02
    24    8.392885439061e-04
    25    7.022566851895e-02
    26   -5.221804522275e-02
    27   -1.398917949651e+00
    28    9.783195449826e-02
    29   -9.270198998095e-02
    30   -1.844938234147e-03
    31    3.848427584517e-01
    32   -3.626282507377e-01
    33   -7.196017404859e-03
    34    1.564858901439e-02
    35   -1.309119853113e-03
    36   -1.795135989131e-03
    37   -6.423611079563e-05
    38   -3.136831809681e-03
    39    9.850322303098e-03
    40    9.321938624744e-01
    41    2.354907218449e-04
    42   -1.393006023676e-02
    43   -8.412802452043e-04
    44    1.001636744977e-02
    45    9.395138131138e-01
    46    1.412579474116e-02
    47    3.774508273698e-04
    48    6.035999521795e-04
Sym=X
Ene= 0.232980
Spin=Alpha
Occup=0
     1    2.614717021009e-02
     2    1.233191878524e+00
     3   -1.430605197025e-02
     4   -3.813329280703e-03
     5   -9.055474811995e-04
     6    2.954491646190e-03
     7   -3.375569602477e-03
     8   -4.642104488027e-02
     9   -1.547865607021e-01
    10   -1.586666920738e-01
    11   -1.704770367246e-02
    12   -5.563237567013e-01
    13   -5.585091640518e-01
    14   -6.090445229480e-02
    15    5.056598977002e-04
    16   -7.014827715867e-05
    17    4.279968263835e-06
    18   -2.133926323652e-04
    19   -3.385231173327e-04
    20   -2.505774894570e-02
    21   -1.161751313751e+00
    22   -2.499354248521e-03
    23   -1.358850574289e-02
    24   -9.577983607331e-04
    25   -2.694419435304e-03
    26    3.146316099097e-03
    27    3.967863731264e-02
    28   -1.539395976780e-01
    29   -1.590850876750e-01
    30   -1.584646376955e-02
    31   -5.481391030032e-01
    32   -5.555710692974e-01
    33   -5.546009781124e-02
    34   -4.890951322382e-04
    35   -3.130202360787e-05
    36   -1.111951792098e-05
    37    3.882919142465e-04
    38    3.452486688182e-04
    39    2.509460164150e-02
    40    1.158968213281e+00
    41   -2.464170894169e-03
    42   -1.363523892385e-02
    43   -9.005690755986e-04
    44   -2.617536796691e-02
    45   -1.221839938716e+00
    46   -1.423805032449e-02
    47   -3.764614542342e-03
    48   -8.239036969598e-04
Sym=X
Ene= 0.239415
Spin=Alpha
Occup=0
     1   -1.598870972770e-02
     2   -1.051924822151e+00
     3    1.652866249714e-02
     4    9.105445662268e-03
     5    1.334392348905e-03
     6   -8.648900611784e-02
     7    7.972723842028e-02
     8    1.592740157325e+00
     9    5.327153720010e-02
    10   -6.050807911221e-02
    11   -6.595450009532e-04
    12    2.113480125065e-01
    13   -2.353835942401e-01
    14   -1.969878906850e-03
    15   -2.255057856935e-02
    16    2.633826200297e-03
    17    2.900656213995e-03
    18   -5.116560071118e-04
    19    1.286474447853e-02
    20   -1.700275954376e-02
    21   -1.123716555710e+00
    22   -8.540161332792e-03
    23   -1.775730753867e-02
    24   -1.423093728586e-03
    25    8.644496106458e-02
    26   -7.929998176725e-02
    27   -1.596746498260e+00
    28    5.353443095034e-02
    29   -6.102489848517e-02
    30   -2.142830474655e-03
    31    2.120083922582e-01
    32   -2.403478638448e-01
    33   -8.374103977184e-03
    34    2.264042526661e-02
    35   -2.442643510822e-03
    36   -3.008241829029e-03
    37    7.062203969082e-04
    38   -1.279781332629e-02
    39    1.676959440403e-02
    40    1.129872580959e+00
    41   -8.630350443547e-03
    42   -1.788801195306e-02
    43   -1.511943833968e-03
    44    1.561239168190e-02
    45    1.050349876565e+00
    46    1.646899798793e-02
    47    9.280697935229e-03
    48    1.221458456081e-03
Sym=X
Ene= 0.303265
Spin=Alpha
Occup=0
     1   -2.075992449192e-02
     2    1.691282313155e+00
     3   -2.291185343394e-02
     4    2.775439479065e-04
     5   -1.103431582181e-03
     6   -2.002685836887e-04
     7    1.756805697250e-04
     8    1.846109271434e-03
     9   -1.338749777175e-01
    10   -1.395385089675e-01
    11   -1.469539470493e-02
    12   -1.144165926845e+00
    13   -1.193772973423e+00
    14   -1.239972339401e-01
    15   -1.294065573657e-04
    16   -1.681558781575e-03
    17    1.793478779862e-03
    18   -3.266142996187e-02
    19   -1.579098890332e-03
    20    1.995377029185e-02
    21   -1.689692735375e+00
    22    1.428523038680e-03
    23   -2.290553727802e-02
    24   -1.263775252688e-03
    25    8.155316104088e-05
    26    2.649808456850e-04
    27   -9.005231109093e-03
    28    1.347427180427e-01
    29    1.403127516001e-01
    30    1.412959719398e-02
    31    1.140326671409e+00
    32    1.197780357890e+00
    33    1.218637120708e-01
    34    1.014134126768e-04
    35   -1.414817528479e-03
    36    1.991503528297e-03
    37   -3.251914430969e-02
    38   -1.712777339164e-03
    39    1.955040153808e-02
    40   -1.692382954117e+00
    41   -1.622896325949e-03
    42    2.284194900531e-02
    43    1.279243514380e-03
    44   -2.015683963088e-02
    45    1.699341947680e+00
    46    2.305320159065e-02
    47   -3.615719237971e-04
    48    9.827559929271e-04
Sym=X
Ene= 0.462065
Spin=Alpha
Occup=0
     1   -1.155687960416e-01
     2   -7.144847110837e-01
     3   -1.566982613152e-02
     4   -1.033219372783e-02
     5   -1.356638730978e-03
     6    6.080958579474e-02
     7    1.736308013060e-02
     8   -3.592231736758e+00
     9    1.030166592448e-01
    10   -9.897777774338e-02
    11   -1.169954151909e-03
    12    2.426339903019e+00
    13   -2.303513156314e+00
    14   -1.993319793358e-02
    15    5.365418921123e-02
    16   -3.309931067169e-03
    17   -4.784550622540e-03
    18   -7.714565608467e-04
    19    1.799815261567e-02
    20   -1.212515091691e-01
    21   -7.023713346629e-01
    22    8.723752378221e-03
    23    1.638038951229e-02
    24    1.409654803567e-03
    25   -6.095071162489e-02
    26   -1.624036609055e-02
    27    3.591378140831e+00
    28    1.052049477679e-01
    29   -1.004075615589e-01
    30   -2.044505539578e-03
    31    2.423303725884e+00
    32   -2.298355999785e+00
    33   -2.382349630299e-02
    34   -5.271390071525e-02
    35    3.056732071988e-03
    36    4.359823788652e-03
    37    6.495413707298e-04
    38   -1.902942976471e-02
    39    1.151490230965e-01
    40    7.091272187138e-01
    41    8.572384886220e-03
    42    1.625423921517e-02
    43    1.289735657777e-03
    44    1.105789509858e-01
    45    7.189518698442e-01
    46   -1.545489981487e-02
    47   -9.946812724761e-03
    48   -1.286949448583e-03
Sym=X
Ene= 0.577513
Spin=Alpha
Occup=0
     1    2.469293618552e-01
     2    4.082041162351e-02
     3   -1.847933117857e-02
     4    2.569703089536e-02
     5    6.503578575166e-04
     6   -4.440098260330e-03
     7   -1.572174139515e-01
     8   -4.669392702875e-01
     9    2.988365117608e-01
    10   -2.879796755923e-01
    11   -3.029437951183e-03
    12   -7.193031550699e-01
    13    6.957445836220e-01
    14    8.116560034395e-03
    15   -5.874729381513e-03
    16    3.853875604344e-03
    17    3.642894097658e-03
    18   -4.387034862320e-03
    19    6.023158799021e-02
    20    2.553292696734e-01
    21    2.901028055835e-02
    22   -2.642430099077e-02
    23    1.646259684034e-02
    24   -2.697658814113e-04
    25   -5.652124884584e-03
    26   -1.579131669546e-01
    27   -4.091136472790e-01
    28   -2.973413146169e-01
    29    2.852353801977e-01
    30    2.777632731265e-03
    31    7.634592441905e-01
    32   -7.335142998791e-01
    33   -9.187719185487e-03
    34   -5.850849387501e-03
    35    3.847443728277e-03
    36    3.601338711411e-03
    37   -3.795471295955e-03
    38    6.018833940981e-02
    39    2.507151645379e-01
    40    5.012492511950e-02
    41    2.722947483437e-02
    42   -1.701551571538e-02
    43    1.778671808405e-04
    44    2.489706125523e-01
    45    5.681822582038e-02
    46    1.842448060897e-02
    47   -2.585874755255e-02
    48   -7.369495478883e-04
Sym=X
Ene= 0.615137
Spin=Alpha
Occup=0
     1   -5.222750901227e-01
     2    2.000240870051e-01
     3   -6.135751077555e-02
     4    3.762157566812e-02
     5   -6.387873420814e-04
     6   -5.909553176845e-04
     7    1.049752338285e-04
     8   -1.708119160770e-02
     9   -4.040719607234e-02
    10   -3.854649715627e-02
    11   -3.968792990250e-03
    12    3.050432635162e-01
    13    2.786263385039e-01
    14    3.186337162836e-02
    15    1.887033816119e-03
    16   -7.552497484047e-03
    17    8.053170803591e-03
    18   -1.479735937753e-01
    19   -6.433208750302e-03
    20    5.080629007316e-01
    21   -2.051015317191e-01
    22    4.178449293143e-02
    23   -5.845304312951e-02
    24   -1.409637005503e-03
    25    4.167566756091e-04
    26   -9.080343821124e-04
    27    2.451005200269e-02
    28   -4.011748697381e-02
    29   -4.032962590493e-02
    30   -4.399927072033e-03
    31    3.047234335089e-01
    32    2.899003195123e-01
    33    2.969894641450e-02
    34   -1.509414104301e-03
    35    6.826534731298e-03
    36   -8.827103222793e-03
    37    1.491228268818e-01
    38    6.320829276626e-03
    39   -5.149333618208e-01
    40    2.072846225134e-01
    41    4.092086723313e-02
    42   -5.857313693644e-02
    43   -1.764716311142e-03
    44    5.218016470778e-01
    45   -2.033632205089e-01
    46   -6.146350926158e-02
    47    3.757461476831e-02
    48   -4.945698000234e-04
Sym=X
Ene= 0.689153
Spin=Alpha
Occup=0
     1    1.829518318878e-03
     2   -2.409327626680e-04
     3    1.310030526911e-03
     4    1.527025680806e-03
     5   -2.098067748899e-02
     6    1.126248916459e-04
     7    1.097555759373e-03
     8    2.866554682533e-04
     9    3.100905213183e-02
    10    4.045927131183e-02
    11   -6.703524721348e-01
    12   -3.089203558957e-02
    13   -3.513812805551e-02
    14    6.135687352315e-01
    15   -1.755194648867e-03
    16    8.273805113578e-02
    17   -7.829022714461e-02
    18   -8.230982272935e-03
    19   -8.251325190988e-04
    20    1.576922132602e-03
    21    8.697295021482e-04
    22    8.800462033591e-04
    23    1.000414677988e-03
    24   -2.094691611030e-02
    25    3.242243154676e-05
    26    1.879161547528e-03
    27   -2.071501568121e-03
    28    3.045213328713e-02
    29    3.868172107460e-02
    30   -6.702370087116e-01
    31   -2.991671558715e-02
    32   -3.297456519900e-02
    33    6.134214773620e-01
    34    7.853335051581e-04
    35   -8.272870210551e-02
    36    7.849526390450e-02
    37    8.638430171263e-03
    38    1.205153791229e-03
    39    2.446927371795e-04
    40   -1.491661596511e-03
    41    8.645614819328e-04
    42    1.645694877290e-03
    43   -2.105362343161e-02
    44    4.875621335415e-04
    45   -2.629748930609e-03
    46    4.413255550052e-04
    47    1.130251437468e-03
    48   -2.113085566016e-02
Sym=X
Ene= 0.708949
Spin=Alpha
Occup=0
     1   -4.758702747314e-01
     2    1.587305625471e-01
     3   -8.076615450576e-02
     4   -4.429219394428e-02
     5   -6.570452066745e-03
     6   -4.787221313732e-02
     7   -3.198928981020e-01
     8    5.107672282709e-01
     9    2.036543078606e-01
    10   -1.921172833259e-01
    11   -3.657751950040e-03
    12   -9.851395686926e-02
    13    8.173636045243e-02
    14    6.452775570984e-04
    15    1.941950538123e-01
    16   -2.028649099442e-02
    17   -2.385811020064e-02
    18    3.137050558176e-03
    19   -7.749797229596e-02
    20   -4.788063337432e-01
    21    1.505967369657e-01
    22    4.097525015025e-02
    23    8.177288796684e-02
    24    6.622492486554e-03
    25   -4.666930731434e-02
    26   -3.213154127814e-01
    27    4.624924607171e-01
    28   -2.040475165134e-01
    29    1.920094099981e-01
    30    1.476409951296e-04
    31    6.364486138096e-02
    32   -5.117633951955e-02
    33    3.667402883553e-03
    34    1.936720424487e-01
    35   -1.966367775861e-02
    36   -2.326890719897e-02
    37    2.412437626094e-03
    38   -7.560762268723e-02
    39   -4.720665595863e-01
    40    1.348607989204e-01
    41   -4.069013693529e-02
    42   -8.095930023600e-02
    43   -6.540718852544e-03
    44   -4.740189301338e-01
    45    1.450821328522e-01
    46    8.048575027086e-02
    47    4.399642068124e-02
    48    6.221515438210e-03
Sym=X
Ene= 0.784582
Spin=Alpha
Occup=0
     1    5.262742296153e-01
     2   -4.686615577439e-01
     3    1.102215266243e-01
     4    2.594599961866e-02
     5    6.811701870705e-03
     6    9.093314456373e-02
     7   -2.161043961534e-01
     8   -6.408243963237e-01
     9    1.106143286781e-01
    10   -1.062849736614e-01
    11    2.219874845507e-03
    12    3.171740904883e-01
    13   -2.922857877289e-01
    14   -8.342645003483e-03
    15   -2.061745395784e-01
    16    1.766787113808e-02
    17    2.180249068648e-02
    18   -1.125506567976e-03
    19    9.120655427971e-03
    20    5.357668693098e-01
    21   -4.681972457682e-01
    22   -2.025775870009e-02
    23   -1.122688815988e-01
    24   -7.577844197331e-03
    25   -9.142499526003e-02
    26    2.125028940097e-01
    27    6.568272236773e-01
    28    1.119493372844e-01
    29   -1.052248530220e-01
    30   -3.617237131968e-03
    31    3.082537431470e-01
    32   -2.881747087212e-01
    33    3.222139813390e-03
    34    2.079941642447e-01
    35   -1.610926013801e-02
    36   -2.201529097249e-02
    37    1.822028435587e-03
    38   -8.930665234589e-03
    39   -5.421107975189e-01
    40    4.668459129283e-01
    41   -2.054533777349e-02
    42   -1.130069812201e-01
    43   -7.547915889430e-03
    44   -5.316652145284e-01
    45    4.636826931112e-01
    46    1.100497599297e-01
    47    2.679919813280e-02
    48    6.446482961537e-03
Sym=X
Ene= 0.807969
Spin=Alpha
Occup=0
     1    1.827100051883e-03
     2   -5.870693236320e-04
     3    1.921681564344e-03
     4    1.838459868287e-03
     5   -3.380547472393e-02
     6    3.869783139457e-04
     7   -1.409321323924e-03
     8   -2.815584740186e-04
     9    3.737307652124e-02
    10    4.473588507633e-02
    11   -7.629588573633e-01
    12   -5.324122202235e-02
    13   -6.824860816541e-02
    14    1.126865904772e+00
    15   -2.861816215861e-05
    16   -6.520177865645e-02
    17    6.196823179838e-02
    18    6.255168949409e-03
    19    6.230000313988e-04
    20    1.943490511028e-03
    21   -3.602533914602e-03
    22    1.555215125872e-03
    23    1.367800885783e-03
    24   -3.452489222462e-02
    25   -3.279963831804e-04
    26    7.445518237957e-05
    27    1.036729243123e-03
    28   -3.305300613645e-02
    29   -4.488945142259e-02
    30    7.634130328718e-01
    31    5.098410938613e-02
    32    6.381966012075e-02
    33   -1.127358244019e+00
    34    2.133605989182e-03
    35   -6.527050501432e-02
    36    6.171359396230e-02
    37    7.047368076940e-03
    38    1.129680051716e-03
    39   -1.928910545302e-03
    40    3.995095142928e-03
    41   -1.496077936050e-03
    42   -3.005578902966e-03
    43    3.420303224953e-02
    44   -1.832350257301e-03
    45    8.975291945824e-04
    46   -8.734600761863e-04
    47   -2.231188896672e-03
    48    3.380766665807e-02
Sym=X
Ene= 0.862275
Spin=Alpha
Occup=0
     1    1.383120738962e-02
     2   -1.096419137223e+00
     3    1.485251876291e-01
     4    5.641397624727e-02
     5    1.023165492695e-02
     6    2.237946927500e-04
     7   -5.190832525722e-04
     8    1.999931889868e-03
     9   -4.068363923778e-01
    10   -4.291577910039e-01
    11   -4.566865868879e-02
    12    9.477342636095e-01
    13    9.989894842645e-01
    14    1.061719215126e-01
    15   -8.292228351520e-04
    16    1.133806512440e-02
    17   -1.348259955126e-02
    18    2.354056898280e-01
    19    9.435544111801e-03
    20   -1.370318983524e-02
    21    1.103572944885e+00
    22    5.034770793273e-02
    23    1.513930127210e-01
    24    1.139945609719e-02
    25   -1.436112279474e-04
    26    1.693342809560e-03
    27   -2.380591811509e-03
    28   -4.063820748253e-01
    29   -4.296727813695e-01
    30   -4.231273871135e-02
    31    9.466739189132e-01
    32    1.002662192313e+00
    33    9.883560200196e-02
    34    5.429000400443e-04
    35   -1.126208456638e-02
    36    1.366262210126e-02
    37   -2.364833062594e-01
    38   -1.018035857457e-02
    39    1.165657928592e-02
    40   -1.102209680536e+00
    41    4.892804788545e-02
    42    1.515349683121e-01
    43    1.134892376391e-02
    44   -1.148226137254e-02
    45    1.094842173136e+00
    46    1.487709000122e-01
    47    5.564392826414e-02
    48    9.697113666291e-03
Sym=X
Ene= 0.935970
Spin=Alpha
Occup=0
     1   -1.132240989602e-01
     2    1.278592626136e+00
     3   -1.810746526736e-01
     4    5.458223883086e-03
     5   -8.482278666099e-03
     6   -8.489047663009e-06
     7   -3.329353684917e-03
     8    3.988297311872e-04
     9    4.726670211018e-01
    10    4.994076402799e-01
    11    5.168584233332e-02
    12   -1.465309918622e+00
    13   -1.540742635326e+00
    14   -1.596577479907e-01
    15   -9.655623776226e-04
    16   -6.317502845899e-03
    17    6.801429466513e-03
    18   -1.202011632351e-01
    19   -2.176151317421e-03
    20    1.171806991643e-01
    21   -1.286962941223e+00
    22    1.154144497051e-02
    23   -1.829646928345e-01
    24   -1.009926772397e-02
    25    1.822656002426e-05
    26   -1.560373938149e-03
    27    2.363138789733e-03
    28   -4.748697390213e-01
    29   -4.975450169514e-01
    30   -5.056224231989e-02
    31    1.470863027496e+00
    32    1.532600964767e+00
    33    1.562878126004e-01
    34   -4.899245571348e-04
    35   -5.234893431306e-03
    36    7.046043594315e-03
    37   -1.208963537317e-01
    38   -4.830452858089e-03
    39    1.166761100320e-01
    40   -1.282270717334e+00
    41   -1.340638101569e-02
    42    1.821220178779e-01
    43    1.003943504571e-02
    44   -1.152846873703e-01
    45    1.286911874768e+00
    46    1.820073602501e-01
    47   -5.479549088070e-03
    48    7.787834894554e-03
Sym=X
Ene= 0.972477
Spin=Alpha
Occup=0
     1   -6.463009348812e-02
     2    9.284203168275e-01
     3   -9.130517306217e-02
     4   -9.858214143831e-02
     5   -1.007155453274e-02
     6    2.532738627466e-02
     7    2.545735178416e-01
     8    5.159233547537e-01
     9    4.817432157310e-01
    10   -4.541769442553e-01
    11   -3.599214079994e-03
    12   -1.497022700687e+00
    13    1.406445430162e+00
    14    1.092260018393e-02
    15   -5.377672225007e-02
    16   -1.261412994511e-02
    17   -9.531168189844e-03
    18    1.330027539484e-02
    19   -3.017339804397e-01
    20   -6.261931482467e-02
    21    9.092012357145e-01
    22    9.536980903257e-02
    23    9.299259708599e-02
    24    9.896358267693e-03
    25   -2.512283964280e-02
    26   -2.364043955702e-01
    27   -5.461001874097e-01
    28    4.774758670428e-01
    29   -4.551551543808e-01
    30   -6.103707924376e-03
    31   -1.482801235468e+00
    32    1.416948636179e+00
    33    1.838004408129e-02
    34    5.263427081993e-02
    35    1.236888718009e-02
    36    9.706777913058e-03
    37   -1.411687403941e-02
    38    2.988921157856e-01
    39    6.223486054538e-02
    40   -9.094435344602e-01
    41    9.416339769239e-02
    42    9.285973168929e-02
    43    1.017524779959e-02
    44    6.593954922654e-02
    45   -9.094056963175e-01
    46   -8.876295085276e-02
    47   -9.783849417528e-02
    48   -9.369328205523e-03
[5D]

======= END OF MOLDEN-FORMATTED INPUT FILE =======


        *************************************************************
        *                                                           *
        *  Thank you very much for using Q-Chem.  Have a nice day.  *
        *                                                           *
        *************************************************************


