                  Welcome to Q-Chem
     A Quantum Leap Into The Future Of Chemistry


 Q-Chem 5.4 (devel), Q-Chem, Inc., Pleasanton, CA (2021)

 E. Epifanovsky,  A. T. B. Gilbert,  Xintian Feng,  Joonho Lee,  Yuezhi Mao,  
 N. Mardirossian,  P. Pokhilko,  A. White,  M. Wormit,  M. P. Coons,  
 A. L. Dempwolff,  Zhengting Gan,  D. Hait,  P. R. Horn,  L. D. Jacobson,  
 I. Kaliman,  J. Kussmann,  A. W. Lange,  Ka Un Lao,  D. S. Levine,  Jie Liu,  
 S. C. McKenzie,  A. F. Morrison,  K. Nanda,  F. Plasser,  D. R. Rehn,  
 M. L. Vidal,  Zhi-Qiang You,  Ying Zhu,  B. Alam,  B. Albrecht,  
 A. Aldossary,  E. Alguire,  J. H. Andersen,  D. Barton,  K. Begam,  A. Behn,  
 Y. A. Bernard,  E. J. Berquist,  H. Burton,  A. Carreras,  K. Carter-Fenk,  
 R. Chakraborty,  A. D. Chien,  K. D. Closser,  V. Cofer-Shabica,  
 S. Dasgupta,  Jia Deng,  M. de Wergifosse,  M. Diedenhofen,  Hainam Do,  
 S. Ehlert,  Po-Tung Fang,  S. Fatehi,  Qingguo Feng,  T. Friedhoff,  
 J. Gayvert,  Qinghui Ge,  G. Gidofalvi,  M. Goldey,  J. Gomes,  
 C. Gonzalez-Espinoza,  S. Gulania,  A. Gunina,  M. W. D. Hanson-Heine,  
 P. H. P. Harbach,  A. W. Hauser,  M. F. Herbst,  M. Hernandez Vera,  
 M. Hodecker,  Z. C. Holden,  S. Houck,  Xunkun Huang,  Kerwin Hui,  
 B. C. Huynh,  M. Ivanov,  Hyunjun Ji,  Hanjie Jiang,  B. Kaduk,  S. Kaehler,  
 K. Khistyaev,  Jaehoon Kim,  P. Klunzinger,  Z. Koczor-Benda,  
 Joong Hoon Koh,  D. Kosenkov,  L. Koulias,  T. Kowalczyk,  C. M. Krauter,  
 K. Kue,  A. Kunitsa,  T. Kus,  A. Landau,  K. V. Lawler,  D. Lefrancois,  
 S. Lehtola,  Rain Li,  Yi-Pei Li,  Jiashu Liang,  M. Liebenthal,  
 Hung-Hsuan Lin,  You-Sheng Lin,  Fenglai Liu,  Kuan-Yu Liu,  
 M. Loipersberger,  A. Luenser,  A. Manjanath,  P. Manohar,  E. Mansoor,  
 S. F. Manzer,  Shan-Ping Mao,  A. V. Marenich,  T. Markovich,  S. Mason,  
 S. A. Maurer,  P. F. McLaughlin,  M. F. S. J. Menger,  J.-M. Mewes,  
 S. A. Mewes,  P. Morgante,  J. W. Mullinax,  K. J. Oosterbaan,  G. Paran,  
 Alexander C. Paul,  Suranjan K. Paul,  F. Pavosevic,  Zheng Pei,  S. Prager,  
 E. I. Proynov,  E. Ramos,  B. Rana,  A. E. Rask,  A. Rettig,  R. M. Richard,  
 F. Rob,  E. Rossomme,  T. Scheele,  M. Scheurer,  M. Schneider,  
 N. Sergueev,  S. M. Sharada,  W. Skomorowski,  D. W. Small,  C. J. Stein,  
 Yu-Chuan Su,  E. J. Sundstrom,  Zhen Tao,  J. Thirman,  T. Tsuchimochi,  
 N. M. Tubman,  S. P. Veccham,  O. Vydrov,  J. Wenzel,  J. Witte,  A. Yamada,  
 Kun Yao,  S. Yeganeh,  S. R. Yost,  A. Zech,  Igor Ying Zhang,  Xing Zhang,  
 Yu Zhang,  D. Zuev,  A. Aspuru-Guzik,  A. T. Bell,  N. A. Besley,  
 K. B. Bravaya,  B. R. Brooks,  D. Casanova,  Jeng-Da Chai,  S. Coriani,  
 C. J. Cramer,  A. E. DePrince, III,  R. A. DiStasio Jr.,  A. Dreuw,  
 B. D. Dunietz,  T. R. Furlani,  W. A. Goddard III,  S. Grimme,  
 S. Hammes-Schiffer,  T. Head-Gordon,  W. J. Hehre,  Chao-Ping Hsu,  
 T.-C. Jagau,  Yousung Jung,  A. Klamt,  Jing Kong,  D. S. Lambrecht,  
 WanZhen Liang,  N. J. Mayhall,  C. W. McCurdy,  J. B. Neaton,  
 C. Ochsenfeld,  J. A. Parkhill,  R. Peverati,  V. A. Rassolov,  Yihan Shao,  
 L. V. Slipchenko,  T. Stauch,  R. P. Steele,  J. E. Subotnik,  
 A. J. W. Thom,  A. Tkatchenko,  D. G. Truhlar,  T. Van Voorhis,  
 T. A. Wesolowski,  K. B. Whaley,  H. L. Woodcock III,  P. M. Zimmerman,  
 S. Faraji,  P. M. W. Gill,  M. Head-Gordon,  J. M. Herbert,  A. I. Krylov

 Additional authors for Version 5.4.1: 
 S. Kotaru,  Shaozhi Li,  Xiangyuan Li,  F. Matz,  A. Molle,  Haisheng Ren,  
 Yingli Su,  Hung-Yi Tsai,  C. Utku,  Fang Wang

 Contributors to earlier versions of Q-Chem not listed above: 
 R. D. Adamson,  B. Austin,  R. Baer,  J. Baker,  G. J. O. Beran,  
 K. Brandhorst,  S. T. Brown,  E. F. C. Byrd,  A. K. Chakraborty,  
 G. K. L. Chan,  Chun-Min Chang,  Yunqing Chen,  C.-L. Cheng,  
 Siu Hung Chien,  D. M. Chipman,  D. L. Crittenden,  H. Dachsel,  
 R. J. Doerksen,  A. D. Dutoi,  R. G. Edgar,  J. Fosso-Tande,  
 L. Fusti-Molnar,  D. Ghosh,  A. Ghysels,  A. Golubeva-Zadorozhnaya,  
 J. Gonthier,  M. S. Gordon,  S. R. Gwaltney,  G. Hawkins,  J. E. Herr,  
 A. Heyden,  S. Hirata,  E. G. Hohenstein,  G. Kedziora,  F. J. Keil,  
 C. Kelley,  Jihan Kim,  R. A. King,  R. Z. Khaliullin,  P. P. Korambath,  
 W. Kurlancheek,  A. Laurent,  A. M. Lee,  M. S. Lee,  S. V. Levchenko,  
 Ching Yeh Lin,  D. Liotard,  E. Livshits,  R. C. Lochan,  I. Lotan,  
 L. A. Martinez-Martinez,  P. E. Maslen,  N. Nair,  D. P. O'Neill,  
 D. Neuhauser,  E. Neuscamman,  C. M. Oana,  R. Olivares-Amaya,  R. Olson,  
 T. M. Perrine,  B. Peters,  P. A. Pieniazek,  A. Prociuk,  Y. M. Rhee,  
 J. Ritchie,  M. A. Rohrdanz,  E. Rosta,  N. J. Russ,  H. F. Schaefer III,  
 M. W. Schmidt,  N. E. Schultz,  S. Sharma,  N. Shenvi,  C. D. Sherrill,  
 A. C. Simmonett,  A. Sodt,  T. Stein,  D. Stuck,  K. S. Thanthiriwatte,  
 V. Vanovschi,  L. Vogt,  Tao Wang,  A. Warshel,  M. A. Watson,  
 C. F. Williams,  Q. Wu,  X. Xu,  Jun Yang,  W. Zhang,  Yan Zhao

 Please cite Q-Chem as follows:
 Y. Shao et al., Mol. Phys. 113, 184-215 (2015)
 DOI: 10.1080/00268976.2014.952696

 Q-Chem 5.4.1 for Intel X86 EM64T Linux

 Parts of Q-Chem use Armadillo 9.800.1 (Horizon Scraper).
 http://arma.sourceforge.net/

 Q-Chem begins on Tue Mar 21 11:41:27 2023  

 Host: cpu186.baobab
0

     Scratch files written to /scratch/fum/qchem61904//
 Processing $rem in /home/share/wesolowski/qc5.aug2021.FDE/config/preferences:
 Processing $rem in /home/fum/.qchemrc:

 Checking the input file for inconsistencies... 	...done.

--------------------------------------------------------------
User input:
--------------------------------------------------------------
$comment
generated from CCJob.Templates
$end

$rem
sym_ignore = true
method = adc(2)
ee_states = 10
basis = cc-pVDZ
mem_static = 1024
mem_total = 40000
adc_davidson_maxiter = 900
adc_davidson_conv = 6
adc_print = 3
adc_prop_es = true
adc_prop_es2es = true
adc_prop_tpa = true
molden_format = True
state_analysis = true
print_orbitals = 15
gen_scfman = false
fde_export_density = true
fde_details = 3
$end

$molecule
0 1
H -0.02164453556549754 -0.24706006987051596 0.06696640064972195
C -1.0778653788162358 -0.5243602073207184 -0.0034310280224497604
H -1.3012633366784232 -1.5931608241579494 -0.07584703115360528
C -2.0447136648162814 0.3939016783792137 0.00553809627891337
H -1.8215690478783935 1.462358681342124 0.08377514334513907
H -3.1012321630654807 0.11632830342955758 -0.05895840865152381                     
$end
--------------------------------------------------------------
 ----------------------------------------------------------------
             Standard Nuclear Orientation (Angstroms)
    I     Atom           X                Y                Z
 ----------------------------------------------------------------
    1      H      -0.0216445356    -0.2470600699     0.0669664006
    2      C      -1.0778653788    -0.5243602073    -0.0034310280
    3      H      -1.3012633367    -1.5931608242    -0.0758470312
    4      C      -2.0447136648     0.3939016784     0.0055380963
    5      H      -1.8215690479     1.4623586813     0.0837751433
    6      H      -3.1012321631     0.1163283034    -0.0589584087
 ----------------------------------------------------------------
 Nuclear Repulsion Energy =          33.20990503 hartrees
 There are        8 alpha and        8 beta electrons
 Requested basis set is cc-pVDZ
 There are 24 shells and 48 basis functions
 Total memory of 40000 MB is distributed as follows: 
   MEM_STATIC is set to 1024 MB
   QALLOC/CCMAN JOB total memory use is  38976 MB
 Warning: actual memory use might exceed 40000 MB

 Total QAlloc Memory Limit  40000 MB
 Mega-Array Size      1001 MB
 MEM_STATIC part      1024 MB

                       Distance Matrix (Angstroms)
             H (  1)   C (  2)   H (  3)   C (  4)   H (  5)
   C (  2)  1.094282
   H (  3)  1.862742  1.094297
   C (  4)  2.123067  1.333447  2.123148
   H (  5)  2.482362  2.123147  3.103610  1.094310
   H (  6)  3.103509  2.123106  2.482444  1.094275  1.862715

 A cutoff of  1.0D-11 yielded    300 shell pairs
 There are      1220 function pairs (      1329 Cartesian)
 Smallest overlap matrix eigenvalue = 4.81E-03

 Scale SEOQF with 1.000000e-01/1.000000e-01/1.000000e+00

 Standard Electronic Orientation quadrupole field applied
 Nucleus-field energy     =     0.0000000022 hartrees
 Guess from superposition of atomic densities
 Warning:  Energy on first SCF cycle will be non-variational
 SAD guess density has 16.000000 electrons
 A restricted Hartree-Fock SCF calculation will be
 performed using Pulay DIIS extrapolation
 SCF converges when DIIS error is below 1.0E-08
 using 10 threads for integral computing
 -------------------------------------------------------
 OpenMP Integral computing Module                
 Release: version 1.0, May 2013, Q-Chem Inc. Pittsburgh 
 -------------------------------------------------------
 ---------------------------------------
  Cycle       Energy         DIIS Error
 ---------------------------------------
    1     -78.3977721463      9.93E-02
    2     -78.0175879411      7.13E-03
    3     -78.0380539182      1.83E-03
    4     -78.0395300438      5.64E-04
    5     -78.0396476593      5.81E-05
    6     -78.0396495228      9.29E-06
    7     -78.0396495841      1.95E-06
    8     -78.0396495869      1.67E-07
    9     -78.0396495869      1.73E-08
   10     -78.0396495869      3.59E-09 Convergence criterion met
 ---------------------------------------
 SCF time:  CPU 1.89 s  wall 2.54 s
 SCF   energy in the final basis set = -78.03964959
 Total energy in the final basis set = -78.03964959
Exporting Density Matrix to file 'Densmat_SCF.txt'.
Export successful
================================================================================
|                                                                              |
|                                 A D C  M A N                                 |
|                                                                              |
 ------------------------------------------------------------------------------ 
|                                                                              |
| Components:                                                                  |
|                                                                              |
| - libvmm - 1.3-trunk                                                         |
|   Authors:                                                                   |
|   Evgeny Epifanovsky, Ilya Kaliman                                           |
|                                                                              |
| - libtensor - 2.5-trunk                                                      |
|   Authors:                                                                   |
|   Evgeny Epifanovsky, Michael Wormit, Dmitry Zuev, Sam Manzer,               |
|   Ilya Kaliman                                                               |
|                                                                              |
| - libwfa - 1.1-trunk                                                         |
|   Authors:                                                                   |
|   Felix Plasser, Stefanie Mewes (Baeppler), Benjamin Thomitzni,              |
|   Michael Wormit, Feng Chen, Anna I. Krylov, Pavel Pokhilko                  |
|                                                                              |
| - libadc - 1.1-trunk                                                         |
|   Authors:                                                                   |
|   Michael Wormit, Adrian L. Dempwolff, Philipp H. P. Harbach,                |
|   Caroline Krauter, Dirk Rehn, Matthias Schneider, Jan Wenzel                |
|                                                                              |
| - adcman - 2.6-trunk                                                         |
|   Authors:                                                                   |
|   Michael Wormit, Adrian L. Dempwolff, Philipp H. P. Harbach,                |
|   Caroline Krauter, Daniel Lefrancois, Jan-Michael Mewes, Dirk Rehn,         |
|   Matthias Schneider, Jan Wenzel, Andreas Dreuw                              |
|                                                                              |
| Authors of earlier versions of ADCMAN:                                       |
| Andreas Dreuw, Jan Hendrik Starcke, Dirk Rehn, Michael Wormit                |
|                                                                              |
================================================================================

 Created directory /scratch/fum/qchem61904/plots
  Import QC data ...  CPU 0.00 s  wall 0.00 s

 Alpha MOs, Restricted
 -- Occupied --                  
-11.239 -11.237  -1.030  -0.786  -0.635  -0.582  -0.500  -0.374
  1 A     2 A     3 A     4 A     5 A     6 A     7 A     8 A                  
 -- Virtual --                   
  0.168   0.203   0.231   0.236   0.303   0.463   0.580   0.609
  9 A    10 A    11 A    12 A    13 A    14 A    15 A    16 A                  
  0.689   0.705   0.776   0.807   0.858   0.928   0.971   1.006
 17 A    18 A    19 A    20 A    21 A    22 A    23 A    24 A                  
  1.130   1.237   1.241   1.263   1.291   1.593   1.728   1.744
 25 A    26 A    27 A    28 A    29 A    30 A    31 A    32 A                  
  1.811   1.852   1.854   1.901   1.963   1.972   2.224   2.248
 33 A    34 A    35 A    36 A    37 A    38 A    39 A    40 A                  
  2.355   2.423   2.493   2.623   2.679   2.795   3.099   3.369
 41 A    42 A    43 A    44 A    45 A    46 A    47 A    48 A                  

 Beta MOs, Restricted
 -- Occupied --                  
-11.239 -11.237  -1.030  -0.786  -0.635  -0.582  -0.500  -0.374
  1 A     2 A     3 A     4 A     5 A     6 A     7 A     8 A                  
 -- Virtual --                   
  0.168   0.203   0.231   0.236   0.303   0.463   0.580   0.609
  9 A    10 A    11 A    12 A    13 A    14 A    15 A    16 A                  
  0.689   0.705   0.776   0.807   0.858   0.928   0.971   1.006
 17 A    18 A    19 A    20 A    21 A    22 A    23 A    24 A                  
  1.130   1.237   1.241   1.263   1.291   1.593   1.728   1.744
 25 A    26 A    27 A    28 A    29 A    30 A    31 A    32 A                  
  1.811   1.852   1.854   1.901   1.963   1.972   2.224   2.248
 33 A    34 A    35 A    36 A    37 A    38 A    39 A    40 A                  
  2.355   2.423   2.493   2.623   2.679   2.795   3.099   3.369
 41 A    42 A    43 A    44 A    45 A    46 A    47 A    48 A                  
  Import AO data ...  CPU 0.00 s  wall 0.01 s
  Using point group: C1
  Irreducible representations in point group: A
  Molecular orbitals: 
  Occupied MOs:
  Block   0:   1 (  A) A   2 (  A) A   3 (  A) A   4 (  A) A   5 (  A) A
                  -11.24      -11.24       -1.03     -0.7859      -0.635
               6 (  A) A   7 (  A) A   8 (  A) A
                 -0.5823     -0.4995     -0.3744
  Block   1:   1 (  A) B   2 (  A) B   3 (  A) B   4 (  A) B   5 (  A) B
                  -11.24      -11.24       -1.03     -0.7859      -0.635
               6 (  A) B   7 (  A) B   8 (  A) B
                 -0.5823     -0.4995     -0.3744
  Virtual MOs:
  Block   0:   9 (  A) A  10 (  A) A  11 (  A) A  12 (  A) A  13 (  A) A
                  0.1679      0.2026       0.231      0.2364       0.303
              14 (  A) A  15 (  A) A  16 (  A) A  17 (  A) A  18 (  A) A
                  0.4628      0.5798      0.6089      0.6887      0.7048
              19 (  A) A  20 (  A) A  21 (  A) A  22 (  A) A
                  0.7757      0.8074      0.8584       0.928
  Block   1:  23 (  A) A  24 (  A) A  25 (  A) A  26 (  A) A  27 (  A) A
                  0.9706       1.006        1.13       1.237       1.241
              28 (  A) A  29 (  A) A  30 (  A) A  31 (  A) A  32 (  A) A
                   1.263       1.291       1.593       1.728       1.744
              33 (  A) A  34 (  A) A  35 (  A) A  36 (  A) A
                   1.811       1.852       1.854       1.901
  Block   2:  37 (  A) A  38 (  A) A  39 (  A) A  40 (  A) A  41 (  A) A
                   1.963       1.972       2.224       2.248       2.355
              42 (  A) A  43 (  A) A  44 (  A) A  45 (  A) A  46 (  A) A
                   2.423       2.493       2.623       2.679       2.795
              47 (  A) A  48 (  A) A
                   3.099       3.369
  Block   3:   9 (  A) B  10 (  A) B  11 (  A) B  12 (  A) B  13 (  A) B
                  0.1679      0.2026       0.231      0.2364       0.303
              14 (  A) B  15 (  A) B  16 (  A) B  17 (  A) B  18 (  A) B
                  0.4628      0.5798      0.6089      0.6887      0.7048
              19 (  A) B  20 (  A) B  21 (  A) B  22 (  A) B
                  0.7757      0.8074      0.8584       0.928
  Block   4:  23 (  A) B  24 (  A) B  25 (  A) B  26 (  A) B  27 (  A) B
                  0.9706       1.006        1.13       1.237       1.241
              28 (  A) B  29 (  A) B  30 (  A) B  31 (  A) B  32 (  A) B
                   1.263       1.291       1.593       1.728       1.744
              33 (  A) B  34 (  A) B  35 (  A) B  36 (  A) B
                   1.811       1.852       1.854       1.901
  Block   5:  37 (  A) B  38 (  A) B  39 (  A) B  40 (  A) B  41 (  A) B
                   1.963       1.972       2.224       2.248       2.355
              42 (  A) B  43 (  A) B  44 (  A) B  45 (  A) B  46 (  A) B
                   2.423       2.493       2.623       2.679       2.795
              47 (  A) B  48 (  A) B
                   3.099       3.369
  Import MO data ...  CPU 0.22 s  wall 0.06 s
  Import HF data ...  CPU 0.68 s  wall 0.20 s
  Import 2e integrals ...  CPU 1.18 s  wall 0.21 s

--------------------------------------------------------------------------------
                                   HF Summary                                   
--------------------------------------------------------------------------------
  Energy:                                                  -78.0396495869 a.u.
  Dip. moment [a.u.]:                  [  -0.000158,   -0.000192,    0.003207]
  Total dipole [Debye]:                                               0.008175
  <r^2> [a.u.]:                        [ 175.819880,   35.297268,   11.680377]
  Total <r^2> [a.u.]:                                               222.797525
--------------------------------------------------------------------------------
  HF properties ...  CPU 0.03 s  wall 0.02 s
  MP(1) calculation ...  CPU 0.01 s  wall 0.01 s
  N^6 prerequesite intermediates ...  CPU 0.64 s  wall 0.11 s
  Difference density matrix of state mp2_gs printed to ASCII file 'State_mp2_gs_Difference.txt'
Exporting MP density matrix to file 'Densmat_MP.txt'.
Export successful
  Total density matrix of state mp2_gs printed to ASCII file 'State_mp2_gs_Total.txt'
Exporting MP density matrix to file 'Densmat_MP.txt'.
Export successful

--------------------------------------------------------------------------------
                                 MP(2) Summary                                  
--------------------------------------------------------------------------------
  MP energy contribution:                                   -0.2804889910 a.u.
  Total energy:                                            -78.3201385779 a.u.
  Dip. moment [a.u.]:                  [  -0.000155,   -0.000189,    0.003166]
  Total dipole [Debye]:                                               0.008071
  <r^2> [a.u.]:                        [ 175.860136,   35.333075,   11.507957]
  Total <r^2> [a.u.]:                                               222.701168

  Density matrix analysis:
  ------------------------
  NOs
    Occupation of frontier NOs:
       0.0455   1.9380
    Number of electrons: 16.000000
    Number of unpaired electrons: n_u =  0.40725, n_u,nl =  0.04580
    NO participation ratio (PR_NO): 13.896566
  
  
  Mulliken Population Analysis
  Atom      Charge (e)              h+              e-           Del q
  --------------------------------------------------------------------
   1 H        0.054970        0.013907       -0.011309        0.002598
   2 C       -0.109943        0.094595       -0.099790       -0.005195
   3 H        0.054979        0.013906       -0.011309        0.002597
   4 C       -0.109953        0.094594       -0.099790       -0.005196
   5 H        0.054978        0.013907       -0.011309        0.002598
   6 H        0.054969        0.013907       -0.011309        0.002598
  --------------------------------------------------------------------
  Sum:        0.000000        0.244816       -0.244816        0.000000
  
  Multipole moment analysis of the density matrix
    Molecular charge:                      0.000000
    Number of electrons:                   16.000000
      Center of electronic charge [Ang]: [ -1.561319,  -0.065262,   0.001681]
    Total nuclear charge:                  16.000000
      Center of nuclear charge [Ang]:    [ -1.561324,  -0.065268,   0.001786]
    Dipole moment [D]:                     0.008071
      Cartesian components [D]:          [ -0.000393,  -0.000479,   0.008047]
    RMS size of the density [Ang]:         1.206519
      Cartesian components [Ang]:        [  0.800093,   0.783666,   0.448784]
  
  Exciton analysis of the difference density matrix
    <r_h> [Ang]:                  [ -1.561292,  -0.065229,   0.001173]
    <r_e> [Ang]:                  [ -1.561300,  -0.065236,   0.001261]
    |<r_e - r_h>| [Ang]:            0.000089
    Hole size [Ang]:                1.401655
      Cartesian components [Ang]: [  0.853003,   0.840244,   0.728706]
    Electron size [Ang]:            1.361762
      Cartesian components [Ang]: [  0.879567,   0.864272,   0.577748]
--------------------------------------------------------------------------------
  MP(2) calculation ...  CPU 0.30 s  wall 0.22 s
  Start ADC(2)-s ...  CPU 0.02 s  wall 0.01 s
  ADC(2) intermediates ...  CPU 0.12 s  wall 0.03 s
  Starting Davidson for singlet states of irrep A ... 
--------------------------------------------------------------------------------
   It NVec Conv  Avg. Norm  Max. Norm  Conv. states           Remark
--------------------------------------------------------------------------------
        10    0  1.329e-01  4.687e-01  0.4117 n n n n n n n n Guess.
    1   20    0  2.312e-02  1.125e-01  0.3261 n n n n n n n n 
    2   30    0  5.846e-03  2.461e-02  0.3213 n n n n n n n n 
    3   40    0  1.752e-03  1.049e-02  0.3209 n n n n n n n n 
    4   50    0  4.968e-04  3.451e-03  0.3209 n n n n n n n n 
    5   20    0  2.541e-04  1.660e-03  0.3209 n n n n n n n n Subspace collapsed.
    6   30    0  1.086e-04  7.731e-04  0.3209 n n n n n n n n 
    7   40    0  5.397e-05  3.783e-04  0.3209 n n n n n n n n 
    8   50    0  4.253e-05  3.191e-04  0.3209 n n n n n n n n 
    9   20    0  3.634e-05  2.897e-04  0.3209 n n n n n n n n Subspace collapsed.
   10   30    3  1.924e-05  1.410e-04  0.3209 n n y n y y n n 
   11   40    5  8.097e-06  6.492e-05  0.3209 y n y y y y n n 
   12   50    6  4.471e-06  3.826e-05  0.3209 y y y y y y n n 
   13   20    6  2.170e-06  1.805e-05  0.3209 y y y y y y n n Subspace collapsed.
   14   30    6  1.677e-06  1.256e-05  0.3209 y y y y y y n n 
   15   40    7  8.493e-07  6.441e-06  0.3209 y y y y y y n y 
   16   50    8  5.261e-07  4.790e-06  0.3209 y y y y y y n y 
   17   20    9  2.723e-07  2.518e-06  0.3209 y y y y y y y y Subspace collapsed.
   18   30    9  2.634e-07  2.317e-06  0.3209 y y y y y y y y 
   19   40    9  2.195e-07  2.006e-06  0.3209 y y y y y y y y 
   20   50    9  1.111e-07  1.055e-06  0.3209 y y y y y y y y 
   21   20   10  7.150e-08  6.769e-07  0.3209 y y y y y y y y Converged.
--------------------------------------------------------------------------------
  Davidson Summary: 
 ------------------------------------------------------------
  State  0: excitation energy =   0.3209 a.u.   (converged)
  State  1: excitation energy =   0.3290 a.u.   (converged)
  State  2: excitation energy =   0.3359 a.u.   (converged)
  State  3: excitation energy =   0.3579 a.u.   (converged)
  State  4: excitation energy =   0.3733 a.u.   (converged)
  State  5: excitation energy =   0.3866 a.u.   (converged)
  State  6: excitation energy =   0.4202 a.u.   (converged)
  State  7: excitation energy =   0.4435 a.u.   (converged)
  State  8: excitation energy =   0.4537 a.u.   (converged)
  State  9: excitation energy =   0.4585 a.u.   (converged)
 ------------------------------------------------------------

  Singlet states of irrep A ...  CPU 153.59 s  wall 49.38 s
  TDMs ...  CPU 2.34 s  wall 0.88 s
  SDMs ...  CPU 4.69 s  wall 1.45 s
  Starting TPA DIIS iterations ... 
------------------------------------ 
   It     Res. Norm  Remark
------------------------------------
                       Guess.
    1     4.397e+00  
    2     5.834e+00  
    3     1.086e+00  
    4     2.634e-01  
    5     6.571e-02  
    6     2.778e-02  
    7     8.477e-03  
    8     1.553e-03  
    9     5.833e-04  
   10     9.784e-05  
   11     3.171e-05  
   12     4.927e-06  
   13     1.702e-06  
   14     4.868e-07  Converged.
   ... Converged in 14 steps (norm: 4.86846e-07)
------------------------------------
  Starting TPA DIIS iterations ... 
------------------------------------ 
   It     Res. Norm  Remark
------------------------------------
                       Guess.
    1     4.187e+00  
    2     5.545e+00  
    3     1.037e+00  
    4     2.615e-01  
    5     6.545e-02  
    6     2.778e-02  
    7     8.334e-03  
    8     1.572e-03  
    9     5.922e-04  
   10     9.735e-05  
   11     3.201e-05  
   12     4.885e-06  
   13     1.738e-06  
   14     4.791e-07  Converged.
   ... Converged in 14 steps (norm: 4.79056e-07)
------------------------------------
  Starting TPA DIIS iterations ... 
------------------------------------ 
   It     Res. Norm  Remark
------------------------------------
                       Guess.
    1     6.855e-01  
    2     4.794e-01  
    3     1.687e-01  
    4     6.345e-02  
    5     1.873e-02  
    6     6.690e-03  
    7     1.073e-03  
    8     4.586e-04  
    9     1.263e-04  
   10     3.102e-05  
   11     5.066e-06  
   12     1.796e-06  
   13     8.612e-07  Converged.
   ... Converged in 13 steps (norm: 8.61211e-07)
------------------------------------
  Starting TPA DIIS iterations ... 
------------------------------------ 
   It     Res. Norm  Remark
------------------------------------
                       Guess.
    1     4.593e+00  
    2     6.185e+00  
    3     1.142e+00  
    4     2.833e-01  
    5     7.139e-02  
    6     3.038e-02  
    7     9.259e-03  
    8     1.694e-03  
    9     6.399e-04  
   10     1.078e-04  
   11     3.518e-05  
   12     5.500e-06  
   13     1.916e-06  
   14     5.448e-07  Converged.
   ... Converged in 14 steps (norm: 5.44843e-07)
------------------------------------
  Starting TPA DIIS iterations ... 
------------------------------------ 
   It     Res. Norm  Remark
------------------------------------
                       Guess.
    1     4.373e+00  
    2     5.879e+00  
    3     1.090e+00  
    4     2.811e-01  
    5     7.111e-02  
    6     3.039e-02  
    7     9.104e-03  
    8     1.717e-03  
    9     6.500e-04  
   10     1.072e-04  
   11     3.550e-05  
   12     5.451e-06  
   13     1.958e-06  
   14     5.356e-07  Converged.
   ... Converged in 14 steps (norm: 5.35613e-07)
------------------------------------
  Starting TPA DIIS iterations ... 
------------------------------------ 
   It     Res. Norm  Remark
------------------------------------
                       Guess.
    1     6.938e-01  
    2     4.912e-01  
    3     1.753e-01  
    4     6.913e-02  
    5     1.971e-02  
    6     7.109e-03  
    7     1.165e-03  
    8     5.140e-04  
    9     1.439e-04  
   10     3.439e-05  
   11     5.517e-06  
   12     2.011e-06  
   13     1.001e-06  
   14     3.700e-07  Converged.
   ... Converged in 14 steps (norm: 3.70048e-07)
------------------------------------
  Starting TPA DIIS iterations ... 
------------------------------------ 
   It     Res. Norm  Remark
------------------------------------
                       Guess.
    1     4.773e+00  
    2     6.512e+00  
    3     1.193e+00  
    4     3.022e-01  
    5     7.675e-02  
    6     3.285e-02  
    7     9.998e-03  
    8     1.829e-03  
    9     6.937e-04  
   10     1.172e-04  
   11     3.851e-05  
   12     6.052e-06  
   13     2.125e-06  
   14     6.008e-07  Converged.
   ... Converged in 14 steps (norm: 6.00766e-07)
------------------------------------
  Starting TPA DIIS iterations ... 
------------------------------------ 
   It     Res. Norm  Remark
------------------------------------
                       Guess.
    1     4.544e+00  
    2     6.189e+00  
    3     1.138e+00  
    4     2.997e-01  
    5     7.645e-02  
    6     3.288e-02  
    7     9.832e-03  
    8     1.854e-03  
    9     7.048e-04  
   10     1.166e-04  
   11     3.885e-05  
   12     5.995e-06  
   13     2.174e-06  
   14     5.901e-07  Converged.
   ... Converged in 14 steps (norm: 5.9013e-07)
------------------------------------
  Starting TPA DIIS iterations ... 
------------------------------------ 
   It     Res. Norm  Remark
------------------------------------
                       Guess.
    1     7.011e-01  
    2     5.018e-01  
    3     1.813e-01  
    4     7.458e-02  
    5     2.059e-02  
    6     7.505e-03  
    7     1.254e-03  
    8     5.683e-04  
    9     1.613e-04  
   10     3.715e-05  
   11     5.936e-06  
   12     2.221e-06  
   13     1.142e-06  
   14     4.145e-07  Converged.
   ... Converged in 14 steps (norm: 4.14457e-07)
------------------------------------
  Starting TPA DIIS iterations ... 
------------------------------------ 
   It     Res. Norm  Remark
------------------------------------
                       Guess.
    1     5.423e+00  
    2     7.722e+00  
    3     1.377e+00  
    4     3.744e-01  
    5     9.727e-02  
    6     4.241e-02  
    7     1.283e-02  
    8     2.342e-03  
    9     9.015e-04  
   10     1.538e-04  
   11     5.167e-05  
   12     8.242e-06  
   13     2.983e-06  
   14     8.247e-07  Converged.
   ... Converged in 14 steps (norm: 8.24654e-07)
------------------------------------
  Starting TPA DIIS iterations ... 
------------------------------------ 
   It     Res. Norm  Remark
------------------------------------
                       Guess.
    1     5.161e+00  
    2     7.338e+00  
    3     1.313e+00  
    4     3.706e-01  
    5     9.691e-02  
    6     4.249e-02  
    7     1.262e-02  
    8     2.378e-03  
    9     9.168e-04  
   10     1.530e-04  
   11     5.206e-05  
   12     8.147e-06  
   13     3.061e-06  
   14     8.086e-07  Converged.
   ... Converged in 14 steps (norm: 8.08616e-07)
------------------------------------
  Starting TPA DIIS iterations ... 
------------------------------------ 
   It     Res. Norm  Remark
------------------------------------
                       Guess.
    1     7.252e-01  
    2     5.380e-01  
    3     2.026e-01  
    4     9.597e-02  
    5     2.377e-02  
    6     9.019e-03  
    7     1.605e-03  
    8     7.862e-04  
    9     2.296e-04  
   10     4.407e-05  
   11     7.510e-06  
   12     3.069e-06  
   13     1.762e-06  
   14     5.933e-07  Converged.
   ... Converged in 14 steps (norm: 5.93265e-07)
------------------------------------
  Starting TPA DIIS iterations ... 
------------------------------------ 
   It     Res. Norm  Remark
------------------------------------
                       Guess.
    1     5.973e+00  
    2     8.780e+00  
    3     1.531e+00  
    4     4.401e-01  
    5     1.159e-01  
    6     5.122e-02  
    7     1.541e-02  
    8     2.807e-03  
    9     1.093e-03  
   10     1.875e-04  
   11     6.407e-05  
   12     1.031e-05  
   13     3.834e-06  
   14     1.042e-06  
   15     4.536e-07  Converged.
   ... Converged in 15 steps (norm: 4.53587e-07)
------------------------------------
  Starting TPA DIIS iterations ... 
------------------------------------ 
   It     Res. Norm  Remark
------------------------------------
                       Guess.
    1     5.683e+00  
    2     8.342e+00  
    3     1.460e+00  
    4     4.350e-01  
    5     1.155e-01  
    6     5.136e-02  
    7     1.517e-02  
    8     2.855e-03  
    9     1.112e-03  
   10     1.866e-04  
   11     6.448e-05  
   12     1.018e-05  
   13     3.943e-06  
   14     1.022e-06  
   15     4.826e-07  Converged.
   ... Converged in 15 steps (norm: 4.82581e-07)
------------------------------------
  Starting TPA DIIS iterations ... 
------------------------------------ 
   It     Res. Norm  Remark
------------------------------------
                       Guess.
    1     7.432e-01  
    2     5.666e-01  
    3     2.199e-01  
    4     1.160e-01  
    5     2.649e-02  
    6     1.040e-02  
    7     1.942e-03  
    8     9.856e-04  
    9     2.904e-04  
   10     4.682e-05  
   11     8.934e-06  
   12     3.881e-06  
   13     2.413e-06  
   14     7.636e-07  Converged.
   ... Converged in 14 steps (norm: 7.63566e-07)
------------------------------------
  Starting TPA DIIS iterations ... 
------------------------------------ 
   It     Res. Norm  Remark
------------------------------------
                       Guess.
    1     6.524e+00  
    2     9.870e+00  
    3     1.685e+00  
    4     5.097e-01  
    5     1.357e-01  
    6     6.066e-02  
    7     1.815e-02  
    8     3.300e-03  
    9     1.298e-03  
   10     2.236e-04  
   11     7.751e-05  
   12     1.256e-05  
   13     4.798e-06  
   14     1.290e-06  
   15     5.955e-07  Converged.
   ... Converged in 15 steps (norm: 5.95456e-07)
------------------------------------
  Starting TPA DIIS iterations ... 
------------------------------------ 
   It     Res. Norm  Remark
------------------------------------
                       Guess.
    1     6.206e+00  
    2     9.377e+00  
    3     1.606e+00  
    4     5.032e-01  
    5     1.352e-01  
    6     6.087e-02  
    7     1.787e-02  
    8     3.360e-03  
    9     1.321e-03  
   10     2.226e-04  
   11     7.792e-05  
   12     1.238e-05  
   13     4.945e-06  
   14     1.267e-06  
   15     6.393e-07  Converged.
   ... Converged in 15 steps (norm: 6.39253e-07)
------------------------------------
  Starting TPA DIIS iterations ... 
------------------------------------ 
   It     Res. Norm  Remark
------------------------------------
                       Guess.
    1     7.594e-01  
    2     5.938e-01  
    3     2.368e-01  
    4     1.375e-01  
    5     2.929e-02  
    6     1.187e-02  
    7     2.315e-03  
    8     1.185e-03  
    9     3.509e-04  
   10     4.819e-05  
   11     1.047e-05  
   12     4.761e-06  
   13     3.168e-06  
   14     9.487e-07  Converged.
   ... Converged in 14 steps (norm: 9.48728e-07)
------------------------------------
  Starting TPA DIIS iterations ... 
------------------------------------ 
   It     Res. Norm  Remark
------------------------------------
                       Guess.
    1     8.345e+00  
    2     1.366e+01  
    3     2.186e+00  
    4     7.632e-01  
    5     2.077e-01  
    6     9.573e-02  
    7     2.814e-02  
    8     5.091e-03  
    9     2.057e-03  
   10     3.570e-04  
   11     1.274e-04  
   12     2.106e-05  
   13     8.723e-06  
   14     2.359e-06  
   15     1.235e-06  
   16     3.962e-07  Converged.
   ... Converged in 16 steps (norm: 3.96195e-07)
------------------------------------
  Starting TPA DIIS iterations ... 
------------------------------------ 
   It     Res. Norm  Remark
------------------------------------
                       Guess.
    1     7.934e+00  
    2     1.298e+01  
    3     2.081e+00  
    4     7.505e-01  
    5     2.071e-01  
    6     9.625e-02  
    7     2.771e-02  
    8     5.199e-03  
    9     2.095e-03  
   10     3.553e-04  
   11     1.277e-04  
   12     2.064e-05  
   13     9.057e-06  
   14     2.363e-06  
   15     1.365e-06  
   16     4.924e-07  Converged.
   ... Converged in 16 steps (norm: 4.9239e-07)
------------------------------------
  Starting TPA DIIS iterations ... 
------------------------------------ 
   It     Res. Norm  Remark
------------------------------------
                       Guess.
    1     8.039e-01  
    2     6.749e-01  
    3     2.896e-01  
    4     2.156e-01  
    5     3.916e-02  
    6     1.722e-02  
    7     3.777e-03  
    8     1.729e-03  
    9     5.362e-04  
   10     5.535e-05  
   11     1.639e-05  
   12     7.946e-06  
   13     6.206e-06  
   14     1.642e-06  
   15     5.979e-07  Converged.
   ... Converged in 15 steps (norm: 5.97937e-07)
------------------------------------
  Starting TPA DIIS iterations ... 
------------------------------------ 
   It     Res. Norm  Remark
------------------------------------
                       Guess.
    1     1.014e+01  
    2     1.767e+01  
    3     2.668e+00  
    4     1.041e+00  
    5     2.873e-01  
    6     1.355e-01  
    7     3.920e-02  
    8     7.067e-03  
    9     2.914e-03  
   10     5.065e-04  
   11     1.818e-04  
   12     3.095e-05  
   13     1.366e-05  
   14     3.855e-06  
   15     2.187e-06  
   16     8.049e-07  Converged.
   ... Converged in 16 steps (norm: 8.04897e-07)
------------------------------------
  Starting TPA DIIS iterations ... 
------------------------------------ 
   It     Res. Norm  Remark
------------------------------------
                       Guess.
    1     9.641e+00  
    2     1.678e+01  
    3     2.539e+00  
    4     1.021e+00  
    5     2.865e-01  
    6     1.364e-01  
    7     3.862e-02  
    8     7.233e-03  
    9     2.969e-03  
   10     5.038e-04  
   11     1.821e-04  
   12     3.020e-05  
   13     1.429e-05  
   14     3.990e-06  
   15     2.474e-06  
   16     1.027e-06  
   17     6.646e-07  Converged.
   ... Converged in 17 steps (norm: 6.64569e-07)
------------------------------------
  Starting TPA DIIS iterations ... 
------------------------------------ 
   It     Res. Norm  Remark
------------------------------------
                       Guess.
    1     8.385e-01  
    2     7.458e-01  
    3     3.381e-01  
    4     2.958e-01  
    5     4.969e-02  
    6     2.291e-02  
    7     5.483e-03  
    8     2.029e-03  
    9     6.994e-04  
   10     7.193e-05  
   11     2.333e-05  
   12     1.123e-05  
   13     9.662e-06  
   14     2.418e-06  
   15     8.083e-07  Converged.
   ... Converged in 15 steps (norm: 8.08282e-07)
------------------------------------
  Starting TPA DIIS iterations ... 
------------------------------------ 
   It     Res. Norm  Remark
------------------------------------
                       Guess.
    1     1.114e+01  
    2     1.998e+01  
    3     2.929e+00  
    4     1.204e+00  
    5     3.343e-01  
    6     1.593e-01  
    7     4.573e-02  
    8     8.232e-03  
    9     3.425e-03  
   10     5.950e-04  
   11     2.134e-04  
   12     3.708e-05  
   13     1.683e-05  
   14     4.880e-06  
   15     2.900e-06  
   16     1.108e-06  
   17     7.058e-07  Converged.
   ... Converged in 17 steps (norm: 7.0584e-07)
------------------------------------
  Starting TPA DIIS iterations ... 
------------------------------------ 
   It     Res. Norm  Remark
------------------------------------
                       Guess.
    1     1.058e+01  
    2     1.897e+01  
    3     2.787e+00  
    4     1.178e+00  
    5     3.334e-01  
    6     1.604e-01  
    7     4.505e-02  
    8     8.432e-03  
    9     3.491e-03  
   10     5.916e-04  
   11     2.138e-04  
   12     3.609e-05  
   13     1.766e-05  
   14     5.144e-06  
   15     3.307e-06  
   16     1.428e-06  
   17     8.786e-07  Converged.
   ... Converged in 17 steps (norm: 8.78639e-07)
------------------------------------
  Starting TPA DIIS iterations ... 
------------------------------------ 
   It     Res. Norm  Remark
------------------------------------
                       Guess.
    1     8.548e-01  
    2     7.820e-01  
    3     3.636e-01  
    4     3.382e-01  
    5     5.574e-02  
    6     2.607e-02  
    7     6.497e-03  
    8     2.117e-03  
    9     7.838e-04  
   10     8.348e-05  
   11     2.752e-05  
   12     1.307e-05  
   13     1.168e-05  
   14     2.873e-06  
   15     9.133e-07  Converged.
   ... Converged in 15 steps (norm: 9.1335e-07)
------------------------------------
  Starting TPA DIIS iterations ... 
------------------------------------ 
   It     Res. Norm  Remark
------------------------------------
                       Guess.
    1     1.165e+01  
    2     2.120e+01  
    3     3.063e+00  
    4     1.290e+00  
    5     3.595e-01  
    6     1.721e-01  
    7     4.923e-02  
    8     8.857e-03  
    9     3.702e-03  
   10     6.425e-04  
   11     2.303e-04  
   12     4.047e-05  
   13     1.859e-05  
   14     5.472e-06  
   15     3.332e-06  
   16     1.290e-06  
   17     8.045e-07  Converged.
   ... Converged in 17 steps (norm: 8.04463e-07)
------------------------------------
  Starting TPA DIIS iterations ... 
------------------------------------ 
   It     Res. Norm  Remark
------------------------------------
                       Guess.
    1     1.107e+01  
    2     2.014e+01  
    3     2.915e+00  
    4     1.262e+00  
    5     3.585e-01  
    6     1.734e-01  
    7     4.850e-02  
    8     9.076e-03  
    9     3.772e-03  
   10     6.388e-04  
   11     2.308e-04  
   12     3.934e-05  
   13     1.954e-05  
   14     5.818e-06  
   15     3.810e-06  
   16     1.669e-06  
   17     1.002e-06  
   18     5.160e-07  Converged.
   ... Converged in 18 steps (norm: 5.16041e-07)
------------------------------------
  Starting TPA DIIS iterations ... 
------------------------------------ 
   It     Res. Norm  Remark
------------------------------------
                       Guess.
    1     8.627e-01  
    2     8.002e-01  
    3     3.765e-01  
    4     3.593e-01  
    5     5.893e-02  
    6     2.770e-02  
    7     7.038e-03  
    8     2.150e-03  
    9     8.266e-04  
   10     8.981e-05  
   11     2.979e-05  
   12     1.404e-05  
   13     1.277e-05  
   14     3.115e-06  
   15     9.674e-07  Converged.
   ... Converged in 15 steps (norm: 9.67399e-07)
------------------------------------
  Two-photon absorbption ...  CPU 157.01 s  wall 43.89 s
  Transition density matrix of state singlet_A_1 printed to ASCII file 'State_singlet_A_1_Transition.txt'
  Transition density matrix of state singlet_A_2 printed to ASCII file 'State_singlet_A_2_Transition.txt'
  Transition density matrix of state singlet_A_3 printed to ASCII file 'State_singlet_A_3_Transition.txt'
  Transition density matrix of state singlet_A_4 printed to ASCII file 'State_singlet_A_4_Transition.txt'
  Transition density matrix of state singlet_A_5 printed to ASCII file 'State_singlet_A_5_Transition.txt'
  Transition density matrix of state singlet_A_6 printed to ASCII file 'State_singlet_A_6_Transition.txt'
  Transition density matrix of state singlet_A_7 printed to ASCII file 'State_singlet_A_7_Transition.txt'
  Transition density matrix of state singlet_A_8 printed to ASCII file 'State_singlet_A_8_Transition.txt'
  Transition density matrix of state singlet_A_9 printed to ASCII file 'State_singlet_A_9_Transition.txt'
  Transition density matrix of state singlet_A_10 printed to ASCII file 'State_singlet_A_10_Transition.txt'
  Transition properties ...  CPU 0.34 s  wall 0.54 s
  Difference density matrix of state singlet_A_1 printed to ASCII file 'State_singlet_A_1_Difference.txt'
  Total density matrix of state singlet_A_1 printed to ASCII file 'State_singlet_A_1_Total.txt'
  Difference density matrix of state singlet_A_2 printed to ASCII file 'State_singlet_A_2_Difference.txt'
  Total density matrix of state singlet_A_2 printed to ASCII file 'State_singlet_A_2_Total.txt'
  Difference density matrix of state singlet_A_3 printed to ASCII file 'State_singlet_A_3_Difference.txt'
  Total density matrix of state singlet_A_3 printed to ASCII file 'State_singlet_A_3_Total.txt'
  Difference density matrix of state singlet_A_4 printed to ASCII file 'State_singlet_A_4_Difference.txt'
  Total density matrix of state singlet_A_4 printed to ASCII file 'State_singlet_A_4_Total.txt'
  Difference density matrix of state singlet_A_5 printed to ASCII file 'State_singlet_A_5_Difference.txt'
  Total density matrix of state singlet_A_5 printed to ASCII file 'State_singlet_A_5_Total.txt'
  Difference density matrix of state singlet_A_6 printed to ASCII file 'State_singlet_A_6_Difference.txt'
  Total density matrix of state singlet_A_6 printed to ASCII file 'State_singlet_A_6_Total.txt'
  Difference density matrix of state singlet_A_7 printed to ASCII file 'State_singlet_A_7_Difference.txt'
  Total density matrix of state singlet_A_7 printed to ASCII file 'State_singlet_A_7_Total.txt'
  Difference density matrix of state singlet_A_8 printed to ASCII file 'State_singlet_A_8_Difference.txt'
  Total density matrix of state singlet_A_8 printed to ASCII file 'State_singlet_A_8_Total.txt'
  Difference density matrix of state singlet_A_9 printed to ASCII file 'State_singlet_A_9_Difference.txt'
  Total density matrix of state singlet_A_9 printed to ASCII file 'State_singlet_A_9_Total.txt'
  Difference density matrix of state singlet_A_10 printed to ASCII file 'State_singlet_A_10_Difference.txt'
  Total density matrix of state singlet_A_10 printed to ASCII file 'State_singlet_A_10_Total.txt'
  Properties ...  CPU 0.70 s  wall 0.97 s
  ISR TDMS ...  CPU 33.04 s  wall 10.41 s
  ISR transition properties ...  CPU 0.72 s  wall 0.31 s
  Sum-over-states TPA ...  CPU 0.00 s  wall 0.00 s

--------------------------------------------------------------------------------
                   State-averaged natural transition orbitals
--------------------------------------------------------------------------------
--------------------------------------------------------------------------------
  SA-NTO decomposition ...  CPU 0.01 s  wall 0.04 s

--------------------------------------------------------------------------------
                             Excited State Summary
--------------------------------------------------------------------------------
--------------------------------------------------------------------------------

  Excited state 1 (singlet, A)                                     [converged]
  ----------------------------------------------------------------------------
  Term symbol:  2 (1) A                                     R^2 =  4.06660e-11

  Total energy:                                            -77.9992529094 a.u.
  Excitation energy:                                               8.731743 eV

  Osc. strength:                                                      0.446190
  Trans. dip. moment [a.u.]:           [   1.047163,   -0.994533,   -0.009704]
  <i|r^2|0> [a.u.]:                    [   6.178521,   -0.244534,   -0.000003]
  Two-photon absorption cross-section (SoS) [a.u.]:                   0.000153
  Two-photon absorption matrix (SoS) [a.u.]:
                                       |    0.000279    0.000041   -0.003125 |
                                       |    0.000041   -0.000286    0.003050 |
                                       |   -0.003125    0.003050    0.000091 |
  Two-photon absorption cross-section [a.u.]:                         0.000531
  Two-photon absorption matrix [a.u.]:
                                       |    0.000490    0.000095   -0.006072 |
                                       |    0.000095   -0.000584    0.005405 |
                                       |   -0.006072    0.005405    0.000082 |

  Dip. moment [a.u.]:                  [  -0.000184,   -0.000231,    0.003861]
  Total dipole [Debye]:                                               0.009842
  <r^2> [a.u.]:                        [ 176.606633,   36.019367,   11.918952]
  Total <r^2> [a.u.]:                                               224.544953

  V1^2 = 0.9713, V2^2 = 0.0287

  Important amplitudes:
      occ i     occ j     vir a      vir b          v   
    -----------------------------------------------------
     8 (A) A              9 (A) A                -0.6809
     6 (A) A             14 (A) A                -0.0617
     4 (A) A             10 (A) A                 0.0614
     7 (A) A             16 (A) A                 0.0575
     5 (A) A             13 (A) A                -0.0527
     6 (A) A             23 (A) A                -0.0485
     8 (A) A             20 (A) A                -0.0348
     6 (A) A             19 (A) A                -0.0302
     3 (A) A             12 (A) A                 0.0285
     5 (A) A             22 (A) A                -0.0218
     4 (A) A             24 (A) A                 0.0188
     3 (A) A             26 (A) A                 0.0187
     7 (A) A             11 (A) A                 0.0186
     8 (A) A   8 (A) B   17 (A) A   20 (A) B      0.0184
     8 (A) A   8 (A) B    9 (A) A   28 (A) B      0.0168
     6 (A) A             26 (A) A                 0.0163
     7 (A) A             21 (A) A                -0.0152
     3 (A) A             14 (A) A                -0.0143
     6 (A) A             12 (A) A                -0.0136
     3 (A) A   4 (A) B    9 (A) A    9 (A) B     -0.0129
     3 (A) A             19 (A) A                -0.0121
     8 (A) A   8 (A) B   18 (A) A   19 (A) B      0.0111
     7 (A) A             32 (A) A                -0.0097
     7 (A) A             36 (A) A                 0.0086
     3 (A) A             23 (A) A                -0.0082
     8 (A) A   8 (A) B   25 (A) A   29 (A) B     -0.0076
     6 (A) A             35 (A) A                 0.0072
     6 (A) A             40 (A) A                 0.0067
     3 (A) A   6 (A) B    9 (A) A   28 (A) B      0.0065
     5 (A) A   8 (A) B   11 (A) A    9 (A) B      0.0062
     7 (A) A   8 (A) B   13 (A) A   20 (A) B      0.0060
     5 (A) A   8 (A) B   11 (A) A   20 (A) B     -0.0060
     5 (A) A   7 (A) B    9 (A) A    9 (A) B      0.0060
     6 (A) A   8 (A) A   19 (A) A   28 (A) A     -0.0060
     5 (A) A             27 (A) A                -0.0060
     5 (A) A   8 (A) B   16 (A) A    9 (A) B     -0.0059
     3 (A) A   5 (A) B    9 (A) A   25 (A) B      0.0058
     7 (A) A   8 (A) B   22 (A) A   20 (A) B      0.0057
     3 (A) A             40 (A) A                 0.0056
     8 (A) A   8 (A) B   19 (A) A   30 (A) B      0.0056
    -----------------------------------------------------

  Density matrix analysis:
  ------------------------
  NOs
    Occupation of frontier NOs:
       0.9491   1.0219
    Number of electrons: 16.000000
    Number of unpaired electrons: n_u =  2.31679, n_u,nl =  2.03329
    NO participation ratio (PR_NO):  2.874057
  
  
  Mulliken Population Analysis
  Atom      Charge (e)              h+              e-           Del q
  --------------------------------------------------------------------
   1 H        0.062988        0.020438       -0.012421        0.008017
   2 C       -0.125977        0.490668       -0.506702       -0.016035
   3 H        0.062997        0.020439       -0.012420        0.008019
   4 C       -0.125990        0.490667       -0.506703       -0.016037
   5 H        0.062996        0.020439       -0.012421        0.008018
   6 H        0.062986        0.020438       -0.012421        0.008017
  --------------------------------------------------------------------
  Sum:        0.000000        1.063088       -1.063088        0.000000
  
  Multipole moment analysis of the density matrix
    Molecular charge:                      0.000000
    Number of electrons:                   16.000000
      Center of electronic charge [Ang]: [ -1.561318,  -0.065260,   0.001658]
    Total nuclear charge:                  16.000000
      Center of nuclear charge [Ang]:    [ -1.561324,  -0.065268,   0.001786]
    Dipole moment [D]:                     0.009842
      Cartesian components [D]:          [ -0.000468,  -0.000588,   0.009813]
    RMS size of the density [Ang]:         1.219820
      Cartesian components [Ang]:        [  0.808219,   0.791293,   0.456728]
  
  Exciton analysis of the difference density matrix
    <r_h> [Ang]:                  [ -1.561244,  -0.065170,   0.000113]
    <r_e> [Ang]:                  [ -1.561229,  -0.065149,  -0.000233]
    |<r_e - r_h>| [Ang]:            0.000347
    Hole size [Ang]:                1.287299
      Cartesian components [Ang]: [  0.730192,   0.714796,   0.782961]
    Electron size [Ang]:            1.463851
      Cartesian components [Ang]: [  0.854319,   0.831692,   0.849287]

  Transition density matrix analysis:
  -----------------------------------
  
  CT numbers (Mulliken)
    omega =     0.9532
    <Phe> =    -0.1603
  
  Exciton analysis of the transition density matrix
    Trans. dipole moment [D]:             1.835407
      Cartesian components [D]:         [  1.330811,  -1.263926,  -0.012332]
    <r_h> [Ang]:                        [ -1.561257,  -0.065190,   0.000415]
    <r_e> [Ang]:                        [ -1.561216,  -0.065132,  -0.000501]
    |<r_e - r_h>| [Ang]:                  0.000918
    Hole size [Ang]:                      1.214404
      Cartesian components [Ang]:       [  0.649929,   0.637063,   0.804065]
    Electron size [Ang]:                  1.486748
      Cartesian components [Ang]:       [  0.864786,   0.840566,   0.869491]
    RMS electron-hole separation [Ang]:   1.937173
      Cartesian components [Ang]:       [  1.106783,   1.076289,   1.170159]
    Covariance(r_h, r_e) [Ang^2]:        -0.033720
    Correlation coefficient:             -0.018676
    Center-of-mass size [Ang]:            0.951020
      Cartesian components [Ang]:       [  0.528099,   0.516334,   0.599124]

  Decomposition into state-averaged NTOs
    H- 0 -> L+ 0:  0.6697 ( 89.7%)
    H- 2 -> L+ 5:  0.0830 (  1.4%)
                   omega =  95.3%
  ----------------------------------------------------------------------------


  Excited state 2 (singlet, A)                                     [converged]
  ----------------------------------------------------------------------------
  Term symbol:  3 (1) A                                     R^2 =  1.59489e-10

  Total energy:                                            -77.9911451841 a.u.
  Excitation energy:                                               8.952366 eV

  Osc. strength:                                                      0.000001
  Trans. dip. moment [a.u.]:           [  -0.002057,   -0.001291,   -0.000221]
  <i|r^2|0> [a.u.]:                    [  -0.078089,   -0.087145,    0.152780]
  Two-photon absorption cross-section (SoS) [a.u.]:                   4.562879
  Two-photon absorption matrix (SoS) [a.u.]:
                                       |   -0.049929   -0.057392    0.514291 |
                                       |   -0.057392   -0.065505    0.540847 |
                                       |    0.514291    0.540847    0.115435 |
  Two-photon absorption cross-section [a.u.]:                         0.172489
  Two-photon absorption matrix [a.u.]:
                                       |    0.008862    0.011115   -0.100045 |
                                       |    0.011115    0.013582   -0.105097 |
                                       |   -0.100045   -0.105097   -0.022440 |

  Dip. moment [a.u.]:                  [  -0.000438,   -0.000422,    0.007181]
  Total dipole [Debye]:                                               0.018317
  <r^2> [a.u.]:                        [ 174.941220,   34.365565,   13.214914]
  Total <r^2> [a.u.]:                                               222.521699

  V1^2 = 0.9541, V2^2 = 0.0459

  Important amplitudes:
      occ i     occ j     vir a      vir b          v   
    -----------------------------------------------------
     7 (A) A              9 (A) A                 0.6685
     8 (A) A             11 (A) A                -0.1513
     7 (A) A             20 (A) A                 0.0756
     5 (A) A   8 (A) B    9 (A) A    9 (A) B     -0.0315
     8 (A) A             16 (A) A                 0.0281
     8 (A) A             21 (A) A                 0.0178
     5 (A) A             28 (A) A                -0.0150
     4 (A) A   7 (A) B    9 (A) A   19 (A) B      0.0136
     5 (A) A   7 (A) B    9 (A) A   16 (A) B     -0.0134
     7 (A) A   8 (A) B   20 (A) A   17 (A) B     -0.0106
     7 (A) A   8 (A) A    9 (A) A   28 (A) A      0.0098
     5 (A) A   8 (A) B    9 (A) A   20 (A) B     -0.0094
     4 (A) A   6 (A) B    9 (A) A   16 (A) B     -0.0091
     5 (A) A   6 (A) A    9 (A) A   23 (A) A      0.0090
     5 (A) A   6 (A) A    9 (A) A   14 (A) A      0.0089
     5 (A) A   6 (A) B    9 (A) A   19 (A) B      0.0086
     8 (A) A   7 (A) B    9 (A) A   28 (A) B     -0.0085
     6 (A) A   7 (A) B    9 (A) A   18 (A) B     -0.0085
     4 (A) A   5 (A) A    9 (A) A   10 (A) A      0.0085
     5 (A) A   6 (A) B    9 (A) A   23 (A) B      0.0080
     3 (A) A   7 (A) B    9 (A) A   18 (A) B      0.0080
     5 (A) A   7 (A) A    9 (A) A   16 (A) A     -0.0078
     4 (A) A   8 (A) B    9 (A) A   25 (A) B      0.0076
     4 (A) A   7 (A) B   19 (A) A    9 (A) B      0.0075
     7 (A) A   8 (A) B   17 (A) A   20 (A) B     -0.0074
     5 (A) A   5 (A) B    9 (A) A   13 (A) B      0.0073
     7 (A) A   8 (A) B   19 (A) A   18 (A) B     -0.0071
     4 (A) A   5 (A) B    9 (A) A   18 (A) B     -0.0069
     5 (A) A   8 (A) A    9 (A) A   20 (A) A     -0.0068
     7 (A) A   7 (A) B   20 (A) A   22 (A) B     -0.0066
     7 (A) A   8 (A) B   17 (A) A    9 (A) B     -0.0065
     5 (A) A   6 (A) B    9 (A) A   14 (A) B      0.0063
     5 (A) A   7 (A) B   11 (A) A   20 (A) B      0.0062
     4 (A) A   5 (A) B   10 (A) A    9 (A) B     -0.0061
     4 (A) A   7 (A) A    9 (A) A   19 (A) A      0.0061
     5 (A) A             38 (A) A                -0.0060
     4 (A) A   6 (A) B   16 (A) A    9 (A) B     -0.0058
     4 (A) A   8 (A) A    9 (A) A   25 (A) A      0.0057
     6 (A) A   7 (A) A   19 (A) A   28 (A) A      0.0056
     5 (A) A   7 (A) A   11 (A) A   20 (A) A      0.0054
    -----------------------------------------------------

  Density matrix analysis:
  ------------------------
  NOs
    Occupation of frontier NOs:
       0.9560   1.0553
    Number of electrons: 16.000000
    Number of unpaired electrons: n_u =  2.35842, n_u,nl =  2.06489
    NO participation ratio (PR_NO):  3.045295
  
  
  Mulliken Population Analysis
  Atom      Charge (e)              h+              e-           Del q
  --------------------------------------------------------------------
   1 H        0.155072        0.124913       -0.024811        0.100102
   2 C       -0.310157        0.272574       -0.472788       -0.200214
   3 H        0.155077        0.124883       -0.024784        0.100099
   4 C       -0.310165        0.272593       -0.472805       -0.200212
   5 H        0.155071        0.124907       -0.024814        0.100093
   6 H        0.155102        0.124913       -0.024780        0.100133
  --------------------------------------------------------------------
  Sum:        0.000000        1.044782       -1.044782        0.000000
  
  Multipole moment analysis of the density matrix
    Molecular charge:                      0.000000
    Number of electrons:                   16.000000
      Center of electronic charge [Ang]: [ -1.561309,  -0.065254,   0.001549]
    Total nuclear charge:                  16.000000
      Center of nuclear charge [Ang]:    [ -1.561324,  -0.065268,   0.001786]
    Dipole moment [D]:                     0.018317
      Cartesian components [D]:          [ -0.001114,  -0.001073,   0.018251]
    RMS size of the density [Ang]:         1.205230
      Cartesian components [Ang]:        [  0.789997,   0.772788,   0.480918]
  
  Exciton analysis of the difference density matrix
    <r_h> [Ang]:                  [ -1.561354,  -0.065241,   0.002163]
    <r_e> [Ang]:                  [ -1.561210,  -0.065122,   0.000129]
    |<r_e - r_h>| [Ang]:            0.002042
    Hole size [Ang]:                1.496150
      Cartesian components [Ang]: [  1.013899,   1.001265,   0.456007]
    Electron size [Ang]:            1.480146
      Cartesian components [Ang]: [  0.884390,   0.862108,   0.815755]

  Transition density matrix analysis:
  -----------------------------------
  
  CT numbers (Mulliken)
    omega =     0.9214
    <Phe> =    -0.0114
  
  Exciton analysis of the transition density matrix
    Trans. dipole moment [D]:             0.003099
      Cartesian components [D]:         [ -0.002614,  -0.001641,  -0.000281]
    <r_h> [Ang]:                        [ -1.561380,  -0.065262,   0.002619]
    <r_e> [Ang]:                        [ -1.561182,  -0.065096,  -0.000362]
    |<r_e - r_h>| [Ang]:                  0.002992
    Hole size [Ang]:                      1.527098
      Cartesian components [Ang]:       [  1.038709,   1.026042,   0.447605]
    Electron size [Ang]:                  1.475556
      Cartesian components [Ang]:       [  0.873333,   0.850276,   0.831615]
    RMS electron-hole separation [Ang]:   2.103539
      Cartesian components [Ang]:       [  1.341047,   1.317568,   0.943656]
    Covariance(r_h, r_e) [Ang^2]:         0.042213
    Correlation coefficient:              0.018734
    Center-of-mass size [Ang]:            1.071648
      Cartesian components [Ang]:       [  0.686449,   0.673698,   0.472597]

  Decomposition into state-averaged NTOs
    H- 1 -> L+ 0: -0.6608 ( 87.3%)
    H- 0 -> L+ 2: -0.1513 (  4.6%)
                   omega =  92.1%
  ----------------------------------------------------------------------------


  Excited state 3 (singlet, A)                                     [converged]
  ----------------------------------------------------------------------------
  Term symbol:  4 (1) A                                     R^2 =  1.29447e-11

  Total energy:                                            -77.9841888561 a.u.
  Excitation energy:                                               9.141657 eV

  Osc. strength:                                                      0.023581
  Trans. dip. moment [a.u.]:           [  -0.015393,   -0.019681,    0.323516]
  <i|r^2|0> [a.u.]:                    [  -0.088399,   -0.002674,   -0.003395]
  Two-photon absorption cross-section (SoS) [a.u.]:                   0.006608
  Two-photon absorption matrix (SoS) [a.u.]:
                                       |   -0.004283    0.001353    0.000979 |
                                       |    0.001353   -0.006419    0.001081 |
                                       |    0.000979    0.001081   -0.028542 |
  Two-photon absorption cross-section [a.u.]:                         0.008213
  Two-photon absorption matrix [a.u.]:
                                       |   -0.015221    0.005616    0.000221 |
                                       |    0.005616   -0.016274    0.000035 |
                                       |    0.000221    0.000035   -0.017347 |

  Dip. moment [a.u.]:                  [  -0.000079,   -0.000030,   -0.004251]
  Total dipole [Debye]:                                               0.010807
  <r^2> [a.u.]:                        [ 181.385107,   41.008747,   11.057388]
  Total <r^2> [a.u.]:                                               233.451242

  V1^2 = 0.9580, V2^2 = 0.0420

  Important amplitudes:
      occ i     occ j     vir a      vir b          v   
    -----------------------------------------------------
     8 (A) A             10 (A) A                -0.6887
     8 (A) A             24 (A) A                -0.0508
     8 (A) A             18 (A) A                 0.0332
     4 (A) A              9 (A) A                 0.0247
     8 (A) A   8 (A) B    9 (A) A   12 (A) B      0.0223
     8 (A) A   8 (A) B   10 (A) A   17 (A) B     -0.0172
     5 (A) A   8 (A) B   11 (A) A   10 (A) B      0.0169
     8 (A) A             15 (A) A                 0.0149
     7 (A) A   8 (A) B   13 (A) A   10 (A) B     -0.0143
     4 (A) A   8 (A) B   12 (A) A   10 (A) B     -0.0113
     6 (A) A   8 (A) A   10 (A) A   15 (A) A     -0.0112
     7 (A) A   8 (A) B   22 (A) A   10 (A) B     -0.0109
     6 (A) A   8 (A) B   15 (A) A   10 (A) B      0.0109
     4 (A) A   8 (A) A   10 (A) A   12 (A) A      0.0108
     7 (A) A   8 (A) A   10 (A) A   22 (A) A      0.0099
     7 (A) A   8 (A) A   10 (A) A   13 (A) A      0.0098
     5 (A) A   8 (A) A   10 (A) A   11 (A) A     -0.0097
     5 (A) A   8 (A) B   21 (A) A   10 (A) B     -0.0094
     6 (A) A   8 (A) B   10 (A) A   10 (A) B      0.0090
     6 (A) A   8 (A) A   10 (A) A   18 (A) A      0.0086
     7 (A) A   8 (A) A   12 (A) A   16 (A) A     -0.0084
     3 (A) A   4 (A) B   10 (A) A    9 (A) B     -0.0080
     5 (A) A   8 (A) A   10 (A) A   21 (A) A      0.0079
     4 (A) A   8 (A) B   19 (A) A   10 (A) B      0.0076
     8 (A) A   8 (A) B    9 (A) A   23 (A) B      0.0075
     8 (A) A   8 (A) B   10 (A) A   28 (A) B      0.0074
     5 (A) A   8 (A) B   10 (A) A   11 (A) B      0.0072
     7 (A) A   8 (A) B   16 (A) A   12 (A) B      0.0072
     3 (A) A   8 (A) A   10 (A) A   24 (A) A      0.0072
     3 (A) A   8 (A) B   10 (A) A   10 (A) B     -0.0071
     8 (A) A   8 (A) B    9 (A) A   19 (A) B     -0.0070
     3 (A) A   8 (A) B   10 (A) A   18 (A) B      0.0068
     6 (A) A   8 (A) B   18 (A) A   10 (A) B     -0.0065
     3 (A) A   6 (A) B   10 (A) A   28 (A) B      0.0062
     7 (A) A   8 (A) B   12 (A) A   11 (A) B     -0.0059
     6 (A) A             28 (A) A                -0.0058
     5 (A) A   8 (A) A   10 (A) A   16 (A) A      0.0057
     3 (A) A   5 (A) B   10 (A) A   25 (A) B      0.0056
     6 (A) A   8 (A) A   11 (A) A   16 (A) A      0.0055
     4 (A) A   8 (A) A   10 (A) A   23 (A) A      0.0055
    -----------------------------------------------------

  Density matrix analysis:
  ------------------------
  NOs
    Occupation of frontier NOs:
       0.9812   0.9847
    Number of electrons: 16.000000
    Number of unpaired electrons: n_u =  2.28863, n_u,nl =  2.02504
    NO participation ratio (PR_NO):  2.701206
  
  
  Mulliken Population Analysis
  Atom      Charge (e)              h+              e-           Del q
  --------------------------------------------------------------------
   1 H       -0.155138        0.054351       -0.264459       -0.210108
   2 C        0.310172        0.538090       -0.117975        0.420115
   3 H       -0.155033        0.054355       -0.264366       -0.210012
   4 C        0.310163        0.538086       -0.117970        0.420116
   5 H       -0.155121        0.054353       -0.264452       -0.210099
   6 H       -0.155044        0.054354       -0.264366       -0.210012
  --------------------------------------------------------------------
  Sum:        0.000000        1.293589       -1.293589       -0.000000
  
  Multipole moment analysis of the density matrix
    Molecular charge:                      0.000000
    Number of electrons:                   16.000000
      Center of electronic charge [Ang]: [ -1.561321,  -0.065267,   0.001927]
    Total nuclear charge:                  16.000000
      Center of nuclear charge [Ang]:    [ -1.561324,  -0.065268,   0.001786]
    Dipole moment [D]:                     0.010807
      Cartesian components [D]:          [ -0.000201,  -0.000077,  -0.010805]
    RMS size of the density [Ang]:         1.282117
      Cartesian components [Ang]:        [  0.858393,   0.844669,   0.439909]
  
  Exciton analysis of the difference density matrix
    <r_h> [Ang]:                  [ -1.561274,  -0.065208,   0.000823]
    <r_e> [Ang]:                  [ -1.561305,  -0.065273,   0.003857]
    |<r_e - r_h>| [Ang]:            0.003035
    Hole size [Ang]:                1.412902
      Cartesian components [Ang]: [  0.836553,   0.822686,   0.787183]
    Electron size [Ang]:            2.079251
      Cartesian components [Ang]: [  1.376858,   1.380377,   0.722570]

  Transition density matrix analysis:
  -----------------------------------
  
  CT numbers (Mulliken)
    omega =     0.9250
    <Phe> =    -0.0109
  
  Exciton analysis of the transition density matrix
    Trans. dipole moment [D]:             0.412372
      Cartesian components [D]:         [ -0.019563,  -0.025013,   0.411148]
    <r_h> [Ang]:                        [ -1.561241,  -0.065168,  -0.000046]
    <r_e> [Ang]:                        [ -1.561303,  -0.065282,   0.004677]
    |<r_e - r_h>| [Ang]:                  0.004725
    Hole size [Ang]:                      1.212751
      Cartesian components [Ang]:       [  0.636289,   0.623748,   0.822703]
    Electron size [Ang]:                  2.301786
      Cartesian components [Ang]:       [  1.523314,   1.529515,   0.798947]
    RMS electron-hole separation [Ang]:   2.591632
      Cartesian components [Ang]:       [  1.643221,   1.644663,   1.145193]
    Covariance(r_h, r_e) [Ang^2]:         0.026224
    Correlation coefficient:              0.009394
    Center-of-mass size [Ang]:            1.305893
      Cartesian components [Ang]:       [  0.829235,   0.829464,   0.574210]

  Decomposition into state-averaged NTOs
    H- 0 -> L+ 1:  0.6794 ( 92.3%)
                   omega =  92.5%
  ----------------------------------------------------------------------------


  Excited state 4 (singlet, A)                                     [converged]
  ----------------------------------------------------------------------------
  Term symbol:  5 (1) A                                     R^2 =  1.06329e-11

  Total energy:                                            -77.9622660818 a.u.
  Excitation energy:                                               9.738206 eV

  Osc. strength:                                                      0.000000
  Trans. dip. moment [a.u.]:           [   0.000382,    0.000142,    0.000071]
  <i|r^2|0> [a.u.]:                    [  -0.011518,   -0.018167,    0.031972]
  Two-photon absorption cross-section (SoS) [a.u.]:                 134.680283
  Two-photon absorption matrix (SoS) [a.u.]:
                                       |   -0.270750   -0.311782    2.794396 |
                                       |   -0.311782   -0.356381    2.938091 |
                                       |    2.794396    2.938091    0.627125 |
  Two-photon absorption cross-section [a.u.]:                        80.036837
  Two-photon absorption matrix [a.u.]:
                                       |   -0.209375   -0.240382    2.154067 |
                                       |   -0.240382   -0.274079    2.265055 |
                                       |    2.154067    2.265055    0.483448 |

  Dip. moment [a.u.]:                  [   0.000550,    0.000628,   -0.004348]
  Total dipole [Debye]:                                               0.011253
  <r^2> [a.u.]:                        [ 181.497072,   41.010735,   10.786890]
  Total <r^2> [a.u.]:                                               233.294698

  V1^2 = 0.9633, V2^2 = 0.0367

  Important amplitudes:
      occ i     occ j     vir a      vir b          v   
    -----------------------------------------------------
     8 (A) A             11 (A) A                -0.6688
     7 (A) A              9 (A) A                -0.1535
     8 (A) A             21 (A) A                 0.0779
     8 (A) A             16 (A) A                 0.0674
     8 (A) A   8 (A) B    9 (A) A   13 (A) B      0.0167
     5 (A) A   8 (A) B   11 (A) A   11 (A) B      0.0157
     7 (A) A             20 (A) A                -0.0140
     8 (A) A   8 (A) B   11 (A) A   17 (A) B     -0.0137
     7 (A) A   8 (A) B   13 (A) A   11 (A) B     -0.0127
     4 (A) A   8 (A) B   12 (A) A   11 (A) B     -0.0111
     8 (A) A   8 (A) B    9 (A) A   22 (A) B      0.0110
     5 (A) A   8 (A) A   11 (A) A   21 (A) A      0.0109
     7 (A) A   8 (A) A   11 (A) A   22 (A) A      0.0095
     6 (A) A   8 (A) B   10 (A) A   11 (A) B      0.0091
     6 (A) A   8 (A) B   15 (A) A   11 (A) B      0.0089
     7 (A) A   8 (A) B   22 (A) A   11 (A) B     -0.0089
     3 (A) A   4 (A) B   11 (A) A    9 (A) B     -0.0083
     3 (A) A   8 (A) B   11 (A) A   18 (A) B      0.0080
     6 (A) A   8 (A) A   11 (A) A   15 (A) A     -0.0079
     7 (A) A   8 (A) A   13 (A) A   16 (A) A     -0.0079
     7 (A) A   8 (A) A   11 (A) A   13 (A) A      0.0075
     4 (A) A   8 (A) B   19 (A) A   11 (A) B      0.0070
     5 (A) A   8 (A) B   21 (A) A   11 (A) B     -0.0069
     5 (A) A   8 (A) B    9 (A) A    9 (A) B      0.0069
     4 (A) A   8 (A) A   11 (A) A   12 (A) A      0.0062
     3 (A) A   6 (A) B   11 (A) A   28 (A) B      0.0060
     6 (A) A   8 (A) A   11 (A) A   18 (A) A      0.0059
     6 (A) A   8 (A) B   18 (A) A   11 (A) B     -0.0058
     7 (A) A   8 (A) B   16 (A) A   13 (A) B      0.0057
     3 (A) A   8 (A) B   11 (A) A   30 (A) B      0.0056
     5 (A) A   8 (A) B   10 (A) A   10 (A) B      0.0055
     7 (A) A   8 (A) B   12 (A) A   10 (A) B     -0.0055
     8 (A) A   8 (A) B   20 (A) A   22 (A) B      0.0055
     6 (A) A   8 (A) B   11 (A) A   10 (A) B      0.0055
     3 (A) A   5 (A) B   11 (A) A   25 (A) B      0.0054
     3 (A) A   8 (A) A   11 (A) A   18 (A) A      0.0054
     3 (A) A   8 (A) A   11 (A) A   24 (A) A      0.0053
     5 (A) A   8 (A) A   11 (A) A   16 (A) A      0.0049
     6 (A) A   8 (A) A   10 (A) A   16 (A) A      0.0047
     8 (A) A   8 (A) B   11 (A) A   28 (A) B      0.0043
    -----------------------------------------------------

  Density matrix analysis:
  ------------------------
  NOs
    Occupation of frontier NOs:
       0.9387   1.0295
    Number of electrons: 16.000000
    Number of unpaired electrons: n_u =  2.32235, n_u,nl =  2.05106
    NO participation ratio (PR_NO):  2.932714
  
  
  Mulliken Population Analysis
  Atom      Charge (e)              h+              e-           Del q
  --------------------------------------------------------------------
   1 H       -0.125344        0.046015       -0.226329       -0.180315
   2 C        0.251081        0.495257       -0.134233        0.361024
   3 H       -0.125733        0.046004       -0.226716       -0.180712
   4 C        0.251065        0.495257       -0.134239        0.361018
   5 H       -0.125599        0.046004       -0.226581       -0.180577
   6 H       -0.125469        0.046017       -0.226454       -0.180438
  --------------------------------------------------------------------
  Sum:        0.000000        1.174554       -1.174554       -0.000000
  
  Multipole moment analysis of the density matrix
    Molecular charge:                      -0.000000
    Number of electrons:                   16.000000
      Center of electronic charge [Ang]: [ -1.561342,  -0.065289,   0.001930]
    Total nuclear charge:                  16.000000
      Center of nuclear charge [Ang]:    [ -1.561324,  -0.065268,   0.001786]
    Dipole moment [D]:                     0.011253
      Cartesian components [D]:          [  0.001398,   0.001597,  -0.011051]
    RMS size of the density [Ang]:         1.281022
      Cartesian components [Ang]:        [  0.859496,   0.844688,   0.434495]
  
  Exciton analysis of the difference density matrix
    <r_h> [Ang]:                  [ -1.561281,  -0.065211,   0.000661]
    <r_e> [Ang]:                  [ -1.561599,  -0.065579,   0.004046]
    |<r_e - r_h>| [Ang]:            0.003420
    Hole size [Ang]:                1.394929
      Cartesian components [Ang]: [  0.819575,   0.806325,   0.789915]
    Electron size [Ang]:            2.114333
      Cartesian components [Ang]: [  1.419376,   1.415535,   0.672338]

  Transition density matrix analysis:
  -----------------------------------
  
  CT numbers (Mulliken)
    omega =     0.9293
    <Phe> =    -0.0146
  
  Exciton analysis of the transition density matrix
    Trans. dipole moment [D]:             0.000525
      Cartesian components [D]:         [  0.000485,   0.000180,   0.000091]
    <r_h> [Ang]:                        [ -1.561243,  -0.065166,   0.000083]
    <r_e> [Ang]:                        [ -1.561653,  -0.065638,   0.004509]
    |<r_e - r_h>| [Ang]:                  0.004470
    Hole size [Ang]:                      1.229183
      Cartesian components [Ang]:       [  0.662000,   0.649552,   0.806677]
    Electron size [Ang]:                  2.247896
      Cartesian components [Ang]:       [  1.508876,   1.506082,   0.712775]
    RMS electron-hole separation [Ang]:   2.550884
      Cartesian components [Ang]:       [  1.638861,   1.631989,   1.075989]
    Covariance(r_h, r_e) [Ang^2]:         0.028471
    Correlation coefficient:              0.010304
    Center-of-mass size [Ang]:            1.286553
      Cartesian components [Ang]:       [  0.828257,   0.824168,   0.538475]

  Decomposition into state-averaged NTOs
    H- 0 -> L+ 2: -0.6641 ( 88.2%)
    H- 1 -> L+ 0:  0.1514 (  4.6%)
                   omega =  92.9%
  ----------------------------------------------------------------------------


  Excited state 5 (singlet, A)                                     [converged]
  ----------------------------------------------------------------------------
  Term symbol:  6 (1) A                                     R^2 =  8.61393e-12

  Total energy:                                            -77.9468223967 a.u.
  Excitation energy:                                              10.158450 eV

  Osc. strength:                                                      0.000001
  Trans. dip. moment [a.u.]:           [  -0.001489,    0.001371,    0.000016]
  <i|r^2|0> [a.u.]:                    [   0.072504,   -0.096676,    0.015796]
  Two-photon absorption cross-section (SoS) [a.u.]:                 223.490740
  Two-photon absorption matrix (SoS) [a.u.]:
                                       |    0.368025    0.056001   -3.823863 |
                                       |    0.056001   -0.437490    3.625649 |
                                       |   -3.823863    3.625649    0.071061 |
  Two-photon absorption cross-section [a.u.]:                       115.459460
  Two-photon absorption matrix [a.u.]:
                                       |    0.265128    0.040656   -2.748437 |
                                       |    0.040656   -0.313804    2.605991 |
                                       |   -2.748437    2.605991    0.050942 |

  Dip. moment [a.u.]:                  [   0.000070,   -0.000016,    0.000122]
  Total dipole [Debye]:                                               0.000360
  <r^2> [a.u.]:                        [ 180.368191,   39.751494,   11.600382]
  Total <r^2> [a.u.]:                                               231.720066

  V1^2 = 0.9554, V2^2 = 0.0446

  Important amplitudes:
      occ i     occ j     vir a      vir b          v   
    -----------------------------------------------------
     8 (A) A             12 (A) A                 0.5697
     6 (A) A              9 (A) A                 0.3819
     8 (A) A             19 (A) A                -0.0525
     6 (A) A             20 (A) A                 0.0520
     8 (A) A             23 (A) A                 0.0293
     8 (A) A   8 (A) B    9 (A) A   10 (A) B     -0.0205
     8 (A) A             26 (A) A                 0.0185
     3 (A) A              9 (A) A                 0.0159
     4 (A) A   8 (A) B    9 (A) A    9 (A) B     -0.0158
     5 (A) A   8 (A) B   11 (A) A   12 (A) B     -0.0149
     8 (A) A   8 (A) B   12 (A) A   17 (A) B      0.0133
     7 (A) A   8 (A) B   13 (A) A   12 (A) B      0.0130
     4 (A) A   8 (A) B   12 (A) A   12 (A) B      0.0124
[...]
    16   -1.487468108797e-03
    17   -1.682266627891e-03
    18    1.433656588945e-04
    19   -2.905046882949e-03
    20    1.150153373213e-02
    21    9.277321493410e-01
    22   -5.074357878765e-04
    23    1.373010594802e-02
    24    7.731702276449e-04
    25    7.035129178537e-02
    26   -5.224058133998e-02
    27   -1.383688824522e+00
    28    9.985697708011e-02
    29   -9.480827125572e-02
    30   -1.454140057272e-03
    31    3.850435175151e-01
    32   -3.655601242012e-01
    33   -5.596829176261e-03
    34    1.506635655797e-02
    35   -1.368244125807e-03
    36   -1.792638920844e-03
    37    1.288193259471e-04
    38   -2.906180369671e-03
    39    1.150835874295e-02
    40    9.278690719700e-01
    41    5.086166748173e-04
    42   -1.372701891553e-02
    43   -8.397187613758e-04
    44    1.150177531040e-02
    45    9.277383443453e-01
    46    1.374426668955e-02
    47    1.961670459885e-04
    48    6.364147954837e-04
Sym=X
Ene= 0.231047
Spin=Alpha
Occup=0
     1   -2.986454975774e-02
     2   -1.167627780015e+00
     3    1.294548773410e-02
     4    3.506522329418e-03
     5    8.385219430034e-04
     6    6.458817709592e-05
     7   -6.691238709461e-05
     8   -1.069323800484e-03
     9    1.545331714763e-01
    10    1.626427496912e-01
    11    1.725708511546e-02
    12    5.299985397963e-01
    13    5.579540432387e-01
    14    5.920033900994e-02
    15    2.016801215078e-05
    16   -3.912919850740e-05
    17    1.125730993767e-04
    18   -1.384575448052e-03
    19   -8.201488351335e-05
    20    2.989637621304e-02
    21    1.169175961212e+00
    22    2.855220448929e-03
    23    1.312182213013e-02
    24    9.259595755979e-04
    25   -5.565696127015e-05
    26    6.029664701382e-05
    27    8.350645661904e-04
    28    1.545545265664e-01
    29    1.626257747751e-01
    30    1.723697398665e-02
    31    5.300598036112e-01
    32    5.578443619397e-01
    33    5.911652667997e-02
    34   -4.757989926227e-06
    35    1.103184822643e-04
    36   -3.939758603717e-05
    37    1.384301976900e-03
    38    7.329217724875e-05
    39   -2.989726403149e-02
    40   -1.168985137834e+00
    41    2.854129628931e-03
    42    1.311878357776e-02
    43    9.345775194303e-04
    44    2.986368589872e-02
    45    1.167734090939e+00
    46    1.294813878501e-02
    47    3.507417700586e-03
    48    8.276435113933e-04
Sym=X
Ene= 0.236441
Spin=Alpha
Occup=0
     1   -1.930960352807e-02
     2   -1.072927766480e+00
     3    1.588922934732e-02
     4    9.212068204344e-03
     5    1.410465982759e-03
     6   -8.712266430948e-02
     7    8.232424448466e-02
     8    1.545053547018e+00
     9    5.891741518806e-02
    10   -5.589787653273e-02
    11    8.590560164352e-04
    12    2.420822300878e-01
    13   -2.298270725691e-01
    14    3.434636005248e-03
    15   -2.128497975094e-02
    16    2.634414163407e-03
    17    2.755828935296e-03
    18   -6.303309128041e-04
    19    1.241012879823e-02
    20   -1.928203134048e-02
    21   -1.071407552398e+00
    22   -8.399036418989e-03
    23   -1.632346698527e-02
    24   -1.298995355379e-03
    25    8.712122878859e-02
    26   -8.232059782207e-02
    27   -1.545041076127e+00
    28    5.905823715576e-02
    29   -5.572517165212e-02
    30   -1.961570752343e-03
    31    2.427021060846e-01
    32   -2.290828695221e-01
    33   -7.951555804542e-03
    34    2.128080889873e-02
    35   -2.375344911557e-03
    36   -2.999872705742e-03
    37    5.980532211110e-04
    38   -1.241376672281e-02
    39    1.927884867026e-02
    40    1.071294870802e+00
    41   -8.392050876402e-03
    42   -1.630955430831e-02
    43   -1.480775090066e-03
    44    1.931100590938e-02
    45    1.073022703600e+00
    46    1.590040326778e-02
    47    9.222897988845e-03
    48    1.227954385048e-03
Sym=X
Ene= 0.302964
Spin=Alpha
Occup=0
     1   -2.107106480603e-02
     2    1.657858875243e+00
     3   -2.350641041027e-02
     4    4.069094602059e-04
     5   -1.172434215540e-03
     6    4.310707972549e-06
     7   -1.422194061350e-06
     8   -1.430484429095e-04
     9   -1.356180493365e-01
    10   -1.426579415739e-01
    11   -1.513725197621e-02
    12   -1.124882899311e+00
    13   -1.183325847001e+00
    14   -1.255293618880e-01
    15   -6.925766151273e-06
    16   -1.957124215096e-03
    17    1.749445510885e-03
    18   -3.408325251513e-02
    19   -1.719364371494e-03
    20    2.107443369024e-02
    21   -1.657788586351e+00
    22    1.599702900303e-03
    23   -2.344809340277e-02
    24   -1.272467596693e-03
    25   -2.577830416924e-06
    26   -3.753698171672e-06
    27    1.021053249073e-04
    28    1.356204588821e-01
    29    1.426648164907e-01
    30    1.512598676537e-02
    31    1.124978918688e+00
    32    1.183223418524e+00
    33    1.254887303085e-01
    34    7.260950000725e-05
    35   -1.525343725623e-03
    36    2.201787681479e-03
    37   -3.407507073371e-02
    38   -1.764847716934e-03
    39    2.106602807086e-02
    40   -1.657850331517e+00
    41   -1.605820088503e-03
    42    2.344225612986e-02
    43    1.405373221004e-03
    44   -2.106967806860e-02
    45    1.657815277507e+00
    46    2.351070498426e-02
    47   -4.006354595717e-04
    48    1.037758587465e-03
Sym=X
Ene= 0.462776
Spin=Alpha
Occup=0
     1   -1.144442327070e-01
     2   -6.987451994308e-01
     3   -1.496828432645e-02
     4   -1.030593399482e-02
     5   -1.309071469157e-03
     6    6.251485913848e-02
     7    1.658778416575e-02
     8   -3.641092087396e+00
     9    1.043079425550e-01
    10   -9.913032053417e-02
    11   -2.113883382902e-04
    12    2.433143741877e+00
    13   -2.311191809295e+00
    14   -1.912341735411e-02
    15    5.296774750187e-02
    16   -3.191914083609e-03
    17   -4.608316401244e-03
    18   -1.083652642760e-03
    19    2.011829942476e-02
    20   -1.143940024136e-01
    21   -6.988278996401e-01
    22    9.539161934421e-03
    23    1.546168376038e-02
    24    1.425881912157e-03
    25   -6.251604542617e-02
    26   -1.658051874072e-02
    27    3.641100427040e+00
    28    1.043878978674e-01
    29   -9.905490431899e-02
    30   -1.786124794069e-03
    31    2.433436126854e+00
    32   -2.310757521990e+00
    33   -2.606552200760e-02
    34   -5.296489215008e-02
    35    3.334304036871e-03
    36    4.464312399270e-03
    37    1.071808750598e-03
    38   -2.012677377361e-02
    39    1.143760351415e-01
    40    6.988067601340e-01
    41    9.537881009641e-03
    42    1.546341760155e-02
    43    1.357628495563e-03
    44    1.143949349576e-01
    45    6.988223332276e-01
    46   -1.496497030478e-02
    47   -1.030320785747e-02
    48   -1.374432284536e-03
Sym=X
Ene= 0.579808
Spin=Alpha
Occup=0
     1   -2.378535679191e-01
     2   -4.776520978492e-02
     3    2.206057129580e-02
     4   -2.697802507279e-02
     5   -4.942173105270e-04
     6    6.251498194891e-03
     7    1.690063281606e-01
     8    4.173777720677e-01
     9   -3.055989169233e-01
    10    2.901774294166e-01
    11    2.961961234031e-03
    12    7.482507794173e-01
    13   -7.105352926416e-01
    14   -6.238309919888e-03
    15    1.983284571435e-03
    16   -3.654719635425e-03
    17   -3.280101655086e-03
    18    3.034169654670e-03
    19   -5.979191677909e-02
    20   -2.376953227313e-01
    21   -4.789508765153e-02
    22    2.808606378832e-02
    23   -2.066753154858e-02
    24    1.765686395046e-04
    25    6.259662441184e-03
    26    1.690106635530e-01
    27    4.170041196868e-01
    28    3.055537411390e-01
    29   -2.901993121944e-01
    30   -2.710111167912e-03
    31   -7.485247750232e-01
    32    7.107511062531e-01
    33    7.766300294697e-03
    34    1.982698394801e-03
    35   -3.642255330012e-03
    36   -3.291741601464e-03
    37    3.057335175028e-03
    38   -5.979078676837e-02
    39   -2.378008225873e-01
    40   -4.791033418253e-02
    41   -2.808699481659e-02
    42    2.065003208103e-02
    43   -2.403062353184e-05
    44   -2.377265813906e-01
    45   -4.797146026321e-02
    46   -2.208153880203e-02
    47    2.698199866190e-02
    48    6.467810320863e-04
Sym=X
Ene= 0.608868
Spin=Alpha
Occup=0
     1    5.192600428763e-01
     2   -2.451678022345e-01
     3    5.950917822340e-02
     4   -3.707737009502e-02
     5    8.082493481846e-04
     6   -5.374633382198e-06
     7    1.253364169304e-05
     8   -8.254467351670e-05
     9    3.561709259268e-02
    10    3.753412297845e-02
    11    3.974946985219e-03
    12   -2.609981332686e-01
    13   -2.749584104890e-01
    14   -2.916901807174e-02
    15   -6.606014593436e-06
    16    8.156652088607e-03
    17   -8.021548396731e-03
    18    1.485930499961e-01
    19    7.532232577023e-03
    20   -5.194587925411e-01
    21    2.451826113854e-01
    22   -4.004664664965e-02
    23    5.753504955566e-02
    24    1.360982272538e-03
    25    2.489526622540e-06
    26   -1.658515432742e-05
    27    3.007676485203e-04
    28    3.567138868592e-02
    29    3.748527960158e-02
    30    3.980886777425e-03
    31   -2.612140074088e-01
    32   -2.747818410410e-01
    33   -2.912096516994e-02
    34    2.333835674233e-04
    35   -7.027741606617e-03
    36    9.206499059759e-03
    37   -1.485839054464e-01
    38   -7.666057806635e-03
    39    5.193910660172e-01
    40   -2.452577564778e-01
    41   -4.007467619567e-02
    42    5.751624139519e-02
    43    1.743734167358e-03
    44   -5.193742038667e-01
    45    2.451768130788e-01
    46    5.952466867352e-02
    47   -3.704009714616e-02
    48    4.287622072071e-04
Sym=X
Ene= 0.688652
Spin=Alpha
Occup=0
     1    2.629794423733e-03
     2   -1.779038987709e-03
     3    1.654834227345e-03
     4    1.381761725267e-03
     5   -1.874517938241e-02
     6    1.889636183795e-04
     7    2.943592059672e-03
     8   -2.121147813894e-03
     9    3.143913770004e-02
    10    4.126321199190e-02
    11   -6.706135785359e-01
    12   -2.905707728380e-02
    13   -3.738488612554e-02
    14    6.126374124221e-01
    15   -2.439909413353e-03
    16    8.271781294343e-02
    17   -7.822799909538e-02
    18   -8.719415597323e-03
    19   -7.935289413233e-04
    20    2.625272161076e-03
    21   -1.758776648565e-03
    22    6.982465749340e-04
    23    3.742464454008e-04
    24   -1.884931171130e-02
    25    1.857074137086e-04
    26    2.981562889456e-03
    27   -2.263759268797e-03
    28    3.297958472945e-02
    29    3.975865184648e-02
    30   -6.706290911950e-01
    31   -3.002536267281e-02
    32   -3.641072796690e-02
    33    6.126467038517e-01
    34    2.138822137987e-04
    35   -8.248331191405e-02
    36    7.850472748207e-02
    37    8.686282228536e-03
    38    1.622995236743e-03
    39    2.562476350806e-03
    40   -1.875345998405e-03
    41    1.097743081600e-03
    42    1.904580952581e-03
    43   -1.873543815143e-02
    44    2.566247472369e-03
    45   -1.894960588445e-03
    46    1.419988876770e-04
    47    8.979676733790e-04
    48   -1.884858941176e-02
Sym=X
Ene= 0.704765
Spin=Alpha
Occup=0
     1   -4.879499650068e-01
     2    1.637780172145e-01
     3   -7.810379969672e-02
     4   -4.435547995939e-02
     5   -6.580716094621e-03
     6   -4.595700762296e-02
     7   -3.012909604017e-01
     8    4.637034660450e-01
     9    1.960936637006e-01
    10   -1.858287253981e-01
    11   -5.835768904228e-03
    12   -5.789955455912e-02
    13    5.467899952055e-02
    14    4.954446835289e-03
    15    1.911395516167e-01
    16   -2.041150033937e-02
    17   -2.411281991322e-02
    18    3.737982004521e-03
    19   -7.662341790916e-02
    20   -4.879260577165e-01
    21    1.639048579002e-01
    22    4.034317537884e-02
    23    8.025024140472e-02
    24    6.638467414237e-03
    25   -4.595106980159e-02
    26   -3.012906459751e-01
    27    4.634007126299e-01
    28   -1.956926222803e-01
    29    1.863311955881e-01
    30   -2.174273524153e-03
    31    5.727254004728e-02
    32   -5.503634847884e-02
    33    4.018087093767e-03
    34    1.911436151871e-01
    35   -2.052834541618e-02
    36   -2.398542523799e-02
    37    3.762862607576e-03
    38   -7.661076772245e-02
    39   -4.879631537933e-01
    40    1.638855873613e-01
    41   -4.032984736042e-02
    42   -8.023656680920e-02
    43   -6.921249764741e-03
    44   -4.878913829235e-01
    45    1.636632198098e-01
    46    7.811155175946e-02
    47    4.437003589242e-02
    48    6.291603477421e-03
Sym=X
Ene= 0.775742
Spin=Alpha
Occup=0
     1    5.387690089303e-01
     2   -4.806384631839e-01
     3    1.077293175099e-01
     4    2.644266194360e-02
     5    6.818088503023e-03
     6    8.893474287038e-02
     7   -2.266923670282e-01
     8   -5.667468518325e-01
     9    1.033705015946e-01
    10   -9.846732848262e-02
    11    2.390623164862e-03
    12    2.945030210829e-01
    13   -2.791007501934e-01
    14   -1.020070998904e-02
    15   -2.032367883355e-01
    16    1.806707437433e-02
    17    2.121561104405e-02
    18   -2.742222567862e-04
    19    7.655237948840e-03
    20    5.386862782897e-01
    21   -4.807718188159e-01
    22   -2.093451799205e-02
    23   -1.088928385901e-01
    24   -7.541580064705e-03
    25   -8.893592293555e-02
    26    2.266962905577e-01
    27    5.667999683476e-01
    28    1.036845680364e-01
    29   -9.808316355413e-02
    30   -4.276839730759e-03
    31    2.937634457684e-01
    32   -2.799445836875e-01
    33    4.703246073513e-03
    34    2.032236244614e-01
    35   -1.684816567851e-02
    36   -2.234384542926e-02
    37    1.300160489272e-04
    38   -7.672662578414e-03
    39   -5.387107922631e-01
    40    4.807465757139e-01
    41   -2.094043556615e-02
    42   -1.088779691944e-01
    43   -7.622869034429e-03
    44   -5.388001404739e-01
    45    4.806455363664e-01
    46    1.077423324659e-01
    47    2.644465177240e-02
    48    6.727569415772e-03
Sym=X
Ene= 0.807406
Spin=Alpha
Occup=0
     1   -2.070968123051e-03
     2    2.908491177716e-03
     3   -2.391762399307e-03
     4   -1.681231152539e-03
     5    3.140408817604e-02
     6   -4.029272235500e-04
     7    8.729208166567e-04
     8   -4.977844396313e-04
     9   -3.846756404457e-02
    10   -4.453095546015e-02
    11    7.642469594059e-01
    12    5.382415472909e-02
    13    6.815190039558e-02
    14   -1.124340442904e+00
    15    3.145108906455e-04
    16    6.528867807117e-02
    17   -6.214718524181e-02
    18   -6.904218656537e-03
    19   -5.161682479192e-04
    20   -2.072151724645e-03
    21    2.967396366728e-03
    22   -1.767780063360e-03
    23   -1.022797920521e-03
    24    3.146274216827e-02
    25    3.996477961682e-04
    26   -8.105701655613e-04
    27    4.662371010484e-04
    28    3.496617040454e-02
    29    4.777958657551e-02
    30   -7.642209262869e-01
    31   -5.422651811465e-02
    32   -6.764124436008e-02
    33    1.124352415411e+00
    34   -2.417987510143e-03
    35    6.546499547434e-02
    36   -6.190409955459e-02
    37   -6.871609763333e-03
    38   -1.404964398814e-03
    39    2.068745230832e-03
    40   -2.984737645559e-03
    41    1.245370050421e-03
    42    2.787602890818e-03
    43   -3.138065076791e-02
    44    2.068029662880e-03
    45   -2.925724884708e-03
    46    6.130714112183e-04
    47    2.120806859601e-03
    48   -3.145975476581e-02
Sym=X
Ene= 0.858421
Spin=Alpha
Occup=0
     1    1.432494855568e-02
     2   -1.075748638466e+00
     3    1.463148223150e-01
     4    5.606536435561e-02
     5    1.062930149356e-02
     6    3.324083959707e-06
     7   -1.727476464831e-05
     8    2.197761608036e-05
     9   -4.116833726098e-01
    10   -4.330620413571e-01
    11   -4.596563173523e-02
    12    9.372208144601e-01
    13    9.858662892726e-01
    14    1.046388655155e-01
    15   -1.979588552508e-04
    16    1.187976475211e-02
    17   -1.324070417684e-02
    18    2.303764521087e-01
    19    1.177482109500e-02
    20   -1.428617498976e-02
    21    1.075660574444e+00
    22    4.856556666645e-02
    23    1.489169646864e-01
    24    1.111775494937e-02
    25   -6.163198363556e-06
    26   -2.750577131221e-05
    27   -3.324330609559e-06
    28   -4.117118463035e-01
    29   -4.330707645981e-01
    30   -4.590286331059e-02
    31    9.373161298783e-01
    32    9.858551420227e-01
    33    1.045017193836e-01
    34    2.505649779684e-04
    35   -1.167449918125e-02
    36    1.345702721035e-02
    37   -2.303817680817e-01
    38   -1.178291922003e-02
    39    1.427480204568e-02
    40   -1.075668400920e+00
    41    4.854538758839e-02
    42    1.488954112247e-01
    43    1.155196742167e-02
    44   -1.432675003081e-02
    45    1.075763264233e+00
    46    1.463424963171e-01
    47    5.607702735358e-02
    48    1.018586788080e-02
Sym=X
Ene= 0.928008
Spin=Alpha
Occup=0
     1    1.417592956466e-01
     2   -1.231291366400e+00
     3    1.826959512798e-01
     4   -5.762443076160e-03
     5    8.842953890140e-03
     6    5.120959810541e-07
     7    5.098413980030e-05
     8   -1.716348300837e-04
     9   -4.740159730726e-01
    10   -4.985335866044e-01
    11   -5.289173557183e-02
    12    1.382920434430e+00
    13    1.454490749249e+00
    14    1.543108796485e-01
    15    1.176430914396e-05
    16    7.166542335857e-03
    17   -6.507890896494e-03
    18    1.256452973647e-01
    19    6.388651772228e-03
    20   -1.417066761633e-01
    21    1.231185694767e+00
    22   -1.506989799183e-02
    23    1.820940816316e-01
    24    9.866281461443e-03
    25    4.401889263809e-06
    26    1.027721809255e-04
    27   -9.276173059152e-05
    28    4.739361276597e-01
    29    4.985933636470e-01
    30    5.287260547978e-02
    31   -1.382659351336e+00
    32   -1.454669068102e+00
    33   -1.542556132979e-01
    34   -2.732860369787e-04
    35    5.690997400931e-03
    36   -8.037923677087e-03
    37    1.256207274487e-01
    38    6.479924083016e-03
    39   -1.417340354761e-01
    40    1.231334794469e+00
    41    1.509101770696e-02
    42   -1.820611128222e-01
    43   -1.067509398267e-02
    44    1.417359395448e-01
    45   -1.231082610261e+00
    46   -1.827103315609e-01
    47    5.744979868683e-03
    48   -8.020189731257e-03
Sym=X
Ene= 0.970585
Spin=Alpha
Occup=0
     1   -5.974241123531e-02
     2    8.965890370946e-01
     3   -8.753435311082e-02
     4   -9.659735918354e-02
     5   -1.043213809088e-02
     6    2.707023945775e-02
     7    2.529120884817e-01
     8    5.138965186072e-01
     9    4.829646224178e-01
    10   -4.589618941879e-01
    11   -2.584185226560e-03
    12   -1.474345554316e+00
    13    1.401118493823e+00
    14    8.436918623483e-03
    15   -5.792228323605e-02
    16   -1.250835929483e-02
    17   -9.066971679874e-03
    18    1.521588675051e-02
    19   -2.963682135757e-01
    20   -5.974330352483e-02
    21    8.968552790911e-01
    22    9.207905292575e-02
    23    9.238630949578e-02
    24    9.612210034131e-03
    25   -2.706961688840e-02
    26   -2.528466853546e-01
    27   -5.140020098902e-01
    28    4.832284201391e-01
    29   -4.586391211082e-01
    30   -6.440499220934e-03
    31   -1.475221093708e+00
    32    1.400099954017e+00
    33    1.907816552316e-02
    34    5.792166142512e-02
    35    1.226948562679e-02
    36    9.294597501749e-03
    37   -1.515949445406e-02
    38    2.963604150322e-01
    39    5.976531881590e-02
    40   -8.965368848173e-01
    41    9.204333028287e-02
    42    9.229607240189e-02
    43    1.040775559029e-02
    44    5.972782179642e-02
    45   -8.968473916880e-01
    46   -8.760828885499e-02
    47   -9.663665455055e-02
    48   -9.632364930271e-03
[5D]

======= END OF MOLDEN-FORMATTED INPUT FILE =======


        *************************************************************
        *                                                           *
        *  Thank you very much for using Q-Chem.  Have a nice day.  *
        *                                                           *
        *************************************************************


