                  Welcome to Q-Chem
     A Quantum Leap Into The Future Of Chemistry


 Q-Chem 5.4 (devel), Q-Chem, Inc., Pleasanton, CA (2021)

 E. Epifanovsky,  A. T. B. Gilbert,  Xintian Feng,  Joonho Lee,  Yuezhi Mao,  
 N. Mardirossian,  P. Pokhilko,  A. White,  M. Wormit,  M. P. Coons,  
 A. L. Dempwolff,  Zhengting Gan,  D. Hait,  P. R. Horn,  L. D. Jacobson,  
 I. Kaliman,  J. Kussmann,  A. W. Lange,  Ka Un Lao,  D. S. Levine,  Jie Liu,  
 S. C. McKenzie,  A. F. Morrison,  K. Nanda,  F. Plasser,  D. R. Rehn,  
 M. L. Vidal,  Zhi-Qiang You,  Ying Zhu,  B. Alam,  B. Albrecht,  
 A. Aldossary,  E. Alguire,  J. H. Andersen,  D. Barton,  K. Begam,  A. Behn,  
 Y. A. Bernard,  E. J. Berquist,  H. Burton,  A. Carreras,  K. Carter-Fenk,  
 R. Chakraborty,  A. D. Chien,  K. D. Closser,  V. Cofer-Shabica,  
 S. Dasgupta,  Jia Deng,  M. de Wergifosse,  M. Diedenhofen,  Hainam Do,  
 S. Ehlert,  Po-Tung Fang,  S. Fatehi,  Qingguo Feng,  T. Friedhoff,  
 J. Gayvert,  Qinghui Ge,  G. Gidofalvi,  M. Goldey,  J. Gomes,  
 C. Gonzalez-Espinoza,  S. Gulania,  A. Gunina,  M. W. D. Hanson-Heine,  
 P. H. P. Harbach,  A. W. Hauser,  M. F. Herbst,  M. Hernandez Vera,  
 M. Hodecker,  Z. C. Holden,  S. Houck,  Xunkun Huang,  Kerwin Hui,  
 B. C. Huynh,  M. Ivanov,  Hyunjun Ji,  Hanjie Jiang,  B. Kaduk,  S. Kaehler,  
 K. Khistyaev,  Jaehoon Kim,  P. Klunzinger,  Z. Koczor-Benda,  
 Joong Hoon Koh,  D. Kosenkov,  L. Koulias,  T. Kowalczyk,  C. M. Krauter,  
 K. Kue,  A. Kunitsa,  T. Kus,  A. Landau,  K. V. Lawler,  D. Lefrancois,  
 S. Lehtola,  Rain Li,  Yi-Pei Li,  Jiashu Liang,  M. Liebenthal,  
 Hung-Hsuan Lin,  You-Sheng Lin,  Fenglai Liu,  Kuan-Yu Liu,  
 M. Loipersberger,  A. Luenser,  A. Manjanath,  P. Manohar,  E. Mansoor,  
 S. F. Manzer,  Shan-Ping Mao,  A. V. Marenich,  T. Markovich,  S. Mason,  
 S. A. Maurer,  P. F. McLaughlin,  M. F. S. J. Menger,  J.-M. Mewes,  
 S. A. Mewes,  P. Morgante,  J. W. Mullinax,  K. J. Oosterbaan,  G. Paran,  
 Alexander C. Paul,  Suranjan K. Paul,  F. Pavosevic,  Zheng Pei,  S. Prager,  
 E. I. Proynov,  E. Ramos,  B. Rana,  A. E. Rask,  A. Rettig,  R. M. Richard,  
 F. Rob,  E. Rossomme,  T. Scheele,  M. Scheurer,  M. Schneider,  
 N. Sergueev,  S. M. Sharada,  W. Skomorowski,  D. W. Small,  C. J. Stein,  
 Yu-Chuan Su,  E. J. Sundstrom,  Zhen Tao,  J. Thirman,  T. Tsuchimochi,  
 N. M. Tubman,  S. P. Veccham,  O. Vydrov,  J. Wenzel,  J. Witte,  A. Yamada,  
 Kun Yao,  S. Yeganeh,  S. R. Yost,  A. Zech,  Igor Ying Zhang,  Xing Zhang,  
 Yu Zhang,  D. Zuev,  A. Aspuru-Guzik,  A. T. Bell,  N. A. Besley,  
 K. B. Bravaya,  B. R. Brooks,  D. Casanova,  Jeng-Da Chai,  S. Coriani,  
 C. J. Cramer,  A. E. DePrince, III,  R. A. DiStasio Jr.,  A. Dreuw,  
 B. D. Dunietz,  T. R. Furlani,  W. A. Goddard III,  S. Grimme,  
 S. Hammes-Schiffer,  T. Head-Gordon,  W. J. Hehre,  Chao-Ping Hsu,  
 T.-C. Jagau,  Yousung Jung,  A. Klamt,  Jing Kong,  D. S. Lambrecht,  
 WanZhen Liang,  N. J. Mayhall,  C. W. McCurdy,  J. B. Neaton,  
 C. Ochsenfeld,  J. A. Parkhill,  R. Peverati,  V. A. Rassolov,  Yihan Shao,  
 L. V. Slipchenko,  T. Stauch,  R. P. Steele,  J. E. Subotnik,  
 A. J. W. Thom,  A. Tkatchenko,  D. G. Truhlar,  T. Van Voorhis,  
 T. A. Wesolowski,  K. B. Whaley,  H. L. Woodcock III,  P. M. Zimmerman,  
 S. Faraji,  P. M. W. Gill,  M. Head-Gordon,  J. M. Herbert,  A. I. Krylov

 Additional authors for Version 5.4.1: 
 S. Kotaru,  Shaozhi Li,  Xiangyuan Li,  F. Matz,  A. Molle,  Haisheng Ren,  
 Yingli Su,  Hung-Yi Tsai,  C. Utku,  Fang Wang

 Contributors to earlier versions of Q-Chem not listed above: 
 R. D. Adamson,  B. Austin,  R. Baer,  J. Baker,  G. J. O. Beran,  
 K. Brandhorst,  S. T. Brown,  E. F. C. Byrd,  A. K. Chakraborty,  
 G. K. L. Chan,  Chun-Min Chang,  Yunqing Chen,  C.-L. Cheng,  
 Siu Hung Chien,  D. M. Chipman,  D. L. Crittenden,  H. Dachsel,  
 R. J. Doerksen,  A. D. Dutoi,  R. G. Edgar,  J. Fosso-Tande,  
 L. Fusti-Molnar,  D. Ghosh,  A. Ghysels,  A. Golubeva-Zadorozhnaya,  
 J. Gonthier,  M. S. Gordon,  S. R. Gwaltney,  G. Hawkins,  J. E. Herr,  
 A. Heyden,  S. Hirata,  E. G. Hohenstein,  G. Kedziora,  F. J. Keil,  
 C. Kelley,  Jihan Kim,  R. A. King,  R. Z. Khaliullin,  P. P. Korambath,  
 W. Kurlancheek,  A. Laurent,  A. M. Lee,  M. S. Lee,  S. V. Levchenko,  
 Ching Yeh Lin,  D. Liotard,  E. Livshits,  R. C. Lochan,  I. Lotan,  
 L. A. Martinez-Martinez,  P. E. Maslen,  N. Nair,  D. P. O'Neill,  
 D. Neuhauser,  E. Neuscamman,  C. M. Oana,  R. Olivares-Amaya,  R. Olson,  
 T. M. Perrine,  B. Peters,  P. A. Pieniazek,  A. Prociuk,  Y. M. Rhee,  
 J. Ritchie,  M. A. Rohrdanz,  E. Rosta,  N. J. Russ,  H. F. Schaefer III,  
 M. W. Schmidt,  N. E. Schultz,  S. Sharma,  N. Shenvi,  C. D. Sherrill,  
 A. C. Simmonett,  A. Sodt,  T. Stein,  D. Stuck,  K. S. Thanthiriwatte,  
 V. Vanovschi,  L. Vogt,  Tao Wang,  A. Warshel,  M. A. Watson,  
 C. F. Williams,  Q. Wu,  X. Xu,  Jun Yang,  W. Zhang,  Yan Zhao

 Please cite Q-Chem as follows:
 Y. Shao et al., Mol. Phys. 113, 184-215 (2015)
 DOI: 10.1080/00268976.2014.952696

 Q-Chem 5.4.1 for Intel X86 EM64T Linux

 Parts of Q-Chem use Armadillo 9.800.1 (Horizon Scraper).
 http://arma.sourceforge.net/

 Q-Chem begins on Wed Mar 15 17:55:16 2023  

 Host: cpu121.yggdrasil
0

     Scratch files written to /srv/beegfs/scratch/users/f/fum/qchem94334//
 Processing $rem in /home/share/wesolowski/qc5.aug2021.FDE/config/preferences:
 Processing $rem in /home/fum/.qchemrc:

 Checking the input file for inconsistencies... 	...done.

--------------------------------------------------------------
User input:
--------------------------------------------------------------
$comment
generated from CCJob.Templates
$end

$rem
sym_ignore = true
method = adc(2)
ee_states = 10
basis = cc-pVDZ
mem_static = 1024
mem_total = 40000
adc_davidson_maxiter = 900
adc_davidson_conv = 6
adc_print = 3
adc_prop_es = true
adc_prop_es2es = true
adc_prop_tpa = true
molden_format = True
state_analysis = true
print_orbitals = 15
gen_scfman = false
fde_export_density = true
fde_details = 3
$end

$molecule
0 1
H -0.0348278765 -0.2442097827 0.0636489606
C -1.0765972949 -0.5242748755 -0.0023551776
H -1.313264467 -1.5767591607 -0.03572769259999999
C -2.043634118 0.3926884087 0.0061254933
H -1.8137616575 1.4459188338 0.0804456828
H -3.085977293 0.114931858 -0.0593381042                     
$end
--------------------------------------------------------------
 ----------------------------------------------------------------
             Standard Nuclear Orientation (Angstroms)
    I     Atom           X                Y                Z
 ----------------------------------------------------------------
    1      H      -0.0348278765    -0.2442097827     0.0636489606
    2      C      -1.0765972949    -0.5242748755    -0.0023551776
    3      H      -1.3132644670    -1.5767591607    -0.0357276926
    4      C      -2.0436341180     0.3926884087     0.0061254933
    5      H      -1.8137616575     1.4459188338     0.0804456828
    6      H      -3.0859772930     0.1149318580    -0.0593381042
 ----------------------------------------------------------------
 Nuclear Repulsion Energy =          33.43036786 hartrees
 There are        8 alpha and        8 beta electrons
 Requested basis set is cc-pVDZ
 There are 24 shells and 48 basis functions
 Total memory of 40000 MB is distributed as follows: 
   MEM_STATIC is set to 1024 MB
   QALLOC/CCMAN JOB total memory use is  38976 MB
 Warning: actual memory use might exceed 40000 MB

 Total QAlloc Memory Limit  40000 MB
 Mega-Array Size      1001 MB
 MEM_STATIC part      1024 MB

                       Distance Matrix (Angstroms)
             H (  1)   C (  2)   H (  3)   C (  4)   H (  5)
   C (  2)  1.080776
   H (  3)  1.849314  1.079281
   C (  4)  2.108139  1.332687  2.100932
   H (  5)  2.453859  2.105215  3.066036  1.080583
   H (  6)  3.074674  2.109370  2.450487  1.080700  1.846510

 A cutoff of  1.0D-11 yielded    300 shell pairs
 There are      1220 function pairs (      1329 Cartesian)
 Smallest overlap matrix eigenvalue = 4.80E-03

 Scale SEOQF with 1.000000e-01/1.000000e-01/1.000000e+00

 Standard Electronic Orientation quadrupole field applied
 Nucleus-field energy     =     0.0000000022 hartrees
 Guess from superposition of atomic densities
 Warning:  Energy on first SCF cycle will be non-variational
 SAD guess density has 16.000000 electrons
 A restricted Hartree-Fock SCF calculation will be
 performed using Pulay DIIS extrapolation
 SCF converges when DIIS error is below 1.0E-08
 using 10 threads for integral computing
 -------------------------------------------------------
 OpenMP Integral computing Module                
 Release: version 1.0, May 2013, Q-Chem Inc. Pittsburgh 
 -------------------------------------------------------
 ---------------------------------------
  Cycle       Energy         DIIS Error
 ---------------------------------------
    1     -78.4402259597      1.01E-01
    2     -78.0175964858      7.21E-03
    3     -78.0382315924      1.84E-03
    4     -78.0397146476      5.73E-04
    5     -78.0398363068      5.79E-05
    6     -78.0398381867      9.22E-06
    7     -78.0398382472      1.95E-06
    8     -78.0398382500      1.73E-07
    9     -78.0398382500      2.74E-08
   10     -78.0398382500      1.10E-08
   11     -78.0398382500      4.29E-09 Convergence criterion met
 ---------------------------------------
 SCF time:  CPU 1.98 s  wall 2.77 s
 SCF   energy in the final basis set = -78.03983825
 Total energy in the final basis set = -78.03983825
Exporting Density Matrix to file 'Densmat_SCF.txt'.
Export successful
================================================================================
|                                                                              |
|                                 A D C  M A N                                 |
|                                                                              |
 ------------------------------------------------------------------------------ 
|                                                                              |
| Components:                                                                  |
|                                                                              |
| - libvmm - 1.3-trunk                                                         |
|   Authors:                                                                   |
|   Evgeny Epifanovsky, Ilya Kaliman                                           |
|                                                                              |
| - libtensor - 2.5-trunk                                                      |
|   Authors:                                                                   |
|   Evgeny Epifanovsky, Michael Wormit, Dmitry Zuev, Sam Manzer,               |
|   Ilya Kaliman                                                               |
|                                                                              |
| - libwfa - 1.1-trunk                                                         |
|   Authors:                                                                   |
|   Felix Plasser, Stefanie Mewes (Baeppler), Benjamin Thomitzni,              |
|   Michael Wormit, Feng Chen, Anna I. Krylov, Pavel Pokhilko                  |
|                                                                              |
| - libadc - 1.1-trunk                                                         |
|   Authors:                                                                   |
|   Michael Wormit, Adrian L. Dempwolff, Philipp H. P. Harbach,                |
|   Caroline Krauter, Dirk Rehn, Matthias Schneider, Jan Wenzel                |
|                                                                              |
| - adcman - 2.6-trunk                                                         |
|   Authors:                                                                   |
|   Michael Wormit, Adrian L. Dempwolff, Philipp H. P. Harbach,                |
|   Caroline Krauter, Daniel Lefrancois, Jan-Michael Mewes, Dirk Rehn,         |
|   Matthias Schneider, Jan Wenzel, Andreas Dreuw                              |
|                                                                              |
| Authors of earlier versions of ADCMAN:                                       |
| Andreas Dreuw, Jan Hendrik Starcke, Dirk Rehn, Michael Wormit                |
|                                                                              |
================================================================================

 Created directory /srv/beegfs/scratch/users/f/fum/qchem94334/plots
  Import QC data ...  CPU 0.00 s  wall 0.00 s

 Alpha MOs, Restricted
 -- Occupied --                  
-11.235 -11.233  -1.032  -0.790  -0.641  -0.582  -0.505  -0.374
  1 A     2 A     3 A     4 A     5 A     6 A     7 A     8 A                  
 -- Virtual --                   
  0.168   0.204   0.233   0.239   0.303   0.462   0.578   0.615
  9 A    10 A    11 A    12 A    13 A    14 A    15 A    16 A                  
  0.689   0.709   0.785   0.808   0.862   0.936   0.973   1.010
 17 A    18 A    19 A    20 A    21 A    22 A    23 A    24 A                  
  1.130   1.235   1.250   1.268   1.296   1.602   1.728   1.751
 25 A    26 A    27 A    28 A    29 A    30 A    31 A    32 A                  
  1.819   1.859   1.867   1.921   1.977   1.979   2.221   2.258
 33 A    34 A    35 A    36 A    37 A    38 A    39 A    40 A                  
  2.376   2.455   2.507   2.635   2.722   2.823   3.140   3.400
 41 A    42 A    43 A    44 A    45 A    46 A    47 A    48 A                  

 Beta MOs, Restricted
 -- Occupied --                  
-11.235 -11.233  -1.032  -0.790  -0.641  -0.582  -0.505  -0.374
  1 A     2 A     3 A     4 A     5 A     6 A     7 A     8 A                  
 -- Virtual --                   
  0.168   0.204   0.233   0.239   0.303   0.462   0.578   0.615
  9 A    10 A    11 A    12 A    13 A    14 A    15 A    16 A                  
  0.689   0.709   0.785   0.808   0.862   0.936   0.973   1.010
 17 A    18 A    19 A    20 A    21 A    22 A    23 A    24 A                  
  1.130   1.235   1.250   1.268   1.296   1.602   1.728   1.751
 25 A    26 A    27 A    28 A    29 A    30 A    31 A    32 A                  
  1.819   1.859   1.867   1.921   1.977   1.979   2.221   2.258
 33 A    34 A    35 A    36 A    37 A    38 A    39 A    40 A                  
  2.376   2.455   2.507   2.635   2.722   2.823   3.140   3.400
 41 A    42 A    43 A    44 A    45 A    46 A    47 A    48 A                  
  Import AO data ...  CPU 0.00 s  wall 0.05 s
  Using point group: C1
  Irreducible representations in point group: A
  Molecular orbitals: 
  Occupied MOs:
  Block   0:   1 (  A) A   2 (  A) A   3 (  A) A   4 (  A) A   5 (  A) A
                  -11.24      -11.23      -1.032       -0.79     -0.6412
               6 (  A) A   7 (  A) A   8 (  A) A
                 -0.5821     -0.5047      -0.374
  Block   1:   1 (  A) B   2 (  A) B   3 (  A) B   4 (  A) B   5 (  A) B
                  -11.24      -11.23      -1.032       -0.79     -0.6412
               6 (  A) B   7 (  A) B   8 (  A) B
                 -0.5821     -0.5047      -0.374
  Virtual MOs:
  Block   0:   9 (  A) A  10 (  A) A  11 (  A) A  12 (  A) A  13 (  A) A
                  0.1683      0.2037      0.2331      0.2395      0.3033
              14 (  A) A  15 (  A) A  16 (  A) A  17 (  A) A  18 (  A) A
                  0.4621      0.5776      0.6151      0.6892      0.7093
              19 (  A) A  20 (  A) A  21 (  A) A  22 (  A) A
                  0.7849       0.808      0.8624      0.9361
  Block   1:  23 (  A) A  24 (  A) A  25 (  A) A  26 (  A) A  27 (  A) A
                  0.9726        1.01        1.13       1.235        1.25
              28 (  A) A  29 (  A) A  30 (  A) A  31 (  A) A  32 (  A) A
                   1.268       1.296       1.602       1.728       1.751
              33 (  A) A  34 (  A) A  35 (  A) A  36 (  A) A
                   1.819       1.859       1.867       1.921
  Block   2:  37 (  A) A  38 (  A) A  39 (  A) A  40 (  A) A  41 (  A) A
                   1.977       1.979       2.221       2.258       2.376
              42 (  A) A  43 (  A) A  44 (  A) A  45 (  A) A  46 (  A) A
                   2.455       2.507       2.635       2.722       2.823
              47 (  A) A  48 (  A) A
                    3.14         3.4
  Block   3:   9 (  A) B  10 (  A) B  11 (  A) B  12 (  A) B  13 (  A) B
                  0.1683      0.2037      0.2331      0.2395      0.3033
              14 (  A) B  15 (  A) B  16 (  A) B  17 (  A) B  18 (  A) B
                  0.4621      0.5776      0.6151      0.6892      0.7093
              19 (  A) B  20 (  A) B  21 (  A) B  22 (  A) B
                  0.7849       0.808      0.8624      0.9361
  Block   4:  23 (  A) B  24 (  A) B  25 (  A) B  26 (  A) B  27 (  A) B
                  0.9726        1.01        1.13       1.235        1.25
              28 (  A) B  29 (  A) B  30 (  A) B  31 (  A) B  32 (  A) B
                   1.268       1.296       1.602       1.728       1.751
              33 (  A) B  34 (  A) B  35 (  A) B  36 (  A) B
                   1.819       1.859       1.867       1.921
  Block   5:  37 (  A) B  38 (  A) B  39 (  A) B  40 (  A) B  41 (  A) B
                   1.977       1.979       2.221       2.258       2.376
              42 (  A) B  43 (  A) B  44 (  A) B  45 (  A) B  46 (  A) B
                   2.455       2.507       2.635       2.722       2.823
              47 (  A) B  48 (  A) B
                    3.14         3.4
  Import MO data ...  CPU 0.08 s  wall 0.02 s
  Import HF data ...  CPU 0.12 s  wall 0.05 s
  Import 2e integrals ...  CPU 0.89 s  wall 0.13 s

--------------------------------------------------------------------------------
                                   HF Summary                                   
--------------------------------------------------------------------------------
  Energy:                                                  -78.0398382500 a.u.
  Dip. moment [a.u.]:                  [  -0.001303,   -0.000050,    0.011406]
  Total dipole [Debye]:                                               0.029180
  <r^2> [a.u.]:                        [ 175.316964,   34.914291,   11.610892]
  Total <r^2> [a.u.]:                                               221.842147
--------------------------------------------------------------------------------
  HF properties ...  CPU 0.01 s  wall 0.01 s
  MP(1) calculation ...  CPU 0.01 s  wall 0.00 s
  N^6 prerequesite intermediates ...  CPU 0.55 s  wall 0.08 s
  Difference density matrix of state mp2_gs printed to ASCII file 'State_mp2_gs_Difference.txt'
Exporting MP density matrix to file 'Densmat_MP.txt'.
Export successful
  Total density matrix of state mp2_gs printed to ASCII file 'State_mp2_gs_Total.txt'
Exporting MP density matrix to file 'Densmat_MP.txt'.
Export successful

--------------------------------------------------------------------------------
                                 MP(2) Summary                                  
--------------------------------------------------------------------------------
  MP energy contribution:                                   -0.2796853456 a.u.
  Total energy:                                            -78.3195235956 a.u.
  Dip. moment [a.u.]:                  [  -0.001207,   -0.000127,    0.011258]
  Total dipole [Debye]:                                               0.028781
  <r^2> [a.u.]:                        [ 175.364226,   34.955392,   11.442642]
  Total <r^2> [a.u.]:                                               221.762260

  Density matrix analysis:
  ------------------------
  NOs
    Occupation of frontier NOs:
       0.0453   1.9383
    Number of electrons: 16.000000
    Number of unpaired electrons: n_u =  0.40333, n_u,nl =  0.04507
    NO participation ratio (PR_NO): 13.854424
  
  
  Mulliken Population Analysis
  Atom      Charge (e)              h+              e-           Del q
  --------------------------------------------------------------------
   1 H        0.050823        0.014048       -0.011196        0.002851
   2 C       -0.099986        0.093109       -0.098793       -0.005684
   3 H        0.050058        0.014107       -0.011185        0.002922
   4 C       -0.101621        0.092997       -0.098915       -0.005917
   5 H        0.050153        0.014120       -0.011184        0.002936
   6 H        0.050572        0.014083       -0.011191        0.002892
  --------------------------------------------------------------------
  Sum:        0.000000        0.242464       -0.242464       -0.000000
  
  Multipole moment analysis of the density matrix
    Molecular charge:                      0.000000
    Number of electrons:                   16.000000
      Center of electronic charge [Ang]: [ -1.560536,  -0.065598,   0.004106]
    Total nuclear charge:                  16.000000
      Center of nuclear charge [Ang]:    [ -1.560576,  -0.065602,   0.004478]
    Dipole moment [D]:                     0.028781
      Cartesian components [D]:          [ -0.003069,  -0.000324,   0.028615]
    RMS size of the density [Ang]:         1.200684
      Cartesian components [Ang]:        [  0.796187,   0.779409,   0.447493]
  
  Exciton analysis of the difference density matrix
    <r_h> [Ang]:                  [ -1.560353,  -0.065528,   0.002280]
    <r_e> [Ang]:                  [ -1.560563,  -0.065359,   0.002603]
    |<r_e - r_h>| [Ang]:            0.000420
    Hole size [Ang]:                1.393477
      Cartesian components [Ang]: [  0.846665,   0.833759,   0.727861]
    Electron size [Ang]:            1.359736
      Cartesian components [Ang]: [  0.877937,   0.861769,   0.579192]
--------------------------------------------------------------------------------
  MP(2) calculation ...  CPU 0.18 s  wall 0.25 s
  Start ADC(2)-s ...  CPU 0.01 s  wall 0.00 s
  ADC(2) intermediates ...  CPU 0.02 s  wall 0.01 s
  Starting Davidson for singlet states of irrep A ... 
--------------------------------------------------------------------------------
   It NVec Conv  Avg. Norm  Max. Norm  Conv. states           Remark
--------------------------------------------------------------------------------
        10    0  1.330e-01  4.688e-01  0.4119 n n n n n n n n Guess.
    1   20    0  2.322e-02  1.109e-01  0.3257 n n n n n n n n 
    2   30    0  6.093e-03  2.474e-02  0.3211 n n n n n n n n 
    3   40    0  2.076e-03  1.016e-02  0.3207 n n n n n n n n 
    4   50    0  5.338e-04  3.348e-03  0.3207 n n n n n n n n 
    5   20    0  2.988e-04  1.565e-03  0.3207 n n n n n n n n Subspace collapsed.
    6   30    0  2.364e-04  1.353e-03  0.3207 n n n n n n n n 
    7   40    0  1.824e-04  1.180e-03  0.3207 n n n n n n n n 
    8   50    0  1.102e-04  7.736e-04  0.3207 n n n n n n n n 
    9   20    0  5.284e-05  3.563e-04  0.3207 n n n n n n n n Subspace collapsed.
   10   30    1  4.354e-05  2.823e-04  0.3207 n y n n n n n n 
   11   40    3  1.935e-05  1.240e-04  0.3207 n y y y n n n n 
   12   50    5  9.819e-06  7.360e-05  0.3207 y y y y y n n n 
   13   20    6  9.118e-06  7.128e-05  0.3207 y y y y y y n n Subspace collapsed.
   14   30    6  1.135e-05  9.405e-05  0.3207 y y y y y y n n 
   15   40    6  1.279e-05  1.162e-04  0.3207 y y y y y y n n 
   16   50    6  7.686e-06  7.278e-05  0.3207 y y y y y y n n 
   17   20    6  4.792e-06  4.564e-05  0.3207 y y y y y y n n Subspace collapsed.
   18   30    6  2.712e-06  2.584e-05  0.3207 y y y y y y n n 
   19   40    6  1.817e-06  1.740e-05  0.3207 y y y y y y n n 
   20   50    7  1.571e-06  1.524e-05  0.3207 y y y y y y y n 
   21   20    8  1.002e-06  9.753e-06  0.3207 y y y y y y y y Subspace collapsed.
   22   30    8  1.508e-06  1.480e-05  0.3207 y y y y y y y y 
   23   40    8  1.526e-06  1.512e-05  0.3207 y y y y y y y y 
   24   50    8  1.243e-06  1.237e-05  0.3207 y y y y y y y y 
   25   18    9  5.807e-07  5.779e-06  0.3207 y y y y y y y y Subspace collapsed.
   26   25    9  5.496e-07  5.470e-06  0.3207 y y y y y y y y 
   27   31    9  3.017e-07  3.005e-06  0.3207 y y y y y y y y 
   28   37    9  2.494e-07  2.486e-06  0.3207 y y y y y y y y 
   29   43    9  3.040e-07  3.034e-06  0.3207 y y y y y y y y 
   30   43    9  3.040e-07  3.034e-06  0.3207 y y y y y y y y 
   31   50    9  3.322e-07  3.317e-06  0.3207 y y y y y y y y 
   32   15    9  1.610e-07  1.608e-06  0.3207 y y y y y y y y Subspace collapsed.
   33   20    9  1.348e-07  1.347e-06  0.3207 y y y y y y y y 
   34   20    9  1.348e-07  1.347e-06  0.3207 y y y y y y y y 
   35   21    9  1.334e-07  1.332e-06  0.3207 y y y y y y y y 
   36   25    9  1.264e-07  1.263e-06  0.3207 y y y y y y y y 
   37   29    9  1.435e-07  1.434e-06  0.3207 y y y y y y y y 
   38   33    9  1.257e-07  1.256e-06  0.3207 y y y y y y y y 
   39   37    9  1.056e-07  1.056e-06  0.3207 y y y y y y y y 
   40   41   10  6.196e-08  6.195e-07  0.3207 y y y y y y y y Converged.
--------------------------------------------------------------------------------
  Davidson Summary: 
 ------------------------------------------------------------
  State  0: excitation energy =   0.3207 a.u.   (converged)
  State  1: excitation energy =   0.3330 a.u.   (converged)
  State  2: excitation energy =   0.3371 a.u.   (converged)
  State  3: excitation energy =   0.3615 a.u.   (converged)
  State  4: excitation energy =   0.3753 a.u.   (converged)
  State  5: excitation energy =   0.3872 a.u.   (converged)
  State  6: excitation energy =   0.4249 a.u.   (converged)
  State  7: excitation energy =   0.4470 a.u.   (converged)
  State  8: excitation energy =   0.4563 a.u.   (converged)
  State  9: excitation energy =   0.4649 a.u.   (converged)
 ------------------------------------------------------------

  Singlet states of irrep A ...  CPU 147.43 s  wall 38.49 s
  TDMs ...  CPU 1.00 s  wall 0.36 s
  SDMs ...  CPU 3.02 s  wall 0.80 s
  Starting TPA DIIS iterations ... 
------------------------------------ 
   It     Res. Norm  Remark
------------------------------------
                       Guess.
    1     4.403e+00  
    2     5.835e+00  
    3     1.076e+00  
    4     2.565e-01  
    5     6.576e-02  
    6     2.676e-02  
    7     8.208e-03  
    8     1.426e-03  
    9     5.089e-04  
   10     1.186e-04  
   11     3.491e-05  
   12     1.419e-05  
   13     4.004e-06  
   14     2.229e-06  
   15     4.422e-07  Converged.
   ... Converged in 15 steps (norm: 4.42205e-07)
------------------------------------
  Starting TPA DIIS iterations ... 
------------------------------------ 
   It     Res. Norm  Remark
------------------------------------
                       Guess.
    1     4.179e+00  
    2     5.531e+00  
    3     1.027e+00  
    4     2.549e-01  
    5     6.525e-02  
    6     2.682e-02  
    7     8.096e-03  
    8     1.545e-03  
    9     5.517e-04  
   10     1.331e-04  
   11     4.504e-05  
   12     1.764e-05  
   13     5.690e-06  
   14     3.092e-06  
   15     5.289e-07  Converged.
   ... Converged in 15 steps (norm: 5.28934e-07)
------------------------------------
  Starting TPA DIIS iterations ... 
------------------------------------ 
   It     Res. Norm  Remark
------------------------------------
                       Guess.
    1     6.905e-01  
    2     4.926e-01  
    3     1.742e-01  
    4     1.034e-01  
    5     1.727e-02  
    6     6.201e-03  
    7     1.028e-03  
    8     4.475e-04  
    9     1.240e-04  
   10     3.018e-05  
   11     5.124e-06  
   12     1.716e-06  
   13     1.071e-06  
   14     3.039e-07  Converged.
   ... Converged in 14 steps (norm: 3.03863e-07)
------------------------------------
  Starting TPA DIIS iterations ... 
------------------------------------ 
   It     Res. Norm  Remark
------------------------------------
                       Guess.
    1     4.706e+00  
    2     6.380e+00  
    3     1.162e+00  
    4     2.867e-01  
    5     7.457e-02  
    6     3.062e-02  
    7     9.371e-03  
    8     1.625e-03  
    9     5.826e-04  
   10     1.405e-04  
   11     4.166e-05  
   12     1.775e-05  
   13     4.903e-06  
   14     2.897e-06  
   15     5.607e-07  Converged.
   ... Converged in 15 steps (norm: 5.60723e-07)
------------------------------------
  Starting TPA DIIS iterations ... 
------------------------------------ 
   It     Res. Norm  Remark
------------------------------------
                       Guess.
    1     4.466e+00  
    2     6.047e+00  
    3     1.108e+00  
    4     2.847e-01  
    5     7.402e-02  
    6     3.072e-02  
    7     9.249e-03  
    8     1.776e-03  
    9     6.389e-04  
   10     1.587e-04  
   11     5.598e-05  
   12     2.224e-05  
   13     7.306e-06  
   14     3.877e-06  
   15     6.810e-07  Converged.
   ... Converged in 15 steps (norm: 6.80985e-07)
------------------------------------
  Starting TPA DIIS iterations ... 
------------------------------------ 
   It     Res. Norm  Remark
------------------------------------
                       Guess.
    1     7.037e-01  
    2     5.125e-01  
    3     1.853e-01  
    4     1.168e-01  
    5     1.872e-02  
    6     6.882e-03  
    7     1.169e-03  
    8     5.321e-04  
    9     1.514e-04  
   10     3.465e-05  
   11     5.836e-06  
   12     2.038e-06  
   13     1.302e-06  
   14     3.753e-07  Converged.
   ... Converged in 14 steps (norm: 3.75343e-07)
------------------------------------
  Starting TPA DIIS iterations ... 
------------------------------------ 
   It     Res. Norm  Remark
------------------------------------
                       Guess.
    1     4.816e+00  
    2     6.580e+00  
    3     1.193e+00  
    4     2.980e-01  
    5     7.785e-02  
    6     3.206e-02  
    7     9.803e-03  
    8     1.698e-03  
    9     6.101e-04  
   10     1.489e-04  
   11     4.427e-05  
   12     1.916e-05  
   13     5.255e-06  
   14     3.169e-06  
   15     6.080e-07  Converged.
   ... Converged in 15 steps (norm: 6.0796e-07)
------------------------------------
  Starting TPA DIIS iterations ... 
------------------------------------ 
   It     Res. Norm  Remark
------------------------------------
                       Guess.
    1     4.569e+00  
    2     6.236e+00  
    3     1.138e+00  
    4     2.957e-01  
    5     7.727e-02  
    6     3.218e-02  
    7     9.678e-03  
    8     1.862e-03  
    9     6.718e-04  
   10     1.685e-04  
   11     6.033e-05  
   12     2.407e-05  
   13     7.958e-06  
   14     4.185e-06  
   15     7.415e-07  Converged.
   ... Converged in 15 steps (norm: 7.41544e-07)
------------------------------------
  Starting TPA DIIS iterations ... 
------------------------------------ 
   It     Res. Norm  Remark
------------------------------------
                       Guess.
    1     7.083e-01  
    2     5.195e-01  
    3     1.892e-01  
    4     1.217e-01  
    5     1.926e-02  
    6     7.134e-03  
    7     1.222e-03  
    8     5.645e-04  
    9     1.618e-04  
   10     3.595e-05  
   11     6.094e-06  
   12     2.161e-06  
   13     1.390e-06  
   14     4.034e-07  Converged.
   ... Converged in 14 steps (norm: 4.03412e-07)
------------------------------------
  Starting TPA DIIS iterations ... 
------------------------------------ 
   It     Res. Norm  Remark
------------------------------------
                       Guess.
    1     5.560e+00  
    2     7.969e+00  
    3     1.401e+00  
    4     3.788e-01  
    5     1.014e-01  
    6     4.253e-02  
    7     1.292e-02  
    8     2.227e-03  
    9     8.080e-04  
   10     2.134e-04  
   11     6.469e-05  
   12     3.068e-05  
   13     8.085e-06  
   14     5.492e-06  
   15     9.960e-07  Converged.
   ... Converged in 15 steps (norm: 9.96028e-07)
------------------------------------
  Starting TPA DIIS iterations ... 
------------------------------------ 
   It     Res. Norm  Remark
------------------------------------
                       Guess.
    1     5.274e+00  
    2     7.552e+00  
    3     1.336e+00  
    4     3.752e-01  
    5     1.007e-01  
    6     4.279e-02  
    7     1.277e-02  
    8     2.495e-03  
    9     9.165e-04  
   10     2.444e-04  
   11     9.622e-05  
   12     3.892e-05  
   13     1.343e-05  
   14     6.621e-06  
   15     1.237e-06  
   16     5.785e-07  Converged.
   ... Converged in 16 steps (norm: 5.78468e-07)
------------------------------------
  Starting TPA DIIS iterations ... 
------------------------------------ 
   It     Res. Norm  Remark
------------------------------------
                       Guess.
    1     7.368e-01  
    2     5.653e-01  
    3     2.156e-01  
    4     1.555e-01  
    5     2.296e-02  
    6     8.953e-03  
    7     1.620e-03  
    8     8.018e-04  
    9     2.371e-04  
   10     4.082e-05  
   11     7.920e-06  
   12     3.073e-06  
   13     2.042e-06  
   14     6.294e-07  Converged.
   ... Converged in 14 steps (norm: 6.29445e-07)
------------------------------------
  Starting TPA DIIS iterations ... 
------------------------------------ 
   It     Res. Norm  Remark
------------------------------------
                       Guess.
    1     6.069e+00  
    2     8.952e+00  
    3     1.543e+00  
    4     4.382e-01  
    5     1.187e-01  
    6     5.032e-02  
    7     1.520e-02  
    8     2.613e-03  
    9     9.539e-04  
   10     2.651e-04  
   11     8.154e-05  
   12     4.065e-05  
   13     1.048e-05  
   14     7.588e-06  
   15     1.329e-06  
   16     1.050e-06  
   17     1.525e-07  Converged.
   ... Converged in 17 steps (norm: 1.52512e-07)
------------------------------------
  Starting TPA DIIS iterations ... 
------------------------------------ 
   It     Res. Norm  Remark
------------------------------------
                       Guess.
    1     5.755e+00  
    2     8.483e+00  
    3     1.471e+00  
    4     4.335e-01  
    5     1.179e-01  
    6     5.070e-02  
    7     1.504e-02  
    8     2.971e-03  
    9     1.105e-03  
   10     3.054e-04  
   11     1.274e-04  
   12     5.161e-05  
   13     1.831e-05  
   14     8.636e-06  
   15     1.663e-06  
   16     7.668e-07  Converged.
   ... Converged in 16 steps (norm: 7.6679e-07)
------------------------------------
  Starting TPA DIIS iterations ... 
------------------------------------ 
   It     Res. Norm  Remark
------------------------------------
                       Guess.
    1     7.541e-01  
    2     5.951e-01  
    3     2.331e-01  
    4     1.785e-01  
    5     2.559e-02  
    6     1.029e-02  
    7     1.929e-03  
    8     9.695e-04  
    9     2.896e-04  
   10     4.161e-05  
   11     9.273e-06  
   12     3.764e-06  
   13     2.522e-06  
   14     8.228e-07  Converged.
   ... Converged in 14 steps (norm: 8.22757e-07)
------------------------------------
  Starting TPA DIIS iterations ... 
------------------------------------ 
   It     Res. Norm  Remark
------------------------------------
                       Guess.
    1     6.570e+00  
    2     9.943e+00  
    3     1.681e+00  
    4     4.995e-01  
    5     1.366e-01  
    6     5.844e-02  
    7     1.756e-02  
    8     3.011e-03  
    9     1.105e-03  
   10     3.219e-04  
   11     1.006e-04  
   12     5.225e-05  
   13     1.321e-05  
   14     1.007e-05  
   15     1.708e-06  
   16     1.374e-06  
   17     1.864e-07  Converged.
   ... Converged in 17 steps (norm: 1.8638e-07)
------------------------------------
  Starting TPA DIIS iterations ... 
------------------------------------ 
   It     Res. Norm  Remark
------------------------------------
                       Guess.
    1     6.229e+00  
    2     9.422e+00  
    3     1.602e+00  
    4     4.937e-01  
    5     1.357e-01  
    6     5.896e-02  
    7     1.739e-02  
    8     3.473e-03  
    9     1.306e-03  
   10     3.726e-04  
   11     1.635e-04  
   12     6.615e-05  
   13     2.404e-05  
   14     1.089e-05  
   15     2.151e-06  
   16     9.780e-07  Converged.
   ... Converged in 16 steps (norm: 9.78003e-07)
------------------------------------
  Starting TPA DIIS iterations ... 
------------------------------------ 
   It     Res. Norm  Remark
------------------------------------
                       Guess.
    1     7.698e-01  
    2     6.234e-01  
    3     2.501e-01  
    4     2.006e-01  
    5     2.824e-02  
    6     1.168e-02  
    7     2.261e-03  
    8     1.128e-03  
    9     3.401e-04  
   10     4.195e-05  
   11     1.071e-05  
   12     4.493e-06  
   13     3.002e-06  
   14     1.047e-06  
   15     4.554e-07  Converged.
   ... Converged in 15 steps (norm: 4.55355e-07)
------------------------------------
  Starting TPA DIIS iterations ... 
------------------------------------ 
   It     Res. Norm  Remark
------------------------------------
                       Guess.
    1     8.696e+00  
    2     1.440e+01  
    3     2.260e+00  
    4     7.881e-01  
    5     2.208e-01  
    6     9.744e-02  
    7     2.867e-02  
    8     4.874e-03  
    9     1.824e-03  
   10     6.326e-04  
   11     2.154e-04  
   12     1.235e-04  
   13     2.894e-05  
   14     2.518e-05  
   15     3.830e-06  
   16     3.057e-06  
   17     4.458e-07  Converged.
   ... Converged in 17 steps (norm: 4.45823e-07)
------------------------------------
  Starting TPA DIIS iterations ... 
------------------------------------ 
   It     Res. Norm  Remark
------------------------------------
                       Guess.
    1     8.241e+00  
    2     1.364e+01  
    3     2.151e+00  
    4     7.757e-01  
    5     2.196e-01  
    6     9.875e-02  
    7     2.847e-02  
    8     5.964e-03  
    9     2.347e-03  
   10     7.382e-04  
   11     3.799e-04  
   12     1.511e-04  
   13     5.931e-05  
   14     2.347e-05  
   15     5.014e-06  
   16     2.151e-06  
   17     4.230e-07  Converged.
   ... Converged in 17 steps (norm: 4.22983e-07)
------------------------------------
  Starting TPA DIIS iterations ... 
------------------------------------ 
   It     Res. Norm  Remark
------------------------------------
                       Guess.
    1     8.258e-01  
    2     7.357e-01  
    3     3.187e-01  
    4     2.838e-01  
    5     4.012e-02  
    6     1.809e-02  
    7     3.924e-03  
    8     1.622e-03  
    9     5.356e-04  
   10     5.293e-05  
   11     1.801e-05  
   12     8.173e-06  
   13     4.934e-06  
   14     2.434e-06  
   15     9.873e-07  Converged.
   ... Converged in 15 steps (norm: 9.87299e-07)
------------------------------------
  Starting TPA DIIS iterations ... 
------------------------------------ 
   It     Res. Norm  Remark
------------------------------------
                       Guess.
    1     1.051e+01  
    2     1.848e+01  
    3     2.740e+00  
    4     1.062e+00  
    5     3.015e-01  
    6     1.357e-01  
    7     3.929e-02  
    8     6.651e-03  
    9     2.528e-03  
   10     9.883e-04  
   11     3.672e-04  
   12     2.146e-04  
   13     4.824e-05  
   14     4.345e-05  
   15     6.353e-06  
   16     4.670e-06  
   17     9.254e-07  Converged.
   ... Converged in 17 steps (norm: 9.25437e-07)
------------------------------------
  Starting TPA DIIS iterations ... 
------------------------------------ 
   It     Res. Norm  Remark
------------------------------------
                       Guess.
    1     9.959e+00  
    2     1.751e+01  
    3     2.608e+00  
    4     1.042e+00  
    5     3.000e-01  
    6     1.379e-01  
    7     3.911e-02  
    8     8.526e-03  
    9     3.468e-03  
   10     1.151e-03  
   11     6.451e-04  
   12     2.529e-04  
   13     1.028e-04  
   14     3.797e-05  
   15     8.427e-06  
   16     3.519e-06  
   17     8.008e-07  Converged.
   ... Converged in 17 steps (norm: 8.00808e-07)
------------------------------------
  Starting TPA DIIS iterations ... 
------------------------------------ 
   It     Res. Norm  Remark
------------------------------------
                       Guess.
    1     8.647e-01  
    2     8.254e-01  
    3     3.736e-01  
    4     3.394e-01  
    5     5.086e-02  
    6     2.383e-02  
    7     5.572e-03  
    8     1.817e-03  
    9     6.842e-04  
   10     7.379e-05  
   11     2.554e-05  
   12     1.221e-05  
   13     6.506e-06  
   14     4.129e-06  
   15     1.632e-06  
   16     4.578e-07  Converged.
   ... Converged in 16 steps (norm: 4.57848e-07)
------------------------------------
  Starting TPA DIIS iterations ... 
------------------------------------ 
   It     Res. Norm  Remark
------------------------------------
                       Guess.
    1     1.145e+01  
    2     2.068e+01  
    3     2.985e+00  
    4     1.212e+00  
    5     3.460e-01  
    6     1.571e-01  
    7     4.515e-02  
    8     7.630e-03  
    9     2.926e-03  
   10     1.206e-03  
   11     4.692e-04  
   12     2.731e-04  
   13     6.117e-05  
   14     5.468e-05  
   15     8.006e-06  
   16     5.466e-06  
   17     1.342e-06  
   18     9.576e-07  Converged.
   ... Converged in 18 steps (norm: 9.57609e-07)
------------------------------------
  Starting TPA DIIS iterations ... 
------------------------------------ 
   It     Res. Norm  Remark
------------------------------------
                       Guess.
    1     1.085e+01  
    2     1.960e+01  
    3     2.840e+00  
    4     1.188e+00  
    5     3.444e-01  
    6     1.599e-01  
    7     4.500e-02  
    8     1.001e-02  
    9     4.130e-03  
   10     1.400e-03  
   11     8.109e-04  
   12     3.160e-04  
   13     1.296e-04  
   14     4.684e-05  
   15     1.051e-05  
   16     4.381e-06  
   17     1.070e-06  
   18     6.896e-07  Converged.
   ... Converged in 18 steps (norm: 6.89593e-07)
------------------------------------
  Starting TPA DIIS iterations ... 
------------------------------------ 
   It     Res. Norm  Remark
------------------------------------
                       Guess.
    1     8.828e-01  
    2     8.708e-01  
    3     4.007e-01  
    4     3.634e-01  
    5     5.660e-02  
    6     2.676e-02  
    7     6.474e-03  
    8     1.872e-03  
    9     7.572e-04  
   10     8.629e-05  
   11     2.983e-05  
   12     1.469e-05  
   13     7.453e-06  
   14     5.151e-06  
   15     2.050e-06  
   16     6.348e-07  Converged.
   ... Converged in 16 steps (norm: 6.34821e-07)
------------------------------------
  Starting TPA DIIS iterations ... 
------------------------------------ 
   It     Res. Norm  Remark
------------------------------------
                       Guess.
    1     1.246e+01  
    2     2.311e+01  
    3     3.243e+00  
    4     1.376e+00  
    5     3.953e-01  
    6     1.810e-01  
    7     5.164e-02  
    8     8.716e-03  
    9     3.375e-03  
   10     1.462e-03  
   11     5.973e-04  
   12     3.439e-04  
   13     7.773e-05  
   14     6.797e-05  
   15     1.010e-05  
   16     6.256e-06  
   17     1.953e-06  
   18     1.323e-06  
   19     4.005e-07  Converged.
   ... Converged in 19 steps (norm: 4.00482e-07)
------------------------------------
  Starting TPA DIIS iterations ... 
------------------------------------ 
   It     Res. Norm  Remark
------------------------------------
                       Guess.
    1     1.180e+01  
    2     2.189e+01  
    3     3.085e+00  
    4     1.347e+00  
    5     3.936e-01  
    6     1.844e-01  
    7     5.152e-02  
    8     1.169e-02  
    9     4.897e-03  
   10     1.692e-03  
   11     1.009e-03  
   12     3.909e-04  
   13     1.612e-04  
   14     5.732e-05  
   15     1.293e-05  
   16     5.432e-06  
   17     1.419e-06  
   18     9.407e-07  Converged.
   ... Converged in 18 steps (norm: 9.40673e-07)
------------------------------------
  Starting TPA DIIS iterations ... 
------------------------------------ 
   It     Res. Norm  Remark
------------------------------------
                       Guess.
    1     9.009e-01  
    2     9.186e-01  
    3     4.289e-01  
    4     3.863e-01  
    5     6.283e-02  
    6     2.977e-02  
    7     7.458e-03  
    8     1.919e-03  
    9     8.330e-04  
   10     1.001e-04  
   11     3.465e-05  
   12     1.764e-05  
   13     8.675e-06  
   14     6.354e-06  
   15     2.569e-06  
   16     8.605e-07  Converged.
   ... Converged in 16 steps (norm: 8.60528e-07)
------------------------------------
  Two-photon absorbption ...  CPU 121.73 s  wall 25.02 s
  Transition density matrix of state singlet_A_1 printed to ASCII file 'State_singlet_A_1_Transition.txt'
  Transition density matrix of state singlet_A_2 printed to ASCII file 'State_singlet_A_2_Transition.txt'
  Transition density matrix of state singlet_A_3 printed to ASCII file 'State_singlet_A_3_Transition.txt'
  Transition density matrix of state singlet_A_4 printed to ASCII file 'State_singlet_A_4_Transition.txt'
  Transition density matrix of state singlet_A_5 printed to ASCII file 'State_singlet_A_5_Transition.txt'
  Transition density matrix of state singlet_A_6 printed to ASCII file 'State_singlet_A_6_Transition.txt'
  Transition density matrix of state singlet_A_7 printed to ASCII file 'State_singlet_A_7_Transition.txt'
  Transition density matrix of state singlet_A_8 printed to ASCII file 'State_singlet_A_8_Transition.txt'
  Transition density matrix of state singlet_A_9 printed to ASCII file 'State_singlet_A_9_Transition.txt'
  Transition density matrix of state singlet_A_10 printed to ASCII file 'State_singlet_A_10_Transition.txt'
  Transition properties ...  CPU 0.17 s  wall 0.90 s
  Difference density matrix of state singlet_A_1 printed to ASCII file 'State_singlet_A_1_Difference.txt'
  Total density matrix of state singlet_A_1 printed to ASCII file 'State_singlet_A_1_Total.txt'
  Difference density matrix of state singlet_A_2 printed to ASCII file 'State_singlet_A_2_Difference.txt'
  Total density matrix of state singlet_A_2 printed to ASCII file 'State_singlet_A_2_Total.txt'
  Difference density matrix of state singlet_A_3 printed to ASCII file 'State_singlet_A_3_Difference.txt'
  Total density matrix of state singlet_A_3 printed to ASCII file 'State_singlet_A_3_Total.txt'
  Difference density matrix of state singlet_A_4 printed to ASCII file 'State_singlet_A_4_Difference.txt'
  Total density matrix of state singlet_A_4 printed to ASCII file 'State_singlet_A_4_Total.txt'
  Difference density matrix of state singlet_A_5 printed to ASCII file 'State_singlet_A_5_Difference.txt'
  Total density matrix of state singlet_A_5 printed to ASCII file 'State_singlet_A_5_Total.txt'
  Difference density matrix of state singlet_A_6 printed to ASCII file 'State_singlet_A_6_Difference.txt'
  Total density matrix of state singlet_A_6 printed to ASCII file 'State_singlet_A_6_Total.txt'
  Difference density matrix of state singlet_A_7 printed to ASCII file 'State_singlet_A_7_Difference.txt'
  Total density matrix of state singlet_A_7 printed to ASCII file 'State_singlet_A_7_Total.txt'
  Difference density matrix of state singlet_A_8 printed to ASCII file 'State_singlet_A_8_Difference.txt'
  Total density matrix of state singlet_A_8 printed to ASCII file 'State_singlet_A_8_Total.txt'
  Difference density matrix of state singlet_A_9 printed to ASCII file 'State_singlet_A_9_Difference.txt'
  Total density matrix of state singlet_A_9 printed to ASCII file 'State_singlet_A_9_Total.txt'
  Difference density matrix of state singlet_A_10 printed to ASCII file 'State_singlet_A_10_Difference.txt'
  Total density matrix of state singlet_A_10 printed to ASCII file 'State_singlet_A_10_Total.txt'
  Properties ...  CPU 0.38 s  wall 1.57 s
  ISR TDMS ...  CPU 15.38 s  wall 4.24 s
  ISR transition properties ...  CPU 0.22 s  wall 0.10 s
  Sum-over-states TPA ...  CPU 0.00 s  wall 0.00 s

--------------------------------------------------------------------------------
                   State-averaged natural transition orbitals
--------------------------------------------------------------------------------
--------------------------------------------------------------------------------
  SA-NTO decomposition ...  CPU 0.01 s  wall 0.04 s

--------------------------------------------------------------------------------
                             Excited State Summary
--------------------------------------------------------------------------------
--------------------------------------------------------------------------------

  Excited state 1 (singlet, A)                                     [converged]
  ----------------------------------------------------------------------------
  Term symbol:  2 (1) A                                     R^2 =  1.54477e-13

  Total energy:                                            -77.9988467017 a.u.
  Excitation energy:                                               8.726062 eV

  Osc. strength:                                                      0.433368
  Trans. dip. moment [a.u.]:           [   1.032952,   -0.979798,   -0.011359]
  <i|r^2|0> [a.u.]:                    [   6.094305,   -0.227050,   -0.019343]
  Two-photon absorption cross-section (SoS) [a.u.]:                   0.001397
  Two-photon absorption matrix (SoS) [a.u.]:
                                       |   -0.003644    0.000466   -0.008051 |
                                       |    0.000466    0.009238    0.007420 |
                                       |   -0.008051    0.007420   -0.001755 |
  Two-photon absorption cross-section [a.u.]:                         0.100849
  Two-photon absorption matrix [a.u.]:
                                       |   -0.020306   -0.008585    0.056882 |
                                       |   -0.008585   -0.004017    0.094704 |
                                       |    0.056882    0.094704    0.012612 |

  Dip. moment [a.u.]:                  [  -0.001306,    0.000877,    0.014469]
  Total dipole [Debye]:                                               0.036993
  <r^2> [a.u.]:                        [ 176.078625,   35.592766,   11.887343]
  Total <r^2> [a.u.]:                                               223.558734

  V1^2 = 0.9711, V2^2 = 0.0289

  Important amplitudes:
      occ i     occ j     vir a      vir b          v   
    -----------------------------------------------------
     8 (A) A              9 (A) A                -0.6749
     7 (A) A              9 (A) A                 0.0921
     6 (A) A             14 (A) A                -0.0615
     4 (A) A             10 (A) A                 0.0598
     7 (A) A             16 (A) A                 0.0562
     5 (A) A             13 (A) A                -0.0506
     6 (A) A             23 (A) A                -0.0480
     8 (A) A             20 (A) A                -0.0347
     6 (A) A             19 (A) A                 0.0305
     3 (A) A             12 (A) A                -0.0277
     5 (A) A             22 (A) A                -0.0212
     7 (A) A             11 (A) A                 0.0210
     4 (A) A             24 (A) A                 0.0185
     3 (A) A             26 (A) A                -0.0183
     8 (A) A   8 (A) B   17 (A) A   20 (A) B      0.0182
     6 (A) A             26 (A) A                -0.0162
     8 (A) A   8 (A) B    9 (A) A   28 (A) B      0.0154
     7 (A) A             21 (A) A                 0.0147
     3 (A) A             14 (A) A                -0.0137
     6 (A) A             12 (A) A                 0.0130
     3 (A) A   4 (A) B    9 (A) A    9 (A) B     -0.0127
     3 (A) A             19 (A) A                 0.0118
     8 (A) A   8 (A) B   18 (A) A   19 (A) B     -0.0112
     7 (A) A             20 (A) A                 0.0105
     7 (A) A             32 (A) A                 0.0095
     7 (A) A             36 (A) A                 0.0084
     3 (A) A             23 (A) A                -0.0079
     8 (A) A   8 (A) B   25 (A) A   29 (A) B      0.0073
     6 (A) A             35 (A) A                -0.0072
     6 (A) A             40 (A) A                -0.0067
     6 (A) A              9 (A) A                -0.0064
     8 (A) A   8 (A) B    9 (A) A   27 (A) B     -0.0062
     3 (A) A   6 (A) B    9 (A) A   28 (A) B      0.0061
     5 (A) A   8 (A) B   11 (A) A   20 (A) B      0.0059
     7 (A) A   8 (A) B   13 (A) A   20 (A) B     -0.0059
     5 (A) A   8 (A) B   16 (A) A    9 (A) B      0.0058
     5 (A) A   7 (A) B    9 (A) A    9 (A) B     -0.0058
     5 (A) A             27 (A) A                -0.0058
     5 (A) A   8 (A) B   11 (A) A    9 (A) B     -0.0058
     3 (A) A   5 (A) B    9 (A) A   25 (A) B      0.0057
    -----------------------------------------------------

  Density matrix analysis:
  ------------------------
  NOs
    Occupation of frontier NOs:
       0.9509   1.0210
    Number of electrons: 16.000000
    Number of unpaired electrons: n_u =  2.31414, n_u,nl =  2.03269
    NO participation ratio (PR_NO):  2.859790
  
  
  Mulliken Population Analysis
  Atom      Charge (e)              h+              e-           Del q
  --------------------------------------------------------------------
   1 H        0.060857        0.022706       -0.012672        0.010034
   2 C       -0.119867        0.485074       -0.504955       -0.019881
   3 H        0.059858        0.022397       -0.012598        0.009799
   4 C       -0.121923        0.484934       -0.505236       -0.020302
   5 H        0.060675        0.022967       -0.012444        0.010522
   6 H        0.060400        0.022240       -0.012412        0.009828
  --------------------------------------------------------------------
  Sum:       -0.000000        1.060318       -1.060318       -0.000000
  
  Multipole moment analysis of the density matrix
    Molecular charge:                      0.000000
    Number of electrons:                   16.000000
      Center of electronic charge [Ang]: [ -1.560533,  -0.065631,   0.004000]
    Total nuclear charge:                  16.000000
      Center of nuclear charge [Ang]:    [ -1.560576,  -0.065602,   0.004478]
    Dipole moment [D]:                     0.036993
      Cartesian components [D]:          [ -0.003319,   0.002229,   0.036777]
    RMS size of the density [Ang]:         1.213709
      Cartesian components [Ang]:        [  0.804006,   0.786530,   0.456107]
  
  Exciton analysis of the difference density matrix
    <r_h> [Ang]:                  [ -1.559652,  -0.065150,  -0.001360]
    <r_e> [Ang]:                  [ -1.559603,  -0.065651,  -0.002963]
    |<r_e - r_h>| [Ang]:            0.001680
    Hole size [Ang]:                1.290570
      Cartesian components [Ang]: [  0.734882,   0.721548,   0.777744]
    Electron size [Ang]:            1.462907
      Cartesian components [Ang]: [  0.853743,   0.829997,   0.849897]

  Transition density matrix analysis:
  -----------------------------------
  
  CT numbers (Mulliken)
    omega =     0.9528
    <Phe> =    -0.1579
  
  Exciton analysis of the transition density matrix
    Trans. dipole moment [D]:             1.809432
      Cartesian components [D]:         [  1.312751,  -1.245199,  -0.014436]
    <r_h> [Ang]:                        [ -1.559748,  -0.065414,  -0.000207]
    <r_e> [Ang]:                        [ -1.559712,  -0.065737,  -0.003859]
    |<r_e - r_h>| [Ang]:                  0.003666
    Hole size [Ang]:                      1.222169
      Cartesian components [Ang]:       [  0.659410,   0.649814,   0.797883]
    Electron size [Ang]:                  1.484788
      Cartesian components [Ang]:       [  0.863619,   0.838461,   0.869334]
    RMS electron-hole separation [Ang]:   1.940183
      Cartesian components [Ang]:       [  1.111002,   1.081804,   1.166055]
    Covariance(r_h, r_e) [Ang^2]:        -0.033001
    Correlation coefficient:             -0.018186
    Center-of-mass size [Ang]:            0.952929
      Cartesian components [Ang]:       [  0.530800,   0.519676,   0.596876]

  Decomposition into state-averaged NTOs
    H- 0 -> L+ 0: -0.6642 ( 88.2%)
    H- 1 -> L+ 0:  0.0883 (  1.6%)
    H- 2 -> L+ 5:  0.0826 (  1.4%)
                   omega =  95.3%
  ----------------------------------------------------------------------------


  Excited state 2 (singlet, A)                                     [converged]
  ----------------------------------------------------------------------------
  Term symbol:  3 (1) A                                     R^2 =  9.54581e-14

  Total energy:                                            -77.9865500451 a.u.
  Excitation energy:                                               9.060671 eV

  Osc. strength:                                                      0.010607
  Trans. dip. moment [a.u.]:           [  -0.152914,    0.156209,    0.001042]
  <i|r^2|0> [a.u.]:                    [  -0.862885,    0.127021,   -0.127539]
  Two-photon absorption cross-section (SoS) [a.u.]:                   5.060781
  Two-photon absorption matrix (SoS) [a.u.]:
                                       |    0.012733    0.049810   -0.554383 |
                                       |    0.049810    0.083865   -0.560289 |
                                       |   -0.554383   -0.560289   -0.102424 |
  Two-photon absorption cross-section [a.u.]:                         0.116070
  Two-photon absorption matrix [a.u.]:
                                       |   -0.097948   -0.008528    0.048176 |
                                       |   -0.008528    0.088282    0.058045 |
                                       |    0.048176    0.058045    0.010211 |

  Dip. moment [a.u.]:                  [  -0.004976,    0.009387,    0.025625]
  Total dipole [Debye]:                                               0.070510
  <r^2> [a.u.]:                        [ 174.546947,   34.042322,   13.125548]
  Total <r^2> [a.u.]:                                               221.714817

  V1^2 = 0.9546, V2^2 = 0.0454

  Important amplitudes:
      occ i     occ j     vir a      vir b          v   
    -----------------------------------------------------
     7 (A) A              9 (A) A                 0.6627
     8 (A) A             11 (A) A                -0.1495
     8 (A) A              9 (A) A                 0.0900
     7 (A) A             20 (A) A                 0.0751
     5 (A) A   8 (A) B    9 (A) A    9 (A) B      0.0312
     8 (A) A             16 (A) A                 0.0278
     8 (A) A             21 (A) A                -0.0178
     5 (A) A             28 (A) A                 0.0140
     4 (A) A   7 (A) B    9 (A) A   19 (A) B     -0.0134
     5 (A) A   7 (A) B    9 (A) A   16 (A) B      0.0132
     7 (A) A   8 (A) B   20 (A) A   17 (A) B     -0.0104
     6 (A) A             14 (A) A                 0.0095
     5 (A) A   8 (A) B    9 (A) A   20 (A) B      0.0095
     4 (A) A             10 (A) A                -0.0091
     4 (A) A   6 (A) B    9 (A) A   16 (A) B     -0.0090
     5 (A) A   6 (A) A    9 (A) A   23 (A) A     -0.0090
     7 (A) A   8 (A) A    9 (A) A   28 (A) A      0.0088
     5 (A) A   6 (A) A    9 (A) A   14 (A) A     -0.0088
     5 (A) A   6 (A) B    9 (A) A   19 (A) B      0.0086
     4 (A) A   5 (A) A    9 (A) A   10 (A) A     -0.0083
     7 (A) A             16 (A) A                -0.0083
     6 (A) A   7 (A) B    9 (A) A   18 (A) B     -0.0082
     5 (A) A             13 (A) A                 0.0079
     5 (A) A   6 (A) B    9 (A) A   23 (A) B     -0.0079
     3 (A) A   7 (A) B    9 (A) A   18 (A) B      0.0079
     5 (A) A   7 (A) A    9 (A) A   16 (A) A      0.0078
     8 (A) A   7 (A) B    9 (A) A   28 (A) B     -0.0077
     4 (A) A   8 (A) B    9 (A) A   25 (A) B     -0.0075
     7 (A) A   8 (A) B   17 (A) A   20 (A) B     -0.0073
     4 (A) A   7 (A) B   19 (A) A    9 (A) B     -0.0073
     7 (A) A   8 (A) B   19 (A) A   18 (A) B      0.0071
     6 (A) A             23 (A) A                 0.0071
     5 (A) A   5 (A) B    9 (A) A   13 (A) B     -0.0071
     5 (A) A   8 (A) A    9 (A) A   20 (A) A      0.0068
     4 (A) A   5 (A) B    9 (A) A   18 (A) B      0.0067
     7 (A) A   7 (A) B   20 (A) A   22 (A) B      0.0065
     7 (A) A   8 (A) B   17 (A) A    9 (A) B     -0.0064
     5 (A) A   6 (A) B    9 (A) A   14 (A) B     -0.0063
     8 (A) A             12 (A) A                 0.0062
     4 (A) A   7 (A) A    9 (A) A   19 (A) A     -0.0061
    -----------------------------------------------------

  Density matrix analysis:
  ------------------------
  NOs
    Occupation of frontier NOs:
       0.9565   1.0538
    Number of electrons: 16.000000
    Number of unpaired electrons: n_u =  2.35425, n_u,nl =  2.06241
    NO participation ratio (PR_NO):  3.029613
  
  
  Mulliken Population Analysis
  Atom      Charge (e)              h+              e-           Del q
  --------------------------------------------------------------------
   1 H        0.146728        0.119562       -0.023657        0.095905
   2 C       -0.295588        0.274317       -0.469919       -0.195603
   3 H        0.148067        0.123623       -0.025614        0.098008
   4 C       -0.297168        0.276707       -0.472253       -0.195547
   5 H        0.150861        0.124673       -0.023964        0.100708
   6 H        0.147100        0.121559       -0.025031        0.096528
  --------------------------------------------------------------------
  Sum:        0.000000        1.040439       -1.040439       -0.000000
  
  Multipole moment analysis of the density matrix
    Molecular charge:                      -0.000000
    Number of electrons:                   16.000000
      Center of electronic charge [Ang]: [ -1.560412,  -0.065913,   0.003631]
    Total nuclear charge:                  16.000000
      Center of nuclear charge [Ang]:    [ -1.560576,  -0.065602,   0.004478]
    Dipole moment [D]:                     0.070510
      Cartesian components [D]:          [ -0.012648,   0.023859,   0.065134]
    RMS size of the density [Ang]:         1.200484
      Cartesian components [Ang]:        [  0.787400,   0.769062,   0.479278]
  
  Exciton analysis of the difference density matrix
    <r_h> [Ang]:                  [ -1.564982,  -0.062216,   0.005669]
    <r_e> [Ang]:                  [ -1.563065,  -0.067055,  -0.001638]
    |<r_e - r_h>| [Ang]:            0.008972
    Hole size [Ang]:                1.481954
      Cartesian components [Ang]: [  0.996133,   0.993710,   0.465241]
    Electron size [Ang]:            1.479466
      Cartesian components [Ang]: [  0.882219,   0.860863,   0.818183]

  Transition density matrix analysis:
  -----------------------------------
  
  CT numbers (Mulliken)
    omega =     0.9224
    <Phe> =    -0.0151
  
  Exciton analysis of the transition density matrix
    Trans. dipole moment [D]:             0.277811
      Cartesian components [D]:         [ -0.194334,   0.198522,   0.001325]
    <r_h> [Ang]:                        [ -1.565545,  -0.061499,   0.007152]
    <r_e> [Ang]:                        [ -1.562608,  -0.067653,  -0.003311]
    |<r_e - r_h>| [Ang]:                  0.012490
    Hole size [Ang]:                      1.507769
      Cartesian components [Ang]:       [  1.016858,   1.015567,   0.456060]
    Electron size [Ang]:                  1.477126
      Cartesian components [Ang]:       [  0.873727,   0.851201,   0.833043]
    RMS electron-hole separation [Ang]:   2.091652
      Cartesian components [Ang]:       [  1.325602,   1.310718,   0.948582]
    Covariance(r_h, r_e) [Ang^2]:         0.040208
    Correlation coefficient:              0.018053
    Center-of-mass size [Ang]:            1.064857
      Cartesian components [Ang]:       [  0.677788,   0.669682,   0.475448]

  Decomposition into state-averaged NTOs
    H- 1 -> L+ 0:  0.6555 ( 85.9%)
    H- 0 -> L+ 2: -0.1499 (  4.5%)
    H- 0 -> L+ 0:  0.0847 (  1.4%)
                   omega =  92.2%
  ----------------------------------------------------------------------------


  Excited state 3 (singlet, A)                                     [converged]
  ----------------------------------------------------------------------------
  Term symbol:  4 (1) A                                     R^2 =  1.75177e-13

  Total energy:                                            -77.9824344931 a.u.
  Excitation energy:                                               9.172661 eV

  Osc. strength:                                                      0.025396
  Trans. dip. moment [a.u.]:           [   0.030285,    0.001215,   -0.334796]
  <i|r^2|0> [a.u.]:                    [   0.255287,   -0.094033,    0.010424]
  Two-photon absorption cross-section (SoS) [a.u.]:                   2.678213
  Two-photon absorption matrix (SoS) [a.u.]:
                                       |    0.580848    0.029045    0.018882 |
                                       |    0.029045   -0.555465   -0.026657 |
                                       |    0.018882   -0.026657    0.105824 |
  Two-photon absorption cross-section [a.u.]:                         1.458890
  Two-photon absorption matrix [a.u.]:
                                       |    0.461880    0.006117    0.010556 |
                                       |    0.006117   -0.364739   -0.017659 |
                                       |    0.010556   -0.017659    0.065216 |

  Dip. moment [a.u.]:                  [  -0.002342,   -0.007009,   -0.015805]
  Total dipole [Debye]:                                               0.044346
  <r^2> [a.u.]:                        [ 180.857151,   40.603617,   11.006048]
  Total <r^2> [a.u.]:                                               232.466815

  V1^2 = 0.9588, V2^2 = 0.0412

  Important amplitudes:
      occ i     occ j     vir a      vir b          v   
    -----------------------------------------------------
     8 (A) A             10 (A) A                 0.6891
     8 (A) A             24 (A) A                 0.0507
     8 (A) A             18 (A) A                -0.0312
     4 (A) A              9 (A) A                -0.0237
     8 (A) A   8 (A) B    9 (A) A   12 (A) B      0.0219
     8 (A) A   8 (A) B   10 (A) A   17 (A) B      0.0173
     8 (A) A             15 (A) A                 0.0168
     5 (A) A   8 (A) B   11 (A) A   10 (A) B      0.0165
     7 (A) A   8 (A) B   13 (A) A   10 (A) B     -0.0141
     4 (A) A   8 (A) B   12 (A) A   10 (A) B     -0.0111
     6 (A) A   8 (A) A   10 (A) A   15 (A) A     -0.0110
     7 (A) A   8 (A) B   22 (A) A   10 (A) B     -0.0108
     6 (A) A   8 (A) B   15 (A) A   10 (A) B      0.0108
     4 (A) A   8 (A) A   10 (A) A   12 (A) A      0.0106
     7 (A) A   8 (A) A   10 (A) A   22 (A) A      0.0099
     7 (A) A   8 (A) A   10 (A) A   13 (A) A      0.0097
     5 (A) A   8 (A) B   21 (A) A   10 (A) B      0.0094
     5 (A) A   8 (A) A   10 (A) A   11 (A) A     -0.0094
     6 (A) A   8 (A) A   10 (A) A   18 (A) A     -0.0088
     6 (A) A   8 (A) B   10 (A) A   10 (A) B     -0.0087
     7 (A) A   8 (A) A   12 (A) A   16 (A) A     -0.0082
     5 (A) A   8 (A) A   10 (A) A   21 (A) A     -0.0080
     3 (A) A   4 (A) B   10 (A) A    9 (A) B      0.0079
     4 (A) A   8 (A) B   19 (A) A   10 (A) B      0.0075
     8 (A) A   8 (A) B    9 (A) A   23 (A) B     -0.0075
     3 (A) A   8 (A) B   10 (A) A   10 (A) B      0.0072
     5 (A) A   8 (A) B   10 (A) A   11 (A) B      0.0071
     3 (A) A   8 (A) A   10 (A) A   24 (A) A     -0.0071
     7 (A) A   8 (A) B   16 (A) A   12 (A) B      0.0070
     3 (A) A   8 (A) B   10 (A) A   18 (A) B     -0.0069
     8 (A) A   8 (A) B    9 (A) A   19 (A) B     -0.0068
     8 (A) A   8 (A) B   10 (A) A   28 (A) B     -0.0068
     6 (A) A   8 (A) B   18 (A) A   10 (A) B      0.0066
     3 (A) A   6 (A) B   10 (A) A   28 (A) B     -0.0058
     7 (A) A   8 (A) B   12 (A) A   11 (A) B     -0.0057
     3 (A) A   5 (A) B   10 (A) A   25 (A) B     -0.0056
     5 (A) A   8 (A) A   10 (A) A   16 (A) A      0.0056
     3 (A) A   8 (A) A   10 (A) A   18 (A) A     -0.0056
     4 (A) A   8 (A) A   10 (A) A   23 (A) A     -0.0055
     4 (A) A             20 (A) A                -0.0052
    -----------------------------------------------------

  Density matrix analysis:
  ------------------------
  NOs
    Occupation of frontier NOs:
       0.9814   0.9851
    Number of electrons: 16.000000
    Number of unpaired electrons: n_u =  2.28518, n_u,nl =  2.02439
    NO participation ratio (PR_NO):  2.691667
  
  
  Mulliken Population Analysis
  Atom      Charge (e)              h+              e-           Del q
  --------------------------------------------------------------------
   1 H       -0.163951        0.053948       -0.268722       -0.214774
   2 C        0.328612        0.538127       -0.109530        0.428597
   3 H       -0.163639        0.053815       -0.267512       -0.213697
   4 C        0.327491        0.538152       -0.109040        0.429112
   5 H       -0.165791        0.053928       -0.269872       -0.215944
   6 H       -0.162721        0.053926       -0.267219       -0.213293
  --------------------------------------------------------------------
  Sum:       -0.000000        1.291896       -1.291896       -0.000000
  
  Multipole moment analysis of the density matrix
    Molecular charge:                      0.000000
    Number of electrons:                   16.000000
      Center of electronic charge [Ang]: [ -1.560499,  -0.065370,   0.005001]
    Total nuclear charge:                  16.000000
      Center of nuclear charge [Ang]:    [ -1.560576,  -0.065602,   0.004478]
    Dipole moment [D]:                     0.044346
      Cartesian components [D]:          [ -0.005952,  -0.017815,  -0.040172]
    RMS size of the density [Ang]:         1.276373
      Cartesian components [Ang]:        [  0.854498,   0.840454,   0.438863]
  
  Exciton analysis of the difference density matrix
    <r_h> [Ang]:                  [ -1.560270,  -0.065408,   0.000994]
    <r_e> [Ang]:                  [ -1.559805,  -0.062590,   0.012079]
    |<r_e - r_h>| [Ang]:            0.011447
    Hole size [Ang]:                1.410365
      Cartesian components [Ang]: [  0.834193,   0.819764,   0.788187]
    Electron size [Ang]:            2.076317
      Cartesian components [Ang]: [  1.374032,   1.377196,   0.725575]

  Transition density matrix analysis:
  -----------------------------------
  
  CT numbers (Mulliken)
    omega =     0.9260
    <Phe> =    -0.0109
  
  Exciton analysis of the transition density matrix
    Trans. dipole moment [D]:             0.427223
      Cartesian components [D]:         [  0.038488,   0.001544,  -0.425483]
    <r_h> [Ang]:                        [ -1.559755,  -0.065767,  -0.002086]
    <r_e> [Ang]:                        [ -1.559408,  -0.061570,   0.015042]
    |<r_e - r_h>| [Ang]:                  0.017639
    Hole size [Ang]:                      1.213211
      Cartesian components [Ang]:       [  0.636782,   0.623486,   0.823197]
    Electron size [Ang]:                  2.296697
      Cartesian components [Ang]:       [  1.518778,   1.524721,   0.802095]
    RMS electron-hole separation [Ang]:   2.587555
      Cartesian components [Ang]:       [  1.639351,   1.640256,   1.147836]
    Covariance(r_h, r_e) [Ang^2]:         0.025782
    Correlation coefficient:              0.009253
    Center-of-mass size [Ang]:            1.303674
      Cartesian components [Ang]:       [  0.827176,   0.827132,   0.575497]

  Decomposition into state-averaged NTOs
    H- 0 -> L+ 1: -0.6797 ( 92.4%)
                   omega =  92.6%
  ----------------------------------------------------------------------------


  Excited state 4 (singlet, A)                                     [converged]
  ----------------------------------------------------------------------------
  Term symbol:  5 (1) A                                     R^2 =  1.21818e-13

  Total energy:                                            -77.9580224895 a.u.
  Excitation energy:                                               9.836945 eV

  Osc. strength:                                                      0.001769
  Trans. dip. moment [a.u.]:           [   0.061546,   -0.059591,   -0.001671]
  <i|r^2|0> [a.u.]:                    [   0.375782,    0.003559,   -0.031213]
  Two-photon absorption cross-section (SoS) [a.u.]:                 149.774952
  Two-photon absorption matrix (SoS) [a.u.]:
                                       |    0.141203    0.275854   -3.045823 |
                                       |    0.275854    0.411660   -3.019706 |
                                       |   -3.045823   -3.019706   -0.557508 |
  Two-photon absorption cross-section [a.u.]:                        92.221851
  Two-photon absorption matrix [a.u.]:
                                       |    0.037780    0.211483   -2.390715 |
                                       |    0.211483    0.391998   -2.365261 |
                                       |   -2.390715   -2.365261   -0.436964 |

  Dip. moment [a.u.]:                  [   0.003065,    0.003490,   -0.015627]
  Total dipole [Debye]:                                               0.041438
  <r^2> [a.u.]:                        [ 181.396849,   40.448610,   10.744609]
  Total <r^2> [a.u.]:                                               232.590069

  V1^2 = 0.9635, V2^2 = 0.0365

  Important amplitudes:
      occ i     occ j     vir a      vir b          v   
    -----------------------------------------------------
     8 (A) A             11 (A) A                -0.6693
     7 (A) A              9 (A) A                -0.1509
     8 (A) A             21 (A) A                -0.0780
     8 (A) A             16 (A) A                 0.0643
     8 (A) A   8 (A) B    9 (A) A   13 (A) B     -0.0166
     5 (A) A   8 (A) B   11 (A) A   11 (A) B     -0.0155
     8 (A) A              9 (A) A                -0.0150
     8 (A) A             12 (A) A                 0.0146
     8 (A) A   8 (A) B   11 (A) A   17 (A) B     -0.0140
     7 (A) A             20 (A) A                -0.0138
     7 (A) A   8 (A) B   13 (A) A   11 (A) B      0.0127
     5 (A) A   8 (A) A   11 (A) A   21 (A) A      0.0110
     4 (A) A   8 (A) B   12 (A) A   11 (A) B      0.0110
     8 (A) A   8 (A) B    9 (A) A   22 (A) B     -0.0107
     7 (A) A   8 (A) A   11 (A) A   22 (A) A     -0.0096
     6 (A) A   8 (A) B   15 (A) A   11 (A) B     -0.0090
     6 (A) A   8 (A) B   10 (A) A   11 (A) B      0.0090
     7 (A) A   8 (A) B   22 (A) A   11 (A) B      0.0089
     3 (A) A   4 (A) B   11 (A) A    9 (A) B     -0.0083
     3 (A) A   8 (A) B   11 (A) A   18 (A) B      0.0081
     6 (A) A   8 (A) A   11 (A) A   15 (A) A      0.0080
     6 (A) A              9 (A) A                 0.0079
     7 (A) A   8 (A) A   13 (A) A   16 (A) A      0.0078
     7 (A) A   8 (A) A   11 (A) A   13 (A) A     -0.0077
     5 (A) A   8 (A) B   21 (A) A   11 (A) B     -0.0071
     4 (A) A   8 (A) B   19 (A) A   11 (A) B     -0.0070
     5 (A) A   8 (A) B    9 (A) A    9 (A) B     -0.0068
     4 (A) A   8 (A) A   11 (A) A   12 (A) A     -0.0062
     6 (A) A   8 (A) A   11 (A) A   18 (A) A      0.0062
     6 (A) A   8 (A) B   18 (A) A   11 (A) B     -0.0060
     7 (A) A   8 (A) B   16 (A) A   13 (A) B     -0.0057
     3 (A) A   6 (A) B   11 (A) A   28 (A) B      0.0056
     3 (A) A   8 (A) A   11 (A) A   18 (A) A      0.0056
     5 (A) A   8 (A) B   10 (A) A   10 (A) B     -0.0056
     3 (A) A   8 (A) B   11 (A) A   30 (A) B      0.0055
     3 (A) A   5 (A) B   11 (A) A   25 (A) B      0.0054
     6 (A) A   8 (A) B   11 (A) A   10 (A) B      0.0054
     7 (A) A   8 (A) B   12 (A) A   10 (A) B      0.0054
     8 (A) A   8 (A) B   20 (A) A   22 (A) B     -0.0053
     3 (A) A   8 (A) A   11 (A) A   24 (A) A      0.0053
    -----------------------------------------------------

  Density matrix analysis:
  ------------------------
  NOs
    Occupation of frontier NOs:
       0.9402   1.0283
    Number of electrons: 16.000000
    Number of unpaired electrons: n_u =  2.31909, n_u,nl =  2.04938
    NO participation ratio (PR_NO):  2.917043
  
  
  Mulliken Population Analysis
  Atom      Charge (e)              h+              e-           Del q
  --------------------------------------------------------------------
   1 H       -0.146642        0.045777       -0.243241       -0.197465
   2 C        0.275039        0.496643       -0.121618        0.375025
   3 H       -0.127841        0.047042       -0.224941       -0.177899
   4 C        0.272733        0.496753       -0.122399        0.374354
   5 H       -0.125758        0.047115       -0.223026       -0.175911
   6 H       -0.147532        0.045863       -0.243967       -0.198104
  --------------------------------------------------------------------
  Sum:        0.000000        1.179193       -1.179193       -0.000000
  
  Multipole moment analysis of the density matrix
    Molecular charge:                      0.000000
    Number of electrons:                   16.000000
      Center of electronic charge [Ang]: [ -1.560678,  -0.065718,   0.004995]
    Total nuclear charge:                  16.000000
      Center of nuclear charge [Ang]:    [ -1.560576,  -0.065602,   0.004478]
    Dipole moment [D]:                     0.041438
      Cartesian components [D]:          [  0.007791,   0.008872,  -0.039720]
    RMS size of the density [Ang]:         1.276982
      Cartesian components [Ang]:        [  0.859682,   0.838811,   0.433618]
  
  Exciton analysis of the difference density matrix
    <r_h> [Ang]:                  [ -1.560462,  -0.065532,   0.000470]
    <r_e> [Ang]:                  [ -1.562379,  -0.067155,   0.012535]
    |<r_e - r_h>| [Ang]:            0.012324
    Hole size [Ang]:                1.395031
      Cartesian components [Ang]: [  0.818766,   0.806664,   0.790587]
    Electron size [Ang]:            2.123931
      Cartesian components [Ang]: [  1.448097,   1.398210,   0.677573]

  Transition density matrix analysis:
  -----------------------------------
  
  CT numbers (Mulliken)
    omega =     0.9298
    <Phe> =    -0.0137
  
  Exciton analysis of the transition density matrix
    Trans. dipole moment [D]:             0.108894
      Cartesian components [D]:         [  0.078217,  -0.075733,  -0.002123]
    <r_h> [Ang]:                        [ -1.560204,  -0.065520,  -0.001594]
    <r_e> [Ang]:                        [ -1.562858,  -0.067290,   0.014170]
    |<r_e - r_h>| [Ang]:                  0.016084
    Hole size [Ang]:                      1.228232
      Cartesian components [Ang]:       [  0.658208,   0.650350,   0.807689]
    Electron size [Ang]:                  2.261604
      Cartesian components [Ang]:       [  1.542932,   1.488724,   0.719664]
    RMS electron-hole separation [Ang]:   2.562846
      Cartesian components [Ang]:       [  1.668831,   1.616685,   1.081439]
    Covariance(r_h, r_e) [Ang^2]:         0.027744
    Correlation coefficient:              0.009988
    Center-of-mass size [Ang]:            1.292178
      Cartesian components [Ang]:       [  0.843025,   0.816217,   0.541131]

  Decomposition into state-averaged NTOs
    H- 0 -> L+ 2: -0.6645 ( 88.3%)
    H- 1 -> L+ 0: -0.1489 (  4.4%)
                   omega =  93.0%
  ----------------------------------------------------------------------------


  Excited state 5 (singlet, A)                                     [converged]
  ----------------------------------------------------------------------------
  Term symbol:  6 (1) A                                     R^2 =  1.28404e-13

  Total energy:                                            -77.9441948114 a.u.
  Excitation energy:                                              10.213216 eV

  Osc. strength:                                                      0.000038
  Trans. dip. moment [a.u.]:           [   0.007049,    0.009880,    0.001996]
  <i|r^2|0> [a.u.]:                    [   0.119640,   -0.084243,    0.001533]
  Two-photon absorption cross-section (SoS) [a.u.]:                 178.855633
[...]
    16   -1.554349726006e-03
    17   -5.187747197764e-04
    18    2.042436844219e-05
    19   -3.327337385751e-03
    20    1.030571922862e-02
    21    9.323071927274e-01
    22   -2.459896522661e-04
    23    1.401641587184e-02
    24    1.818836413880e-04
    25    7.042260876014e-02
    26   -5.247081381548e-02
    27   -1.401714095490e+00
    28    9.749254454388e-02
    29   -9.326514819134e-02
    30    1.787212191063e-03
    31    3.837528019731e-01
    32   -3.648621648665e-01
    33    7.586178388424e-03
    34    1.565381635057e-02
    35   -1.860488394421e-03
    36   -1.694157404837e-03
    37   -7.338672154907e-05
    38   -3.165693150315e-03
    39    1.012810785885e-02
    40    9.366956275443e-01
    41    2.042312131502e-04
    42   -1.398580704581e-02
    43   -7.725550084002e-04
    44    9.861971961737e-03
    45    9.390761086030e-01
    46    1.411721051751e-02
    47    3.673187592260e-04
    48    8.701973299257e-04
Sym=X
Ene= 0.233069
Spin=Alpha
Occup=0
     1    2.652420841775e-02
     2    1.241750232460e+00
     3   -1.444948385365e-02
     4   -3.895790823559e-03
     5   -6.364214364506e-04
     6    3.829651447778e-03
     7   -4.265325803145e-03
     8   -5.945794003455e-02
     9   -1.553449620777e-01
    10   -1.582022588316e-01
    11   -9.235636005830e-03
    12   -5.578411688150e-01
    13   -5.573642202682e-01
    14   -2.962554291845e-02
    15    5.999481164254e-04
    16   -3.261796765119e-04
    17   -7.973680607805e-04
    18   -2.356897796553e-04
    19   -3.912526848660e-04
    20   -2.457848726161e-02
    21   -1.151808111141e+00
    22   -2.435614461780e-03
    23   -1.351257202311e-02
    24   -3.633634784287e-04
    25   -3.849061637780e-03
    26    4.224923684533e-03
    27    6.079371418000e-02
    28   -1.547454865771e-01
    29   -1.581422009008e-01
    30   -1.963188097873e-02
    31   -5.517852497530e-01
    32   -5.522995464881e-01
    33   -7.241301855705e-02
    34   -7.501840734708e-04
    35    5.343730133453e-04
    36    3.724894472049e-05
    37    4.109750205197e-04
    38    4.798566280264e-04
    39    2.476368288213e-02
    40    1.145571800042e+00
    41   -2.357347220592e-03
    42   -1.341868673058e-02
    43   -9.758211032542e-04
    44   -2.627667212518e-02
    45   -1.237311184889e+00
    46   -1.445843822394e-02
    47   -3.850812056474e-03
    48   -1.183371825253e-03
Sym=X
Ene= 0.239460
Spin=Alpha
Occup=0
     1    1.547502675711e-02
     2    1.039121400204e+00
     3   -1.637684003618e-02
     4   -9.120861943387e-03
     5   -1.509830525932e-03
     6    8.652035919871e-02
     7   -7.961003516167e-02
     8   -1.596896185751e+00
     9   -5.147133179223e-02
    10    6.248432699339e-02
    11   -5.812772747782e-03
    12   -2.047934098707e-01
    13    2.441860241957e-01
    14   -2.321243321407e-02
    15    2.274426934860e-02
    16   -2.552589364841e-03
    17   -1.785231616156e-03
    18    6.478263931631e-04
    19   -1.291463566231e-02
    20    1.689109725005e-02
    21    1.141573846383e+00
    22    8.607569502916e-03
    23    1.807787241261e-02
    24    6.687273399769e-04
    25   -8.624935557894e-02
    26    7.909384910159e-02
    27    1.592897223330e+00
    28   -5.171236063198e-02
    29    6.260305429599e-02
    30    3.862657412441e-03
    31   -2.053067464820e-01
    32    2.453270278129e-01
    33    1.767113286171e-02
    34   -2.259249225963e-02
    35    2.080410025681e-03
    36    3.111631763705e-03
    37   -7.537081710004e-04
    38    1.277181558118e-02
    39   -1.691617753223e-02
    40   -1.141011739602e+00
    41    8.638155122947e-03
    42    1.802141611447e-02
    43    1.526416254776e-03
    44   -1.553041866101e-02
    45   -1.034018619038e+00
    46   -1.625995607757e-02
    47   -9.238745402074e-03
    48   -1.070834367150e-03
Sym=X
Ene= 0.303284
Spin=Alpha
Occup=0
     1   -2.056005619809e-02
     2    1.692729612044e+00
     3   -2.293562846892e-02
     4    3.189988943559e-04
     5   -9.598514852727e-04
     6   -1.795803539287e-04
     7    1.673311784290e-04
     8    4.169767987966e-03
     9   -1.342269160126e-01
    10   -1.399360819452e-01
    11   -9.470459870305e-03
    12   -1.144980724316e+00
    13   -1.196607967307e+00
    14   -9.690063426683e-02
    15   -3.401960033256e-04
    16   -2.394362947882e-03
    17    2.650108349559e-04
    18   -3.272848784080e-02
    19   -1.444915778843e-03
    20    2.014798038925e-02
    21   -1.694284741769e+00
    22    1.436589355651e-03
    23   -2.294133041062e-02
    24   -6.083335288262e-04
    25    3.117943579268e-05
    26    3.226073996992e-04
    27   -7.027168474212e-03
    28    1.344645945812e-01
    29    1.400795101445e-01
    30    1.576519132462e-02
    31    1.139823810991e+00
    32    1.197021506751e+00
    33    1.179218916945e-01
    34    7.640092970890e-05
    35   -1.146718731131e-03
    36    2.184201679217e-03
    37   -3.249702194877e-02
    38   -1.712311725556e-03
    39    1.961316005662e-02
    40   -1.691305898008e+00
    41   -1.619809937688e-03
    42    2.282178026191e-02
    43    1.525560832075e-03
    44   -2.003013706105e-02
    45    1.696830321494e+00
    46    2.302009516501e-02
    47   -3.653202847856e-04
    48    9.456869126570e-04
Sym=X
Ene= 0.462139
Spin=Alpha
Occup=0
     1   -1.150218500164e-01
     2   -7.141457130895e-01
     3   -1.569062714815e-02
     4   -1.027504975532e-02
     5   -6.564953132306e-04
     6    6.083234485534e-02
     7    1.717820472158e-02
     8   -3.591035261625e+00
     9    1.029593507876e-01
    10   -9.924130488731e-02
    11    5.811029614034e-03
    12    2.425605164352e+00
    13   -2.305882167922e+00
    14   -5.483352780930e-03
    15    5.370440646570e-02
    16   -2.091233187009e-03
    17   -2.798443828401e-03
    18   -8.017575729911e-04
    19    1.794320127264e-02
    20   -1.199044601880e-01
    21   -7.070125010100e-01
    22    8.731158546259e-03
    23    1.635430168654e-02
    24    9.886408591420e-04
    25   -6.098348270498e-02
    26   -1.612087104401e-02
    27    3.592415615607e+00
    28    1.049844602143e-01
    29   -1.005154191638e-01
    30    1.868972076649e-04
    31    2.424656374524e+00
    32   -2.298904919424e+00
    33   -3.084188316776e-02
    34   -5.270718602672e-02
    35    4.437708564052e-03
    36    4.202771086360e-03
    37    6.598506022590e-04
    38   -1.902009597872e-02
    39    1.153241238355e-01
    40    7.096665832912e-01
    41    8.607775666787e-03
    42    1.622132722984e-02
    43    1.449473751202e-03
    44    1.112612584142e-01
    45    7.182403807636e-01
    46   -1.546085527788e-02
    47   -9.959152769388e-03
    48   -1.556416543653e-03
Sym=X
Ene= 0.577561
Spin=Alpha
Occup=0
     1    2.464617027503e-01
     2    4.173417092539e-02
     3   -1.851528163641e-02
     4    2.575330492906e-02
     5   -4.377108241249e-05
     6   -4.544238871724e-03
     7   -1.573858708281e-01
     8   -4.639134022406e-01
     9    2.988659275410e-01
    10   -2.878336403823e-01
    11   -2.672984619567e-03
    12   -7.217263199766e-01
    13    7.009053067188e-01
    14   -4.906094413154e-03
    15   -5.790414024500e-03
    16    3.053435838070e-03
    17    3.252265941619e-03
    18   -4.284420394380e-03
    19    6.024573739525e-02
    20    2.549039253416e-01
    21    3.321249052206e-02
    22   -2.625698370072e-02
    23    1.637193952155e-02
    24   -7.044550472309e-04
    25   -5.575650923045e-03
    26   -1.581550766448e-01
    27   -4.133846298218e-01
    28   -2.977041886950e-01
    29    2.854999901349e-01
    30    2.080297661323e-03
    31    7.598683587498e-01
    32   -7.311812670609e-01
    33   -1.127981573164e-03
    34   -5.822183722879e-03
    35    3.195811557183e-03
    36    3.430278378120e-03
    37   -3.631685612127e-03
    38    6.019946233882e-02
    39    2.503154791893e-01
    40    4.946464006027e-02
    41    2.718775075762e-02
    42   -1.708798089633e-02
    43    3.071929336193e-04
    44    2.490077947277e-01
    45    5.494159537142e-02
    46    1.844620946208e-02
    47   -2.585823002391e-02
    48   -6.116715338531e-04
Sym=X
Ene= 0.615100
Spin=Alpha
Occup=0
     1   -5.233666481402e-01
     2    2.004774765517e-01
     3   -6.132448766726e-02
     4    3.755493603851e-02
     5   -2.190786867182e-03
     6   -6.319131038882e-04
     7    6.647670135832e-04
     8   -1.719805820543e-02
     9   -4.076721899758e-02
    10   -3.942553719802e-02
    11   -5.094439786682e-03
    12    3.059854301690e-01
    13    2.853664859632e-01
    14    1.365826122681e-02
    15    1.704293886165e-03
    16   -9.611305661923e-03
    17    3.317154249460e-03
    18   -1.479276894142e-01
    19   -6.450709003275e-03
    20    5.070304820831e-01
    21   -1.996941168467e-01
    22    4.161254338856e-02
    23   -5.833141203654e-02
    24   -3.700603723305e-04
    25    4.187177770415e-04
    26   -1.240972670486e-03
    27    2.275277076654e-02
    28   -4.006916586634e-02
    29   -4.026596523734e-02
    30   -2.091216637270e-03
    31    3.004860274071e-01
    32    2.898728380418e-01
    33    4.018119365284e-02
    34   -1.403229597884e-03
    35    5.992813163118e-03
    36   -8.339025499030e-03
    37    1.490654417472e-01
    38    6.330558169066e-03
    39   -5.150118161450e-01
    40    2.068276484434e-01
    41    4.089775260616e-02
    42   -5.861979554578e-02
    43   -1.126419777499e-03
    44    5.212096791083e-01
    45   -2.050659948516e-01
    46   -6.145594081708e-02
    47    3.762814488750e-02
    48   -7.032451714620e-05
Sym=X
Ene= 0.689184
Spin=Alpha
Occup=0
     1    7.229741512485e-04
     2   -7.473750162218e-03
     3    3.209991443759e-03
     4    1.226936776605e-04
     5   -2.094804336721e-02
     6    1.669088643203e-04
     7    1.144785511063e-02
     8   -1.317691433031e-02
     9    2.266835860722e-02
    10    2.735550044574e-02
    11   -6.710327439041e-01
    12   -3.851790029211e-03
    13   -3.636002958136e-02
    14    6.145812478659e-01
    15   -4.069023749877e-03
    16    8.285278769953e-02
    17   -7.817992460704e-02
    18   -9.320119978401e-03
    19   -1.085913291053e-03
    20    3.161657891049e-03
    21   -1.813394104458e-02
    22    6.057691597238e-05
    23   -2.436506394999e-03
    24   -2.141306227316e-02
    25    6.540571217835e-04
    26    6.590162229060e-03
    27    2.477428038947e-03
    28    3.692769266770e-02
    29    3.593607976364e-02
    30   -6.701260441183e-01
    31   -2.155205600460e-02
    32   -4.911224821973e-02
    33    6.129615886468e-01
    34   -1.678044174880e-03
    35   -8.249021668197e-02
    36    7.900131253229e-02
    37    5.329237005830e-03
    38    3.028893824730e-03
    39    1.135926189109e-02
    40   -3.096651801830e-03
    41    2.934407669853e-03
    42    3.366609744537e-03
    43   -2.085392846215e-02
    44    9.204291300229e-03
    45    7.607049013936e-03
    46   -2.389404600655e-04
    47    8.063123334718e-04
    48   -2.113683862672e-02
Sym=X
Ene= 0.709283
Spin=Alpha
Occup=0
     1   -4.733770117341e-01
     2    1.559469610670e-01
     3   -8.038509964704e-02
     4   -4.450658972457e-02
     5   -4.716144885069e-03
     6   -4.745595622711e-02
     7   -3.212480648372e-01
     8    5.056526489557e-01
     9    2.046933645160e-01
    10   -1.912855136176e-01
    11   -1.094248056650e-02
    12   -9.459198816204e-02
    13    7.174231055689e-02
    14    2.262078812876e-02
    15    1.942859769959e-01
    16   -1.621227995438e-02
    17   -1.755940808206e-02
    18    3.327326947826e-03
    19   -7.777894879016e-02
    20   -4.760169553242e-01
    21    1.416708584798e-01
    22    4.095016028062e-02
    23    8.150091604544e-02
    24    4.996528315577e-03
    25   -4.716794987004e-02
    26   -3.203965067137e-01
    27    4.717073513902e-01
    28   -2.028731706809e-01
    29    1.918362183359e-01
    30   -9.525921111378e-03
    31    6.846301495317e-02
    32   -5.593196339740e-02
    33    2.091367747725e-03
    34    1.946996780399e-01
    35   -1.992890529477e-02
    36   -2.238476682598e-02
    37    2.247950973973e-03
    38   -7.592224554538e-02
    39   -4.738661554963e-01
    40    1.378820554312e-01
    41   -4.082912442104e-02
    42   -8.128467512208e-02
    43   -7.467007088795e-03
    44   -4.777286446194e-01
    45    1.497535029499e-01
    46    8.108858922660e-02
    47    4.412538882565e-02
    48    5.474734033721e-03
Sym=X
Ene= 0.784872
Spin=Alpha
Occup=0
     1   -5.286612639452e-01
     2    4.711933691391e-01
     3   -1.110207612046e-01
     4   -2.647349903433e-02
     5   -5.299935348853e-03
     6   -9.124126127911e-02
     7    2.129160237979e-01
     8    6.451996068355e-01
     9   -1.077899224445e-01
    10    1.083848519734e-01
    11   -1.603939019806e-02
    12   -3.199047606335e-01
    13    2.821608175424e-01
    14    3.813406738400e-02
    15    2.085088960613e-01
    16   -1.602678871041e-02
    17   -1.015263245069e-02
    18    1.226807922731e-03
    19   -9.775004098248e-03
    20   -5.375256235504e-01
    21    4.601282855302e-01
    22    2.047167884269e-02
    23    1.124509975219e-01
    24    4.527369505527e-03
    25    9.112646448153e-02
    26   -2.149328070684e-01
    27   -6.493404429444e-01
    28   -1.132894979766e-01
    29    1.055381964818e-01
    30    2.189167388790e-02
    31   -3.053827023749e-01
    32    2.874098295992e-01
    33   -3.623602569752e-02
    34   -2.065851612246e-01
    35    1.819470434035e-02
    36    2.349935322610e-02
    37   -1.575874752758e-03
    38    8.190773075987e-03
    39    5.399097207805e-01
    40   -4.646542843394e-01
    41    2.011640284738e-02
    42    1.124746318462e-01
    43    8.139158351094e-03
    44    5.287115815292e-01
    45   -4.634826918734e-01
    46   -1.097092060199e-01
    47   -2.668108780145e-02
    48   -6.744066249585e-03
Sym=X
Ene= 0.807955
Spin=Alpha
Occup=0
     1   -1.234565943088e-02
     2    3.020432646071e-02
     3   -8.190518887713e-03
     4   -1.869166076423e-03
     5    3.352116400734e-02
     6   -2.113769719974e-03
     7    6.590052153313e-04
     8    6.392813782733e-03
     9   -3.019524315189e-02
    10   -2.035504429693e-02
    11    7.640936044125e-01
    12    2.788544830688e-02
    13    4.252038851826e-02
    14   -1.128488855222e+00
    15    6.340581241816e-03
    16    6.459429675683e-02
    17   -6.209928857741e-02
    18   -9.698293251016e-03
    19    4.169671064528e-05
    20   -1.185634835055e-02
    21    8.815439845460e-04
    22   -3.568543876253e-03
    23    2.216575230069e-03
    24    3.492712047181e-02
    25    2.471884522905e-03
    26   -9.068176072454e-03
    27   -1.909330794586e-03
    28    3.468041278961e-02
    29    5.468388861410e-02
    30   -7.623061284864e-01
    31   -6.660669334033e-02
    32   -7.033947413520e-02
    33    1.125319460315e+00
    34   -7.511692411160e-03
    35    6.587503711029e-02
    36   -6.148595267135e-02
    37   -1.887066331137e-03
    38   -2.502980297078e-03
    39    1.202749353389e-02
    40    1.574896207996e-03
    41    8.111512121781e-05
    42    3.470982384266e-03
    43   -3.423060595064e-02
    44    1.214062803765e-02
    45   -2.796439789840e-02
    46   -3.198171961090e-03
    47    8.503705044228e-04
    48   -3.404762677960e-02
Sym=X
Ene= 0.862363
Spin=Alpha
Occup=0
     1    1.152154095427e-02
     2   -1.095090460654e+00
     3    1.479523845434e-01
     4    5.629170921704e-02
     5    9.787227405829e-03
     6   -1.487839110834e-04
     7   -1.564087367007e-03
     8    1.832928528678e-03
     9   -4.076004372666e-01
    10   -4.278801689293e-01
    11   -2.212732687985e-02
    12    9.498851477132e-01
    13    9.993628781819e-01
    14    5.317119659974e-02
    15    7.307518481031e-04
    16    1.210887516502e-02
    17   -9.332454742772e-03
    18    2.357108410496e-01
    19    9.703816224787e-03
    20   -1.399752488101e-02
    21    1.103442156293e+00
    22    5.005312178353e-02
    23    1.517825188069e-01
    24    6.460133466079e-03
    25    1.304067408238e-04
    26   -9.540343319621e-05
    27    2.271402847502e-04
    28   -4.074979966489e-01
    29   -4.291045146169e-01
    30   -5.457455732411e-02
    31    9.472222358479e-01
    32    1.001261723459e+00
    33    1.256166399217e-01
    34   -4.813198786812e-04
    35   -1.150448648697e-02
    36    1.034474780820e-02
    37   -2.370401874081e-01
    38   -1.042717774369e-02
    39    1.417954960925e-02
    40   -1.105036773075e+00
    41    4.886298953389e-02
    42    1.523915193978e-01
    43    1.037150411798e-02
    44   -1.161666718923e-02
    45    1.095664262235e+00
    46    1.487574084833e-01
    47    5.557557049022e-02
    48    1.063098521623e-02
Sym=X
Ene= 0.936121
Spin=Alpha
Occup=0
     1    1.121474067489e-01
     2   -1.287101591868e+00
     3    1.819542937916e-01
     4   -5.031749269375e-03
     5    6.659508537734e-03
     6   -3.167545211972e-04
     7   -1.385359498557e-03
     8    3.468373412946e-03
     9   -4.759249016016e-01
    10   -4.985729476689e-01
    11   -3.945479923781e-02
    12    1.476484757145e+00
    13    1.541564041245e+00
    14    1.234302093785e-01
    15    2.265744096685e-03
    16    4.849337029139e-03
    17   -1.474362304690e-03
    18    1.213446877119e-01
    19    3.405320983425e-03
    20   -1.168551753889e-01
    21    1.287215747215e+00
    22   -1.212384624587e-02
    23    1.831358893809e-01
    24    6.048387418235e-03
    25    1.210267167264e-04
    26   -2.373301281225e-03
    27    6.929711269361e-03
    28    4.730530931608e-01
    29    4.980600050218e-01
    30    4.998114709729e-02
    31   -1.468003522967e+00
    32   -1.536455914515e+00
    33   -1.531771848239e-01
    34   -2.115952164934e-04
    35    4.728882540628e-03
    36   -1.118622325340e-02
    37    1.197247747895e-01
    38    4.404455209631e-03
    39   -1.150175634575e-01
    40    1.280289822053e+00
    41    1.339074814680e-02
    42   -1.812630113901e-01
    43   -1.172013673735e-02
    44    1.145467611495e-01
    45   -1.285271286106e+00
    46   -1.819330002043e-01
    47    5.501811148963e-03
    48   -7.305732344138e-03
Sym=X
Ene= 0.972554
Spin=Alpha
Occup=0
     1   -6.496385216000e-02
     2    9.185953972965e-01
     3   -8.999925861262e-02
     4   -9.835632883371e-02
     5   -1.092236236563e-02
     6    2.517577951342e-02
     7    2.490673083473e-01
     8    5.246405630209e-01
     9    4.785994990205e-01
    10   -4.555357033080e-01
    11    6.778725543693e-03
    12   -1.486911357807e+00
    13    1.414635862090e+00
    14   -1.636900653050e-02
    15   -5.300177843780e-02
    16   -1.278892502757e-02
    17   -6.866994900360e-03
    18    1.443891247392e-02
    19   -3.010323598781e-01
    20   -6.244725525270e-02
    21    9.142322233734e-01
    22    9.531758842912e-02
    23    9.379389271669e-02
    24    5.514145214489e-03
    25   -2.510168731810e-02
    26   -2.424410772575e-01
    27   -5.354086004227e-01
    28    4.793866005344e-01
    29   -4.544592017735e-01
    30   -7.074484823830e-03
    31   -1.490673727955e+00
    32    1.413132354384e+00
    33    2.193695258949e-02
    34    5.226243512711e-02
    35    1.169414572530e-02
    36    7.486301719687e-03
    37   -1.443616064493e-02
    38    2.995860283064e-01
    39    6.327298729582e-02
    40   -9.104380044863e-01
    41    9.449152147528e-02
    42    9.339538101202e-02
    43    9.134715414823e-03
    44    6.588404203404e-02
    45   -9.168975704669e-01
    46   -8.984296196713e-02
    47   -9.819512548196e-02
    48   -8.962436577518e-03
[5D]

======= END OF MOLDEN-FORMATTED INPUT FILE =======


        *************************************************************
        *                                                           *
        *  Thank you very much for using Q-Chem.  Have a nice day.  *
        *                                                           *
        *************************************************************


