                  Welcome to Q-Chem
     A Quantum Leap Into The Future Of Chemistry


 Q-Chem 5.4 (devel), Q-Chem, Inc., Pleasanton, CA (2021)

 E. Epifanovsky,  A. T. B. Gilbert,  Xintian Feng,  Joonho Lee,  Yuezhi Mao,  
 N. Mardirossian,  P. Pokhilko,  A. White,  M. Wormit,  M. P. Coons,  
 A. L. Dempwolff,  Zhengting Gan,  D. Hait,  P. R. Horn,  L. D. Jacobson,  
 I. Kaliman,  J. Kussmann,  A. W. Lange,  Ka Un Lao,  D. S. Levine,  Jie Liu,  
 S. C. McKenzie,  A. F. Morrison,  K. Nanda,  F. Plasser,  D. R. Rehn,  
 M. L. Vidal,  Zhi-Qiang You,  Ying Zhu,  B. Alam,  B. Albrecht,  
 A. Aldossary,  E. Alguire,  J. H. Andersen,  D. Barton,  K. Begam,  A. Behn,  
 Y. A. Bernard,  E. J. Berquist,  H. Burton,  A. Carreras,  K. Carter-Fenk,  
 R. Chakraborty,  A. D. Chien,  K. D. Closser,  V. Cofer-Shabica,  
 S. Dasgupta,  Jia Deng,  M. de Wergifosse,  M. Diedenhofen,  Hainam Do,  
 S. Ehlert,  Po-Tung Fang,  S. Fatehi,  Qingguo Feng,  T. Friedhoff,  
 J. Gayvert,  Qinghui Ge,  G. Gidofalvi,  M. Goldey,  J. Gomes,  
 C. Gonzalez-Espinoza,  S. Gulania,  A. Gunina,  M. W. D. Hanson-Heine,  
 P. H. P. Harbach,  A. W. Hauser,  M. F. Herbst,  M. Hernandez Vera,  
 M. Hodecker,  Z. C. Holden,  S. Houck,  Xunkun Huang,  Kerwin Hui,  
 B. C. Huynh,  M. Ivanov,  Hyunjun Ji,  Hanjie Jiang,  B. Kaduk,  S. Kaehler,  
 K. Khistyaev,  Jaehoon Kim,  P. Klunzinger,  Z. Koczor-Benda,  
 Joong Hoon Koh,  D. Kosenkov,  L. Koulias,  T. Kowalczyk,  C. M. Krauter,  
 K. Kue,  A. Kunitsa,  T. Kus,  A. Landau,  K. V. Lawler,  D. Lefrancois,  
 S. Lehtola,  Rain Li,  Yi-Pei Li,  Jiashu Liang,  M. Liebenthal,  
 Hung-Hsuan Lin,  You-Sheng Lin,  Fenglai Liu,  Kuan-Yu Liu,  
 M. Loipersberger,  A. Luenser,  A. Manjanath,  P. Manohar,  E. Mansoor,  
 S. F. Manzer,  Shan-Ping Mao,  A. V. Marenich,  T. Markovich,  S. Mason,  
 S. A. Maurer,  P. F. McLaughlin,  M. F. S. J. Menger,  J.-M. Mewes,  
 S. A. Mewes,  P. Morgante,  J. W. Mullinax,  K. J. Oosterbaan,  G. Paran,  
 Alexander C. Paul,  Suranjan K. Paul,  F. Pavosevic,  Zheng Pei,  S. Prager,  
 E. I. Proynov,  E. Ramos,  B. Rana,  A. E. Rask,  A. Rettig,  R. M. Richard,  
 F. Rob,  E. Rossomme,  T. Scheele,  M. Scheurer,  M. Schneider,  
 N. Sergueev,  S. M. Sharada,  W. Skomorowski,  D. W. Small,  C. J. Stein,  
 Yu-Chuan Su,  E. J. Sundstrom,  Zhen Tao,  J. Thirman,  T. Tsuchimochi,  
 N. M. Tubman,  S. P. Veccham,  O. Vydrov,  J. Wenzel,  J. Witte,  A. Yamada,  
 Kun Yao,  S. Yeganeh,  S. R. Yost,  A. Zech,  Igor Ying Zhang,  Xing Zhang,  
 Yu Zhang,  D. Zuev,  A. Aspuru-Guzik,  A. T. Bell,  N. A. Besley,  
 K. B. Bravaya,  B. R. Brooks,  D. Casanova,  Jeng-Da Chai,  S. Coriani,  
 C. J. Cramer,  A. E. DePrince, III,  R. A. DiStasio Jr.,  A. Dreuw,  
 B. D. Dunietz,  T. R. Furlani,  W. A. Goddard III,  S. Grimme,  
 S. Hammes-Schiffer,  T. Head-Gordon,  W. J. Hehre,  Chao-Ping Hsu,  
 T.-C. Jagau,  Yousung Jung,  A. Klamt,  Jing Kong,  D. S. Lambrecht,  
 WanZhen Liang,  N. J. Mayhall,  C. W. McCurdy,  J. B. Neaton,  
 C. Ochsenfeld,  J. A. Parkhill,  R. Peverati,  V. A. Rassolov,  Yihan Shao,  
 L. V. Slipchenko,  T. Stauch,  R. P. Steele,  J. E. Subotnik,  
 A. J. W. Thom,  A. Tkatchenko,  D. G. Truhlar,  T. Van Voorhis,  
 T. A. Wesolowski,  K. B. Whaley,  H. L. Woodcock III,  P. M. Zimmerman,  
 S. Faraji,  P. M. W. Gill,  M. Head-Gordon,  J. M. Herbert,  A. I. Krylov

 Additional authors for Version 5.4.1: 
 S. Kotaru,  Shaozhi Li,  Xiangyuan Li,  F. Matz,  A. Molle,  Haisheng Ren,  
 Yingli Su,  Hung-Yi Tsai,  C. Utku,  Fang Wang

 Contributors to earlier versions of Q-Chem not listed above: 
 R. D. Adamson,  B. Austin,  R. Baer,  J. Baker,  G. J. O. Beran,  
 K. Brandhorst,  S. T. Brown,  E. F. C. Byrd,  A. K. Chakraborty,  
 G. K. L. Chan,  Chun-Min Chang,  Yunqing Chen,  C.-L. Cheng,  
 Siu Hung Chien,  D. M. Chipman,  D. L. Crittenden,  H. Dachsel,  
 R. J. Doerksen,  A. D. Dutoi,  R. G. Edgar,  J. Fosso-Tande,  
 L. Fusti-Molnar,  D. Ghosh,  A. Ghysels,  A. Golubeva-Zadorozhnaya,  
 J. Gonthier,  M. S. Gordon,  S. R. Gwaltney,  G. Hawkins,  J. E. Herr,  
 A. Heyden,  S. Hirata,  E. G. Hohenstein,  G. Kedziora,  F. J. Keil,  
 C. Kelley,  Jihan Kim,  R. A. King,  R. Z. Khaliullin,  P. P. Korambath,  
 W. Kurlancheek,  A. Laurent,  A. M. Lee,  M. S. Lee,  S. V. Levchenko,  
 Ching Yeh Lin,  D. Liotard,  E. Livshits,  R. C. Lochan,  I. Lotan,  
 L. A. Martinez-Martinez,  P. E. Maslen,  N. Nair,  D. P. O'Neill,  
 D. Neuhauser,  E. Neuscamman,  C. M. Oana,  R. Olivares-Amaya,  R. Olson,  
 T. M. Perrine,  B. Peters,  P. A. Pieniazek,  A. Prociuk,  Y. M. Rhee,  
 J. Ritchie,  M. A. Rohrdanz,  E. Rosta,  N. J. Russ,  H. F. Schaefer III,  
 M. W. Schmidt,  N. E. Schultz,  S. Sharma,  N. Shenvi,  C. D. Sherrill,  
 A. C. Simmonett,  A. Sodt,  T. Stein,  D. Stuck,  K. S. Thanthiriwatte,  
 V. Vanovschi,  L. Vogt,  Tao Wang,  A. Warshel,  M. A. Watson,  
 C. F. Williams,  Q. Wu,  X. Xu,  Jun Yang,  W. Zhang,  Yan Zhao

 Please cite Q-Chem as follows:
 Y. Shao et al., Mol. Phys. 113, 184-215 (2015)
 DOI: 10.1080/00268976.2014.952696

 Q-Chem 5.4.1 for Intel X86 EM64T Linux

 Parts of Q-Chem use Armadillo 9.800.1 (Horizon Scraper).
 http://arma.sourceforge.net/

 Q-Chem begins on Mon Mar 20 18:37:45 2023  

 Host: cpu186.baobab
0

     Scratch files written to /scratch/fum/qchem80904//
 Processing $rem in /home/share/wesolowski/qc5.aug2021.FDE/config/preferences:
 Processing $rem in /home/fum/.qchemrc:

 Checking the input file for inconsistencies... 	...done.

--------------------------------------------------------------
User input:
--------------------------------------------------------------
$comment
generated from CCJob.Templates
$end

$rem
sym_ignore = true
method = adc(2)
ee_states = 10
basis = cc-pVDZ
mem_static = 1024
mem_total = 40000
adc_davidson_maxiter = 900
adc_davidson_conv = 6
adc_print = 3
adc_prop_es = true
adc_prop_es2es = true
adc_prop_tpa = true
molden_format = True
state_analysis = true
print_orbitals = 15
gen_scfman = false
fde_export_density = true
fde_details = 3
$end

$molecule
0 1
H -0.05815222151501202 -0.2562997074065011 0.06280362492458341
C -1.0651457047372188 -0.5110115331335305 -0.0009408601701945318
H -1.3086467819029464 -1.629983078169293 -0.08028033891761072
C -2.0320091587396494 0.40723504056402626 0.008029720129417654
H -1.8289427291013822 1.425579275337597 0.079341883582971
H -3.1376965210080185 0.10710015389532164 -0.06311942837456339                     
$end
--------------------------------------------------------------
 ----------------------------------------------------------------
             Standard Nuclear Orientation (Angstroms)
    I     Atom           X                Y                Z
 ----------------------------------------------------------------
    1      H      -0.0581522215    -0.2562997074     0.0628036249
    2      C      -1.0651457047    -0.5110115331    -0.0009408602
    3      H      -1.3086467819    -1.6299830782    -0.0802803389
    4      C      -2.0320091587     0.4072350406     0.0080297201
    5      H      -1.8289427291     1.4255792753     0.0793418836
    6      H      -3.1376965210     0.1071001539    -0.0631194284
 ----------------------------------------------------------------
 Nuclear Repulsion Energy =          33.23863550 hartrees
 There are        8 alpha and        8 beta electrons
 Requested basis set is cc-pVDZ
 There are 24 shells and 48 basis functions
 Total memory of 40000 MB is distributed as follows: 
   MEM_STATIC is set to 1024 MB
   QALLOC/CCMAN JOB total memory use is  38976 MB
 Warning: actual memory use might exceed 40000 MB

 Total QAlloc Memory Limit  40000 MB
 Mega-Array Size      1001 MB
 MEM_STATIC part      1024 MB

                       Distance Matrix (Angstroms)
             H (  1)   C (  2)   H (  3)   C (  4)   H (  5)
   C (  2)  1.040662
   H (  3)  1.863120  1.147905
   C (  4)  2.083120  1.333447  2.163633
   H (  5)  2.442271  2.083318  3.103651  1.040839
   H (  6)  3.103467  2.163653  2.522534  1.147906  1.863201

 A cutoff of  1.0D-11 yielded    300 shell pairs
 There are      1220 function pairs (      1329 Cartesian)
 Smallest overlap matrix eigenvalue = 4.82E-03

 Scale SEOQF with 1.000000e-01/1.000000e-01/1.000000e+00

 Standard Electronic Orientation quadrupole field applied
 Nucleus-field energy     =     0.0000000022 hartrees
 Guess from superposition of atomic densities
 Warning:  Energy on first SCF cycle will be non-variational
 SAD guess density has 16.000000 electrons
 A restricted Hartree-Fock SCF calculation will be
 performed using Pulay DIIS extrapolation
 SCF converges when DIIS error is below 1.0E-08
 using 10 threads for integral computing
 -------------------------------------------------------
 OpenMP Integral computing Module                
 Release: version 1.0, May 2013, Q-Chem Inc. Pittsburgh 
 -------------------------------------------------------
 ---------------------------------------
  Cycle       Energy         DIIS Error
 ---------------------------------------
    1     -78.3984612450      9.97E-02
    2     -78.0096996993      7.16E-03
    3     -78.0303717284      1.84E-03
    4     -78.0318738951      5.72E-04
    5     -78.0319957354      5.93E-05
    6     -78.0319976805      9.42E-06
    7     -78.0319977436      1.97E-06
    8     -78.0319977464      1.98E-07
    9     -78.0319977464      7.22E-08
   10     -78.0319977464      1.43E-08
   11     -78.0319977464      3.09E-09 Convergence criterion met
 ---------------------------------------
 SCF time:  CPU 2.11 s  wall 2.50 s
 SCF   energy in the final basis set = -78.03199775
 Total energy in the final basis set = -78.03199775
Exporting Density Matrix to file 'Densmat_SCF.txt'.
Export successful
================================================================================
|                                                                              |
|                                 A D C  M A N                                 |
|                                                                              |
 ------------------------------------------------------------------------------ 
|                                                                              |
| Components:                                                                  |
|                                                                              |
| - libvmm - 1.3-trunk                                                         |
|   Authors:                                                                   |
|   Evgeny Epifanovsky, Ilya Kaliman                                           |
|                                                                              |
| - libtensor - 2.5-trunk                                                      |
|   Authors:                                                                   |
|   Evgeny Epifanovsky, Michael Wormit, Dmitry Zuev, Sam Manzer,               |
|   Ilya Kaliman                                                               |
|                                                                              |
| - libwfa - 1.1-trunk                                                         |
|   Authors:                                                                   |
|   Felix Plasser, Stefanie Mewes (Baeppler), Benjamin Thomitzni,              |
|   Michael Wormit, Feng Chen, Anna I. Krylov, Pavel Pokhilko                  |
|                                                                              |
| - libadc - 1.1-trunk                                                         |
|   Authors:                                                                   |
|   Michael Wormit, Adrian L. Dempwolff, Philipp H. P. Harbach,                |
|   Caroline Krauter, Dirk Rehn, Matthias Schneider, Jan Wenzel                |
|                                                                              |
| - adcman - 2.6-trunk                                                         |
|   Authors:                                                                   |
|   Michael Wormit, Adrian L. Dempwolff, Philipp H. P. Harbach,                |
|   Caroline Krauter, Daniel Lefrancois, Jan-Michael Mewes, Dirk Rehn,         |
|   Matthias Schneider, Jan Wenzel, Andreas Dreuw                              |
|                                                                              |
| Authors of earlier versions of ADCMAN:                                       |
| Andreas Dreuw, Jan Hendrik Starcke, Dirk Rehn, Michael Wormit                |
|                                                                              |
================================================================================

 Created directory /scratch/fum/qchem80904/plots
  Import QC data ...  CPU 0.00 s  wall 0.00 s

 Alpha MOs, Restricted
 -- Occupied --                  
-11.239 -11.237  -1.031  -0.789  -0.639  -0.579  -0.498  -0.375
  1 A     2 A     3 A     4 A     5 A     6 A     7 A     8 A                  
 -- Virtual --                   
  0.168   0.200   0.232   0.236   0.302   0.463   0.579   0.609
  9 A    10 A    11 A    12 A    13 A    14 A    15 A    16 A                  
  0.688   0.706   0.771   0.807   0.859   0.927   0.978   1.009
 17 A    18 A    19 A    20 A    21 A    22 A    23 A    24 A                  
  1.131   1.230   1.248   1.263   1.292   1.584   1.727   1.751
 25 A    26 A    27 A    28 A    29 A    30 A    31 A    32 A                  
  1.811   1.852   1.854   1.901   1.933   2.004   2.214   2.241
 33 A    34 A    35 A    36 A    37 A    38 A    39 A    40 A                  
  2.367   2.426   2.494   2.620   2.625   2.887   3.104   3.404
 41 A    42 A    43 A    44 A    45 A    46 A    47 A    48 A                  

 Beta MOs, Restricted
 -- Occupied --                  
-11.239 -11.237  -1.031  -0.789  -0.639  -0.579  -0.498  -0.375
  1 A     2 A     3 A     4 A     5 A     6 A     7 A     8 A                  
 -- Virtual --                   
  0.168   0.200   0.232   0.236   0.302   0.463   0.579   0.609
  9 A    10 A    11 A    12 A    13 A    14 A    15 A    16 A                  
  0.688   0.706   0.771   0.807   0.859   0.927   0.978   1.009
 17 A    18 A    19 A    20 A    21 A    22 A    23 A    24 A                  
  1.131   1.230   1.248   1.263   1.292   1.584   1.727   1.751
 25 A    26 A    27 A    28 A    29 A    30 A    31 A    32 A                  
  1.811   1.852   1.854   1.901   1.933   2.004   2.214   2.241
 33 A    34 A    35 A    36 A    37 A    38 A    39 A    40 A                  
  2.367   2.426   2.494   2.620   2.625   2.887   3.104   3.404
 41 A    42 A    43 A    44 A    45 A    46 A    47 A    48 A                  
  Import AO data ...  CPU 0.00 s  wall 0.00 s
  Using point group: C1
  Irreducible representations in point group: A
  Molecular orbitals: 
  Occupied MOs:
  Block   0:   1 (  A) A   2 (  A) A   3 (  A) A   4 (  A) A   5 (  A) A
                  -11.24      -11.24      -1.031     -0.7889     -0.6387
               6 (  A) A   7 (  A) A   8 (  A) A
                 -0.5793      -0.498     -0.3748
  Block   1:   1 (  A) B   2 (  A) B   3 (  A) B   4 (  A) B   5 (  A) B
                  -11.24      -11.24      -1.031     -0.7889     -0.6387
               6 (  A) B   7 (  A) B   8 (  A) B
                 -0.5793      -0.498     -0.3748
  Virtual MOs:
  Block   0:   9 (  A) A  10 (  A) A  11 (  A) A  12 (  A) A  13 (  A) A
                  0.1677      0.2005      0.2316      0.2363      0.3022
              14 (  A) A  15 (  A) A  16 (  A) A  17 (  A) A  18 (  A) A
                  0.4631      0.5791      0.6085      0.6881      0.7065
              19 (  A) A  20 (  A) A  21 (  A) A  22 (  A) A
                  0.7713      0.8068       0.859       0.927
  Block   1:  23 (  A) A  24 (  A) A  25 (  A) A  26 (  A) A  27 (  A) A
                  0.9776       1.009       1.131        1.23       1.248
              28 (  A) A  29 (  A) A  30 (  A) A  31 (  A) A  32 (  A) A
                   1.263       1.292       1.584       1.727       1.751
              33 (  A) A  34 (  A) A  35 (  A) A  36 (  A) A
                   1.811       1.852       1.854       1.901
  Block   2:  37 (  A) A  38 (  A) A  39 (  A) A  40 (  A) A  41 (  A) A
                   1.933       2.004       2.214       2.241       2.367
              42 (  A) A  43 (  A) A  44 (  A) A  45 (  A) A  46 (  A) A
                   2.426       2.494        2.62       2.625       2.887
              47 (  A) A  48 (  A) A
                   3.104       3.404
  Block   3:   9 (  A) B  10 (  A) B  11 (  A) B  12 (  A) B  13 (  A) B
                  0.1677      0.2005      0.2316      0.2363      0.3022
              14 (  A) B  15 (  A) B  16 (  A) B  17 (  A) B  18 (  A) B
                  0.4631      0.5791      0.6085      0.6881      0.7065
              19 (  A) B  20 (  A) B  21 (  A) B  22 (  A) B
                  0.7713      0.8068       0.859       0.927
  Block   4:  23 (  A) B  24 (  A) B  25 (  A) B  26 (  A) B  27 (  A) B
                  0.9776       1.009       1.131        1.23       1.248
              28 (  A) B  29 (  A) B  30 (  A) B  31 (  A) B  32 (  A) B
                   1.263       1.292       1.584       1.727       1.751
              33 (  A) B  34 (  A) B  35 (  A) B  36 (  A) B
                   1.811       1.852       1.854       1.901
  Block   5:  37 (  A) B  38 (  A) B  39 (  A) B  40 (  A) B  41 (  A) B
                   1.933       2.004       2.214       2.241       2.367
              42 (  A) B  43 (  A) B  44 (  A) B  45 (  A) B  46 (  A) B
                   2.426       2.494        2.62       2.625       2.887
              47 (  A) B  48 (  A) B
                   3.104       3.404
  Import MO data ...  CPU 0.15 s  wall 0.06 s
  Import HF data ...  CPU 0.54 s  wall 0.18 s
  Import 2e integrals ...  CPU 1.10 s  wall 0.20 s

--------------------------------------------------------------------------------
                                   HF Summary                                   
--------------------------------------------------------------------------------
  Energy:                                                  -78.0319977464 a.u.
  Dip. moment [a.u.]:                  [   0.022389,    0.023544,    0.002517]
  Total dipole [Debye]:                                               0.082827
  <r^2> [a.u.]:                        [ 175.251229,   35.293603,   11.678919]
  Total <r^2> [a.u.]:                                               222.223751
--------------------------------------------------------------------------------
  HF properties ...  CPU 0.03 s  wall 0.02 s
  MP(1) calculation ...  CPU 0.01 s  wall 0.01 s
  N^6 prerequesite intermediates ...  CPU 0.63 s  wall 0.11 s
  Difference density matrix of state mp2_gs printed to ASCII file 'State_mp2_gs_Difference.txt'
Exporting MP density matrix to file 'Densmat_MP.txt'.
Export successful
  Total density matrix of state mp2_gs printed to ASCII file 'State_mp2_gs_Total.txt'
Exporting MP density matrix to file 'Densmat_MP.txt'.
Export successful

--------------------------------------------------------------------------------
                                 MP(2) Summary                                  
--------------------------------------------------------------------------------
  MP energy contribution:                                   -0.2804550764 a.u.
  Total energy:                                            -78.3124528228 a.u.
  Dip. moment [a.u.]:                  [   0.018296,    0.019237,    0.002060]
  Total dipole [Debye]:                                               0.067681
  <r^2> [a.u.]:                        [ 175.265185,   35.326242,   11.505482]
  Total <r^2> [a.u.]:                                               222.096910

  Density matrix analysis:
  ------------------------
  NOs
    Occupation of frontier NOs:
       0.0455   1.9380
    Number of electrons: 16.000000
    Number of unpaired electrons: n_u =  0.40765, n_u,nl =  0.04596
    NO participation ratio (PR_NO): 13.875124
  
  
  Mulliken Population Analysis
  Atom      Charge (e)              h+              e-           Del q
  --------------------------------------------------------------------
   1 H        0.041860        0.014623       -0.011215        0.003408
   2 C       -0.105274        0.094604       -0.100098       -0.005494
   3 H        0.063454        0.013521       -0.011435        0.002086
   4 C       -0.105408        0.094615       -0.100104       -0.005489
   5 H        0.041917        0.014619       -0.011216        0.003404
   6 H        0.063451        0.013521       -0.011435        0.002086
  --------------------------------------------------------------------
  Sum:       -0.000000        0.245503       -0.245503       -0.000000
  
  Multipole moment analysis of the density matrix
    Molecular charge:                      0.000000
    Number of electrons:                   16.000000
      Center of electronic charge [Ang]: [ -1.557878,  -0.061653,   0.002512]
    Total nuclear charge:                  16.000000
      Center of nuclear charge [Ang]:    [ -1.557273,  -0.061016,   0.002580]
    Dipole moment [D]:                     0.067681
      Cartesian components [D]:          [  0.046504,   0.048895,   0.005237]
    RMS size of the density [Ang]:         1.206773
      Cartesian components [Ang]:        [  0.800293,   0.783882,   0.448732]
  
  Exciton analysis of the difference density matrix
    <r_h> [Ang]:                  [ -1.570092,  -0.074475,   0.001147]
    <r_e> [Ang]:                  [ -1.561270,  -0.065191,   0.002132]
    |<r_e - r_h>| [Ang]:            0.012844
    Hole size [Ang]:                1.404255
      Cartesian components [Ang]: [  0.854950,   0.842185,   0.729190]
    Electron size [Ang]:            1.362414
      Cartesian components [Ang]: [  0.880047,   0.864755,   0.577829]
--------------------------------------------------------------------------------
  MP(2) calculation ...  CPU 0.60 s  wall 0.26 s
  Start ADC(2)-s ...  CPU 0.10 s  wall 0.03 s
  ADC(2) intermediates ...  CPU 0.04 s  wall 0.01 s
  Starting Davidson for singlet states of irrep A ... 
--------------------------------------------------------------------------------
   It NVec Conv  Avg. Norm  Max. Norm  Conv. states           Remark
--------------------------------------------------------------------------------
        10    0  1.329e-01  4.674e-01  0.4077 n n n n n n n n Guess.
    1   20    0  2.330e-02  1.111e-01  0.3262 n n n n n n n n 
    2   30    0  6.086e-03  2.540e-02  0.3213 n n n n n n n n 
    3   40    0  2.111e-03  1.084e-02  0.3209 n n n n n n n n 
    4   50    0  5.816e-04  3.863e-03  0.3209 n n n n n n n n 
    5   20    0  2.853e-04  1.713e-03  0.3209 n n n n n n n n Subspace collapsed.
    6   30    0  1.643e-04  9.000e-04  0.3209 n n n n n n n n 
    7   40    0  1.093e-04  6.921e-04  0.3209 n n n n n n n n 
    8   50    0  7.963e-05  5.491e-04  0.3209 n n n n n n n n 
    9   20    1  3.819e-05  2.358e-04  0.3209 n y n n n n n n Subspace collapsed.
   10   30    2  2.460e-05  1.471e-04  0.3209 n y n y n n n n 
   11   40    5  1.272e-05  7.699e-05  0.3209 n y y y y y n n 
   12   50    6  1.084e-05  8.590e-05  0.3209 y y y y y y n n 
   13   20    6  6.703e-06  5.549e-05  0.3209 y y y y y y n n Subspace collapsed.
   14   30    6  7.512e-06  6.513e-05  0.3209 y y y y y y n n 
   15   40    6  7.201e-06  6.593e-05  0.3209 y y y y y y n n 
   16   50    6  5.786e-06  5.443e-05  0.3209 y y y y y y n n 
   17   20    7  1.934e-06  1.827e-05  0.3209 y y y y y y y n Subspace collapsed.
   18   30    7  1.613e-06  1.522e-05  0.3209 y y y y y y y n 
   19   40    7  8.398e-07  7.952e-06  0.3209 y y y y y y y n 
   20   50    7  8.502e-07  8.155e-06  0.3209 y y y y y y y n 
   21   20    8  5.478e-07  5.264e-06  0.3209 y y y y y y y n Subspace collapsed.
   22   30    7  7.955e-07  7.661e-06  0.3209 y y y y y y y n 
   23   40    8  6.584e-07  6.319e-06  0.3209 y y y y y y y y 
   24   41    8  6.575e-07  6.310e-06  0.3209 y y y y y y y y 
   25   41    8  6.575e-07  6.310e-06  0.3209 y y y y y y y y 
   26   50    8  5.389e-07  5.057e-06  0.3209 y y y y y y y y 
   27   16    9  2.086e-07  1.959e-06  0.3209 y y y y y y y y Subspace collapsed.
   28   22    9  1.891e-07  1.772e-06  0.3209 y y y y y y y y 
   29   28    9  1.154e-07  1.079e-06  0.3209 y y y y y y y y 
   30   34   10  8.232e-08  7.561e-07  0.3209 y y y y y y y y Converged.
--------------------------------------------------------------------------------
  Davidson Summary: 
 ------------------------------------------------------------
  State  0: excitation energy =   0.3209 a.u.   (converged)
  State  1: excitation energy =   0.3259 a.u.   (converged)
  State  2: excitation energy =   0.3331 a.u.   (converged)
  State  3: excitation energy =   0.3617 a.u.   (converged)
  State  4: excitation energy =   0.3726 a.u.   (converged)
  State  5: excitation energy =   0.3860 a.u.   (converged)
  State  6: excitation energy =   0.4163 a.u.   (converged)
  State  7: excitation energy =   0.4439 a.u.   (converged)
  State  8: excitation energy =   0.4535 a.u.   (converged)
  State  9: excitation energy =   0.4599 a.u.   (converged)
 ------------------------------------------------------------

  Singlet states of irrep A ...  CPU 193.41 s  wall 63.20 s
  TDMs ...  CPU 2.52 s  wall 0.86 s
  SDMs ...  CPU 4.15 s  wall 1.34 s
  Starting TPA DIIS iterations ... 
------------------------------------ 
   It     Res. Norm  Remark
------------------------------------
                       Guess.
    1     4.395e+00  
    2     5.833e+00  
    3     1.088e+00  
    4     2.610e-01  
    5     6.472e-02  
    6     2.734e-02  
    7     8.450e-03  
    8     1.617e-03  
    9     6.532e-04  
   10     1.050e-04  
   11     3.688e-05  
   12     6.621e-06  
   13     2.381e-06  
   14     8.694e-07  Converged.
   ... Converged in 14 steps (norm: 8.69444e-07)
------------------------------------
  Starting TPA DIIS iterations ... 
------------------------------------ 
   It     Res. Norm  Remark
------------------------------------
                       Guess.
    1     4.185e+00  
    2     5.544e+00  
    3     1.039e+00  
    4     2.595e-01  
    5     6.454e-02  
    6     2.735e-02  
    7     8.305e-03  
    8     1.627e-03  
    9     6.523e-04  
   10     1.035e-04  
   11     3.671e-05  
   12     6.501e-06  
   13     2.471e-06  
   14     8.848e-07  Converged.
   ... Converged in 14 steps (norm: 8.84796e-07)
------------------------------------
  Starting TPA DIIS iterations ... 
------------------------------------ 
   It     Res. Norm  Remark
------------------------------------
                       Guess.
    1     6.963e-01  
    2     4.978e-01  
    3     1.726e-01  
    4     6.758e-02  
    5     1.936e-02  
    6     8.541e-03  
    7     2.442e-03  
    8     8.166e-04  
    9     4.831e-04  
   10     1.363e-04  
   11     6.270e-05  
   12     1.466e-05  
   13     9.647e-06  
   14     3.342e-06  
   15     1.169e-06  
   16     2.743e-07  Converged.
   ... Converged in 16 steps (norm: 2.74261e-07)
------------------------------------
  Starting TPA DIIS iterations ... 
------------------------------------ 
   It     Res. Norm  Remark
------------------------------------
                       Guess.
    1     4.514e+00  
    2     6.045e+00  
    3     1.122e+00  
    4     2.729e-01  
    5     6.809e-02  
    6     2.889e-02  
    7     8.924e-03  
    8     1.710e-03  
    9     6.935e-04  
   10     1.117e-04  
   11     3.942e-05  
   12     7.116e-06  
   13     2.577e-06  
   14     9.403e-07  Converged.
   ... Converged in 14 steps (norm: 9.40327e-07)
------------------------------------
  Starting TPA DIIS iterations ... 
------------------------------------ 
   It     Res. Norm  Remark
------------------------------------
                       Guess.
    1     4.298e+00  
    2     5.746e+00  
    3     1.071e+00  
    4     2.712e-01  
    5     6.790e-02  
    6     2.891e-02  
    7     8.771e-03  
    8     1.721e-03  
    9     6.924e-04  
   10     1.101e-04  
   11     3.923e-05  
   12     6.985e-06  
   13     2.678e-06  
   14     9.582e-07  Converged.
   ... Converged in 14 steps (norm: 9.58173e-07)
------------------------------------
  Starting TPA DIIS iterations ... 
------------------------------------ 
   It     Res. Norm  Remark
------------------------------------
                       Guess.
    1     7.017e-01  
    2     5.055e-01  
    3     1.768e-01  
    4     7.097e-02  
    5     2.014e-02  
    6     8.856e-03  
    7     2.574e-03  
    8     8.709e-04  
    9     5.128e-04  
   10     1.470e-04  
   11     6.762e-05  
   12     1.599e-05  
   13     1.070e-05  
   14     3.743e-06  
   15     1.307e-06  
   16     2.991e-07  Converged.
   ... Converged in 16 steps (norm: 2.99108e-07)
------------------------------------
  Starting TPA DIIS iterations ... 
------------------------------------ 
   It     Res. Norm  Remark
------------------------------------
                       Guess.
    1     4.695e+00  
    2     6.372e+00  
    3     1.174e+00  
    4     2.915e-01  
    5     7.335e-02  
    6     3.132e-02  
    7     9.666e-03  
    8     1.856e-03  
    9     7.569e-04  
   10     1.222e-04  
   11     4.346e-05  
   12     7.907e-06  
   13     2.894e-06  
   14     1.054e-06  
   15     3.689e-07  Converged.
   ... Converged in 15 steps (norm: 3.68853e-07)
------------------------------------
  Starting TPA DIIS iterations ... 
------------------------------------ 
   It     Res. Norm  Remark
------------------------------------
                       Guess.
    1     4.470e+00  
    2     6.056e+00  
    3     1.120e+00  
    4     2.896e-01  
    5     7.316e-02  
    6     3.135e-02  
    7     9.501e-03  
    8     1.868e-03  
    9     7.557e-04  
   10     1.204e-04  
   11     4.324e-05  
   12     7.757e-06  
   13     3.015e-06  
   14     1.077e-06  
   15     4.315e-07  Converged.
   ... Converged in 15 steps (norm: 4.31486e-07)
------------------------------------
  Starting TPA DIIS iterations ... 
------------------------------------ 
   It     Res. Norm  Remark
------------------------------------
                       Guess.
    1     7.095e-01  
    2     5.171e-01  
    3     1.831e-01  
    4     7.630e-02  
    5     2.135e-02  
    6     9.335e-03  
    7     2.781e-03  
    8     9.571e-04  
    9     5.594e-04  
   10     1.642e-04  
   11     7.557e-05  
   12     1.818e-05  
   13     1.246e-05  
   14     4.410e-06  
   15     1.537e-06  
   16     3.388e-07  Converged.
   ... Converged in 16 steps (norm: 3.38845e-07)
------------------------------------
  Starting TPA DIIS iterations ... 
------------------------------------ 
   It     Res. Norm  Remark
------------------------------------
                       Guess.
    1     5.548e+00  
    2     7.962e+00  
    3     1.415e+00  
    4     3.858e-01  
    5     9.998e-02  
    6     4.380e-02  
    7     1.344e-02  
    8     2.601e-03  
    9     1.087e-03  
   10     1.769e-04  
   11     6.500e-05  
   12     1.217e-05  
   13     4.691e-06  
   14     1.688e-06  
   15     6.700e-07  Converged.
   ... Converged in 15 steps (norm: 6.70025e-07)
------------------------------------
  Starting TPA DIIS iterations ... 
------------------------------------ 
   It     Res. Norm  Remark
------------------------------------
                       Guess.
    1     5.279e+00  
    2     7.565e+00  
    3     1.350e+00  
    4     3.822e-01  
    5     9.974e-02  
    6     4.391e-02  
    7     1.321e-02  
    8     2.621e-03  
    9     1.084e-03  
   10     1.742e-04  
   11     6.456e-05  
   12     1.191e-05  
   13     4.936e-06  
   14     1.746e-06  
   15     7.990e-07  Converged.
   ... Converged in 15 steps (norm: 7.99008e-07)
------------------------------------
  Starting TPA DIIS iterations ... 
------------------------------------ 
   It     Res. Norm  Remark
------------------------------------
                       Guess.
    1     7.423e-01  
    2     5.682e-01  
    3     2.122e-01  
    4     1.039e-01  
    5     2.712e-02  
    6     1.156e-02  
    7     3.814e-03  
    8     1.413e-03  
    9     8.015e-04  
   10     2.600e-04  
   11     1.207e-04  
   12     3.123e-05  
   13     2.391e-05  
   14     8.496e-06  
   15     2.919e-06  
   16     5.537e-07  Converged.
   ... Converged in 16 steps (norm: 5.53713e-07)
------------------------------------
  Starting TPA DIIS iterations ... 
------------------------------------ 
   It     Res. Norm  Remark
------------------------------------
                       Guess.
    1     5.941e+00  
    2     8.720e+00  
    3     1.526e+00  
    4     4.326e-01  
    5     1.132e-01  
    6     5.009e-02  
    7     1.532e-02  
    8     2.975e-03  
    9     1.255e-03  
   10     2.047e-04  
   11     7.626e-05  
   12     1.441e-05  
   13     5.688e-06  
   14     2.035e-06  
   15     8.533e-07  Converged.
   ... Converged in 15 steps (norm: 8.53294e-07)
------------------------------------
  Starting TPA DIIS iterations ... 
------------------------------------ 
   It     Res. Norm  Remark
------------------------------------
                       Guess.
    1     5.652e+00  
    2     8.285e+00  
    3     1.455e+00  
    4     4.283e-01  
    5     1.130e-01  
    6     5.024e-02  
    7     1.506e-02  
    8     3.000e-03  
    9     1.252e-03  
   10     2.015e-04  
   11     7.569e-05  
   12     1.408e-05  
   13     6.015e-06  
   14     2.121e-06  
   15     1.024e-06  
   16     3.861e-07  Converged.
   ... Converged in 16 steps (norm: 3.86119e-07)
------------------------------------
  Starting TPA DIIS iterations ... 
------------------------------------ 
   It     Res. Norm  Remark
------------------------------------
                       Guess.
    1     7.557e-01  
    2     5.902e-01  
    3     2.251e-01  
    4     1.178e-01  
    5     2.984e-02  
    6     1.258e-02  
    7     4.319e-03  
    8     1.650e-03  
    9     9.249e-04  
   10     3.126e-04  
   11     1.460e-04  
   12     3.918e-05  
   13     3.131e-05  
   14     1.091e-05  
   15     3.727e-06  
   16     6.802e-07  Converged.
   ... Converged in 16 steps (norm: 6.80191e-07)
------------------------------------
  Starting TPA DIIS iterations ... 
------------------------------------ 
   It     Res. Norm  Remark
------------------------------------
                       Guess.
    1     6.492e+00  
    2     9.810e+00  
    3     1.680e+00  
    4     5.018e-01  
    5     1.327e-01  
    6     5.945e-02  
    7     1.810e-02  
    8     3.531e-03  
    9     1.508e-03  
   10     2.464e-04  
   11     9.334e-05  
   12     1.783e-05  
   13     7.264e-06  
   14     2.584e-06  
   15     1.164e-06  
   16     4.442e-07  Converged.
   ... Converged in 16 steps (norm: 4.4418e-07)
------------------------------------
  Starting TPA DIIS iterations ... 
------------------------------------ 
   It     Res. Norm  Remark
------------------------------------
                       Guess.
    1     6.175e+00  
    2     9.320e+00  
    3     1.602e+00  
    4     4.960e-01  
    5     1.324e-01  
    6     5.968e-02  
    7     1.780e-02  
    8     3.562e-03  
    9     1.503e-03  
   10     2.423e-04  
   11     9.254e-05  
   12     1.739e-05  
   13     7.738e-06  
   14     2.727e-06  
   15     1.406e-06  
   16     5.521e-07  Converged.
   ... Converged in 16 steps (norm: 5.52091e-07)
------------------------------------
  Starting TPA DIIS iterations ... 
------------------------------------ 
   It     Res. Norm  Remark
------------------------------------
                       Guess.
    1     7.729e-01  
    2     6.197e-01  
    3     2.429e-01  
    4     1.386e-01  
    5     3.375e-02  
    6     1.397e-02  
    7     5.055e-03  
    8     2.007e-03  
    9     1.110e-03  
   10     3.954e-04  
   11     1.862e-04  
   12     5.300e-05  
   13     4.440e-05  
   14     1.483e-05  
   15     5.036e-06  
   16     9.158e-07  Converged.
   ... Converged in 16 steps (norm: 9.15811e-07)
------------------------------------
  Starting TPA DIIS iterations ... 
------------------------------------ 
   It     Res. Norm  Remark
------------------------------------
                       Guess.
    1     8.088e+00  
    2     1.312e+01  
    3     2.120e+00  
    4     7.210e-01  
    5     1.944e-01  
    6     8.971e-02  
    7     2.695e-02  
    8     5.324e-03  
    9     2.338e-03  
   10     3.821e-04  
   11     1.496e-04  
   12     2.926e-05  
   13     1.292e-05  
   14     4.628e-06  
   15     2.467e-06  
   16     1.064e-06  
   17     6.803e-07  Converged.
   ... Converged in 17 steps (norm: 6.80333e-07)
------------------------------------
  Starting TPA DIIS iterations ... 
------------------------------------ 
   It     Res. Norm  Remark
------------------------------------
                       Guess.
    1     7.689e+00  
    2     1.246e+01  
    3     2.020e+00  
    4     7.102e-01  
    5     1.941e-01  
    6     9.020e-02  
    7     2.651e-02  
    8     5.373e-03  
    9     2.326e-03  
   10     3.751e-04  
   11     1.481e-04  
   12     2.842e-05  
   13     1.410e-05  
   14     5.122e-06  
   15     3.013e-06  
   16     1.298e-06  
   17     7.225e-07  Converged.
   ... Converged in 17 steps (norm: 7.22479e-07)
------------------------------------
  Starting TPA DIIS iterations ... 
------------------------------------ 
   It     Res. Norm  Remark
------------------------------------
                       Guess.
    1     8.148e-01  
    2     6.975e-01  
    3     2.916e-01  
    4     2.046e-01  
    5     4.552e-02  
    6     1.789e-02  
    7     7.320e-03  
    8     3.185e-03  
    9     1.719e-03  
   10     6.938e-04  
   11     3.333e-04  
   12     1.147e-04  
   13     1.019e-04  
   14     2.945e-05  
   15     9.806e-06  
   16     2.142e-06  
   17     6.836e-07  Converged.
   ... Converged in 17 steps (norm: 6.83579e-07)
------------------------------------
  Starting TPA DIIS iterations ... 
------------------------------------ 
   It     Res. Norm  Remark
------------------------------------
                       Guess.
    1     1.017e+01  
    2     1.773e+01  
    3     2.680e+00  
    4     1.040e+00  
    5     2.850e-01  
    6     1.353e-01  
    7     4.000e-02  
    8     8.024e-03  
    9     3.614e-03  
   10     5.876e-04  
   11     2.335e-04  
   12     4.721e-05  
   13     2.262e-05  
   14     8.572e-06  
   15     5.303e-06  
   16     2.548e-06  
   17     1.452e-06  
   18     5.685e-07  Converged.
   ... Converged in 18 steps (norm: 5.68496e-07)
------------------------------------
  Starting TPA DIIS iterations ... 
------------------------------------ 
   It     Res. Norm  Remark
------------------------------------
                       Guess.
    1     9.663e+00  
    2     1.684e+01  
    3     2.551e+00  
    4     1.021e+00  
    5     2.846e-01  
    6     1.362e-01  
    7     3.936e-02  
    8     8.100e-03  
    9     3.588e-03  
   10     5.755e-04  
   11     2.315e-04  
   12     4.557e-05  
   13     2.555e-05  
   14     1.022e-05  
   15     6.504e-06  
   16     2.943e-06  
   17     1.432e-06  
   18     5.685e-07  Converged.
   ... Converged in 18 steps (norm: 5.68549e-07)
------------------------------------
  Starting TPA DIIS iterations ... 
------------------------------------ 
   It     Res. Norm  Remark
------------------------------------
                       Guess.
    1     8.579e-01  
    2     7.869e-01  
    3     3.506e-01  
    4     2.961e-01  
    5     6.172e-02  
    6     2.282e-02  
    7     1.049e-02  
    8     4.989e-03  
    9     2.659e-03  
   10     1.201e-03  
   11     5.891e-04  
   12     2.453e-04  
   13     2.180e-04  
   14     5.518e-05  
   15     1.803e-05  
   16     4.957e-06  
   17     1.414e-06  
   18     4.273e-07  Converged.
   ... Converged in 18 steps (norm: 4.27272e-07)
------------------------------------
  Starting TPA DIIS iterations ... 
------------------------------------ 
   It     Res. Norm  Remark
------------------------------------
                       Guess.
    1     1.110e+01  
    2     1.990e+01  
    3     2.925e+00  
    4     1.193e+00  
    5     3.287e-01  
    6     1.576e-01  
    7     4.632e-02  
    8     9.352e-03  
    9     4.248e-03  
   10     6.884e-04  
   11     2.741e-04  
   12     5.634e-05  
   13     2.789e-05  
   14     1.094e-05  
   15     7.097e-06  
   16     3.515e-06  
   17     1.867e-06  
   18     7.213e-07  Converged.
   ... Converged in 18 steps (norm: 7.21304e-07)
------------------------------------
  Starting TPA DIIS iterations ... 
------------------------------------ 
   It     Res. Norm  Remark
------------------------------------
                       Guess.
    1     1.055e+01  
    2     1.890e+01  
    3     2.784e+00  
    4     1.169e+00  
    5     3.282e-01  
    6     1.588e-01  
    7     4.557e-02  
    8     9.440e-03  
    9     4.213e-03  
   10     6.735e-04  
   11     2.721e-04  
   12     5.423e-05  
   13     3.192e-05  
   14     1.341e-05  
   15     8.697e-06  
   16     3.988e-06  
   17     1.822e-06  
   18     6.433e-07  Converged.
   ... Converged in 18 steps (norm: 6.43273e-07)
------------------------------------
  Starting TPA DIIS iterations ... 
------------------------------------ 
   It     Res. Norm  Remark
------------------------------------
                       Guess.
    1     8.742e-01  
    2     8.237e-01  
    3     3.755e-01  
    4     3.362e-01  
    5     6.921e-02  
    6     2.501e-02  
    7     1.196e-02  
    8     5.877e-03  
    9     3.129e-03  
   10     1.463e-03  
   11     7.253e-04  
   12     3.198e-04  
   13     2.824e-04  
   14     6.880e-05  
   15     2.248e-05  
   16     6.580e-06  
   17     1.888e-06  
   18     5.558e-07  Converged.
   ... Converged in 18 steps (norm: 5.55811e-07)
------------------------------------
  Starting TPA DIIS iterations ... 
------------------------------------ 
   It     Res. Norm  Remark
------------------------------------
                       Guess.
    1     1.180e+01  
    2     2.157e+01  
    3     3.108e+00  
    4     1.311e+00  
    5     3.628e-01  
    6     1.753e-01  
    7     5.127e-02  
    8     1.040e-02  
    9     4.749e-03  
   10     7.676e-04  
   11     3.059e-04  
   12     6.368e-05  
   13     3.229e-05  
   14     1.301e-05  
   15     8.692e-06  
   16     4.392e-06  
   17     2.208e-06  
   18     8.267e-07  Converged.
   ... Converged in 18 steps (norm: 8.26728e-07)
------------------------------------
  Starting TPA DIIS iterations ... 
------------------------------------ 
   It     Res. Norm  Remark
------------------------------------
                       Guess.
    1     1.121e+01  
    2     2.049e+01  
    3     2.958e+00  
    4     1.283e+00  
    5     3.623e-01  
    6     1.766e-01  
    7     5.044e-02  
    8     1.050e-02  
    9     4.709e-03  
   10     7.504e-04  
   11     3.041e-04  
   12     6.117e-05  
   13     3.726e-05  
   14     1.622e-05  
   15     1.064e-05  
   16     4.937e-06  
   17     2.161e-06  
   18     6.710e-07  Converged.
   ... Converged in 18 steps (norm: 6.71023e-07)
------------------------------------
  Starting TPA DIIS iterations ... 
------------------------------------ 
   It     Res. Norm  Remark
------------------------------------
                       Guess.
    1     8.856e-01  
    2     8.505e-01  
    3     3.939e-01  
    4     3.655e-01  
    5     7.493e-02  
    6     2.668e-02  
    7     1.309e-02  
    8     6.576e-03  
    9     3.502e-03  
   10     1.673e-03  
   11     8.367e-04  
   12     3.815e-04  
   13     3.352e-04  
   14     7.985e-05  
   15     2.611e-05  
   16     7.923e-06  
   17     2.317e-06  
   18     6.748e-07  Converged.
   ... Converged in 18 steps (norm: 6.74831e-07)
------------------------------------
  Two-photon absorbption ...  CPU 164.07 s  wall 45.39 s
  Transition density matrix of state singlet_A_1 printed to ASCII file 'State_singlet_A_1_Transition.txt'
  Transition density matrix of state singlet_A_2 printed to ASCII file 'State_singlet_A_2_Transition.txt'
  Transition density matrix of state singlet_A_3 printed to ASCII file 'State_singlet_A_3_Transition.txt'
  Transition density matrix of state singlet_A_4 printed to ASCII file 'State_singlet_A_4_Transition.txt'
  Transition density matrix of state singlet_A_5 printed to ASCII file 'State_singlet_A_5_Transition.txt'
  Transition density matrix of state singlet_A_6 printed to ASCII file 'State_singlet_A_6_Transition.txt'
  Transition density matrix of state singlet_A_7 printed to ASCII file 'State_singlet_A_7_Transition.txt'
  Transition density matrix of state singlet_A_8 printed to ASCII file 'State_singlet_A_8_Transition.txt'
  Transition density matrix of state singlet_A_9 printed to ASCII file 'State_singlet_A_9_Transition.txt'
  Transition density matrix of state singlet_A_10 printed to ASCII file 'State_singlet_A_10_Transition.txt'
  Transition properties ...  CPU 0.47 s  wall 0.60 s
  Difference density matrix of state singlet_A_1 printed to ASCII file 'State_singlet_A_1_Difference.txt'
  Total density matrix of state singlet_A_1 printed to ASCII file 'State_singlet_A_1_Total.txt'
  Difference density matrix of state singlet_A_2 printed to ASCII file 'State_singlet_A_2_Difference.txt'
  Total density matrix of state singlet_A_2 printed to ASCII file 'State_singlet_A_2_Total.txt'
  Difference density matrix of state singlet_A_3 printed to ASCII file 'State_singlet_A_3_Difference.txt'
  Total density matrix of state singlet_A_3 printed to ASCII file 'State_singlet_A_3_Total.txt'
  Difference density matrix of state singlet_A_4 printed to ASCII file 'State_singlet_A_4_Difference.txt'
  Total density matrix of state singlet_A_4 printed to ASCII file 'State_singlet_A_4_Total.txt'
  Difference density matrix of state singlet_A_5 printed to ASCII file 'State_singlet_A_5_Difference.txt'
  Total density matrix of state singlet_A_5 printed to ASCII file 'State_singlet_A_5_Total.txt'
  Difference density matrix of state singlet_A_6 printed to ASCII file 'State_singlet_A_6_Difference.txt'
  Total density matrix of state singlet_A_6 printed to ASCII file 'State_singlet_A_6_Total.txt'
  Difference density matrix of state singlet_A_7 printed to ASCII file 'State_singlet_A_7_Difference.txt'
  Total density matrix of state singlet_A_7 printed to ASCII file 'State_singlet_A_7_Total.txt'
  Difference density matrix of state singlet_A_8 printed to ASCII file 'State_singlet_A_8_Difference.txt'
  Total density matrix of state singlet_A_8 printed to ASCII file 'State_singlet_A_8_Total.txt'
  Difference density matrix of state singlet_A_9 printed to ASCII file 'State_singlet_A_9_Difference.txt'
  Total density matrix of state singlet_A_9 printed to ASCII file 'State_singlet_A_9_Total.txt'
  Difference density matrix of state singlet_A_10 printed to ASCII file 'State_singlet_A_10_Difference.txt'
  Total density matrix of state singlet_A_10 printed to ASCII file 'State_singlet_A_10_Total.txt'
  Properties ...  CPU 0.67 s  wall 0.97 s
  ISR TDMS ...  CPU 29.09 s  wall 9.95 s
  ISR transition properties ...  CPU 0.68 s  wall 0.38 s
  Sum-over-states TPA ...  CPU 0.00 s  wall 0.00 s

--------------------------------------------------------------------------------
                   State-averaged natural transition orbitals
--------------------------------------------------------------------------------
--------------------------------------------------------------------------------
  SA-NTO decomposition ...  CPU 0.01 s  wall 0.03 s

--------------------------------------------------------------------------------
                             Excited State Summary
--------------------------------------------------------------------------------
--------------------------------------------------------------------------------

  Excited state 1 (singlet, A)                                     [converged]
  ----------------------------------------------------------------------------
  Term symbol:  2 (1) A                                     R^2 =  3.22739e-13

  Total energy:                                            -77.9915235774 a.u.
  Excitation energy:                                               8.732929 eV

  Osc. strength:                                                      0.448552
  Trans. dip. moment [a.u.]:           [  -1.049859,    0.997097,    0.009742]
  <i|r^2|0> [a.u.]:                    [  -6.278699,    0.329447,   -0.000038]
  Two-photon absorption cross-section (SoS) [a.u.]:                   0.111319
  Two-photon absorption matrix (SoS) [a.u.]:
                                       |   -0.117705   -0.006155   -0.005846 |
                                       |   -0.006155    0.117196    0.006931 |
                                       |   -0.005846    0.006931    0.000334 |
  Two-photon absorption cross-section [a.u.]:                         0.126083
  Two-photon absorption matrix [a.u.]:
                                       |   -0.125064   -0.006504   -0.006129 |
                                       |   -0.006504    0.124936    0.007444 |
                                       |   -0.006129    0.007444    0.000382 |

  Dip. moment [a.u.]:                  [   0.015467,    0.016258,    0.001749]
  Total dipole [Debye]:                                               0.057211
  <r^2> [a.u.]:                        [ 175.995920,   36.012626,   11.915414]
  Total <r^2> [a.u.]:                                               223.923960

  V1^2 = 0.9713, V2^2 = 0.0287

  Important amplitudes:
      occ i     occ j     vir a      vir b          v   
    -----------------------------------------------------
     8 (A) A              9 (A) A                -0.6807
     4 (A) A             10 (A) A                -0.0600
     6 (A) A             14 (A) A                 0.0597
     7 (A) A             16 (A) A                -0.0556
     5 (A) A             13 (A) A                 0.0502
     6 (A) A             23 (A) A                 0.0396
     8 (A) A             20 (A) A                -0.0349
     3 (A) A             12 (A) A                -0.0283
     6 (A) A             22 (A) A                -0.0278
     6 (A) A             19 (A) A                 0.0267
     5 (A) A             23 (A) A                -0.0185
     4 (A) A             24 (A) A                -0.0184
     8 (A) A   8 (A) B   17 (A) A   20 (A) B      0.0184
     6 (A) A             13 (A) A                 0.0179
     7 (A) A             11 (A) A                 0.0171
     8 (A) A   8 (A) B    9 (A) A   28 (A) B     -0.0168
     6 (A) A             12 (A) A                 0.0164
     5 (A) A             14 (A) A                -0.0155
     7 (A) A             21 (A) A                 0.0152
     3 (A) A             26 (A) A                -0.0150
     7 (A) A             10 (A) A                -0.0149
     3 (A) A             14 (A) A                 0.0142
     6 (A) A             26 (A) A                -0.0142
     5 (A) A             22 (A) A                -0.0130
     3 (A) A   4 (A) B    9 (A) A    9 (A) B      0.0129
     5 (A) A             19 (A) A                -0.0128
     3 (A) A             19 (A) A                 0.0116
     7 (A) A             15 (A) A                 0.0113
     4 (A) A             11 (A) A                -0.0112
     3 (A) A             27 (A) A                -0.0110
     8 (A) A   8 (A) B   18 (A) A   19 (A) B     -0.0107
     7 (A) A             18 (A) A                 0.0092
     7 (A) A             32 (A) A                 0.0091
     7 (A) A             36 (A) A                 0.0086
     8 (A) A   8 (A) B   25 (A) A   29 (A) B      0.0076
     5 (A) A             27 (A) A                 0.0074
     6 (A) A             27 (A) A                -0.0071
     3 (A) A             23 (A) A                 0.0067
     6 (A) A             35 (A) A                -0.0067
     5 (A) A             12 (A) A                 0.0066
    -----------------------------------------------------

  Density matrix analysis:
  ------------------------
  NOs
    Occupation of frontier NOs:
       0.9485   1.0225
    Number of electrons: 16.000000
    Number of unpaired electrons: n_u =  2.31697, n_u,nl =  2.03355
    NO participation ratio (PR_NO):  2.877629
  
  
  Mulliken Population Analysis
  Atom      Charge (e)              h+              e-           Del q
  --------------------------------------------------------------------
   1 H        0.048986        0.019903       -0.012777        0.007126
   2 C       -0.121013        0.490443       -0.506182       -0.015739
   3 H        0.072070        0.020944       -0.012328        0.008615
   4 C       -0.121155        0.490442       -0.506189       -0.015747
   5 H        0.049047        0.019906       -0.012776        0.007130
   6 H        0.072065        0.020942       -0.012328        0.008614
  --------------------------------------------------------------------
  Sum:        0.000000        1.062580       -1.062580        0.000000
  
  Multipole moment analysis of the density matrix
    Molecular charge:                      -0.000000
    Number of electrons:                   16.000000
      Center of electronic charge [Ang]: [ -1.557785,  -0.061554,   0.002522]
    Total nuclear charge:                  16.000000
      Center of nuclear charge [Ang]:    [ -1.557273,  -0.061016,   0.002580]
    Dipole moment [D]:                     0.057211
      Cartesian components [D]:          [  0.039314,   0.041325,   0.004446]
    RMS size of the density [Ang]:         1.220074
      Cartesian components [Ang]:        [  0.808424,   0.791515,   0.456656]
  
  Exciton analysis of the difference density matrix
    <r_h> [Ang]:                  [ -1.552022,  -0.055505,   0.003155]
    <r_e> [Ang]:                  [ -1.550613,  -0.054022,   0.003310]
    |<r_e - r_h>| [Ang]:            0.002052
    Hole size [Ang]:                1.287247
      Cartesian components [Ang]: [  0.730299,   0.714906,   0.782673]
    Electron size [Ang]:            1.463910
      Cartesian components [Ang]: [  0.854566,   0.831950,   0.848886]

  Transition density matrix analysis:
  -----------------------------------
  
  CT numbers (Mulliken)
    omega =     0.9531
    <Phe> =    -0.1601
  
  Exciton analysis of the transition density matrix
    Trans. dipole moment [D]:             1.840135
      Cartesian components [D]:         [ -1.334237,   1.267184,   0.012381]
    <r_h> [Ang]:                        [ -1.549769,  -0.053146,   0.003407]
    <r_e> [Ang]:                        [ -1.551381,  -0.054829,   0.003222]
    |<r_e - r_h>| [Ang]:                  0.002338
    Hole size [Ang]:                      1.214458
      Cartesian components [Ang]:       [  0.650228,   0.637362,   0.803667]
    Electron size [Ang]:                  1.486787
      Cartesian components [Ang]:       [  0.865080,   0.840888,   0.868954]
    RMS electron-hole separation [Ang]:   1.936372
      Cartesian components [Ang]:       [  1.106370,   1.075888,   1.169593]
    Covariance(r_h, r_e) [Ang^2]:        -0.032044
    Correlation coefficient:             -0.017747
    Center-of-mass size [Ang]:            0.951493
      Cartesian components [Ang]:       [  0.528741,   0.516989,   0.598744]

  Decomposition into state-averaged NTOs
    H- 0 -> L+ 0: -0.6695 ( 89.6%)
    H- 2 -> L+ 5: -0.0821 (  1.3%)
                   omega =  95.3%
  ----------------------------------------------------------------------------


  Excited state 2 (singlet, A)                                     [converged]
  ----------------------------------------------------------------------------
  Term symbol:  3 (1) A                                     R^2 =  1.21838e-13

  Total energy:                                            -77.9865383297 a.u.
  Excitation energy:                                               8.868584 eV

  Osc. strength:                                                      0.007793
  Trans. dip. moment [a.u.]:           [  -0.009164,   -0.011333,    0.188826]
  <i|r^2|0> [a.u.]:                    [  -0.108867,   -0.075092,    0.125570]
  Two-photon absorption cross-section (SoS) [a.u.]:                   6.225962
  Two-photon absorption matrix (SoS) [a.u.]:
                                       |   -0.057867   -0.066968    0.600314 |
                                       |   -0.066968   -0.077045    0.632185 |
                                       |    0.600314    0.632185    0.134784 |
  Two-photon absorption cross-section [a.u.]:                         0.010926
  Two-photon absorption matrix [a.u.]:
                                       |    0.001775    0.002815   -0.025051 |
                                       |    0.002815    0.003730   -0.026563 |
                                       |   -0.025051   -0.026563   -0.005677 |

  Dip. moment [a.u.]:                  [   0.390828,    0.411446,    0.043646]
  Total dipole [Debye]:                                               1.446652
  <r^2> [a.u.]:                        [ 178.804085,   36.772083,   12.337999]
  Total <r^2> [a.u.]:                                               227.914166

  V1^2 = 0.9553, V2^2 = 0.0447

  Important amplitudes:
      occ i     occ j     vir a      vir b          v   
    -----------------------------------------------------
     7 (A) A              9 (A) A                -0.5355
     8 (A) A             10 (A) A                -0.3961
     8 (A) A             11 (A) A                 0.1629
     7 (A) A             20 (A) A                -0.0612
     8 (A) A             16 (A) A                 0.0410
     8 (A) A             21 (A) A                 0.0302
     5 (A) A   8 (A) B    9 (A) A    9 (A) B     -0.0238
     8 (A) A             24 (A) A                -0.0222
     8 (A) A             18 (A) A                 0.0188
     8 (A) A   8 (A) B    9 (A) A   12 (A) B     -0.0120
     5 (A) A             28 (A) A                 0.0109
     4 (A) A   7 (A) B    9 (A) A   19 (A) B     -0.0106
     5 (A) A   7 (A) B    9 (A) A   16 (A) B      0.0097
     8 (A) A   8 (A) B   10 (A) A   17 (A) B     -0.0092
     6 (A) A   8 (A) B    9 (A) A    9 (A) B     -0.0090
     7 (A) A   8 (A) B   20 (A) A   17 (A) B      0.0084
     7 (A) A   8 (A) B   13 (A) A   10 (A) B     -0.0083
     5 (A) A   8 (A) B   11 (A) A   10 (A) B     -0.0080
     7 (A) A   8 (A) A    9 (A) A   28 (A) A      0.0078
     5 (A) A   8 (A) B    9 (A) A   20 (A) B     -0.0073
     8 (A) A   8 (A) B    9 (A) A   13 (A) B     -0.0071
     4 (A) A   6 (A) B    9 (A) A   16 (A) B      0.0071
     5 (A) A   6 (A) A    9 (A) A   14 (A) A     -0.0071
     6 (A) A   8 (A) B   10 (A) A   10 (A) B      0.0069
     8 (A) A   7 (A) B    9 (A) A   28 (A) B     -0.0068
     5 (A) A   6 (A) A    9 (A) A   23 (A) A     -0.0065
     4 (A) A   5 (A) A    9 (A) A   10 (A) A     -0.0065
     4 (A) A   8 (A) B    9 (A) A   25 (A) B     -0.0063
     6 (A) A   7 (A) B    9 (A) A   18 (A) B      0.0063
     3 (A) A   7 (A) B    9 (A) A   18 (A) B     -0.0062
     7 (A) A   8 (A) B   19 (A) A   18 (A) B     -0.0062
     4 (A) A   8 (A) B   12 (A) A   10 (A) B     -0.0060
     6 (A) A             28 (A) A                 0.0059
     7 (A) A   8 (A) B   17 (A) A   20 (A) B      0.0059
     5 (A) A   6 (A) B    9 (A) A   19 (A) B     -0.0059
     6 (A) A   8 (A) A   10 (A) A   15 (A) A     -0.0058
     4 (A) A   7 (A) B   19 (A) A    9 (A) B     -0.0058
     5 (A) A   7 (A) A    9 (A) A   16 (A) A      0.0056
     4 (A) A   8 (A) A   10 (A) A   12 (A) A      0.0056
     7 (A) A   8 (A) A   10 (A) A   22 (A) A     -0.0054
    -----------------------------------------------------

  Density matrix analysis:
  ------------------------
  NOs
    Occupation of frontier NOs:
       0.6213   1.3803
    Number of electrons: 16.000000
    Number of unpaired electrons: n_u =  2.35391, n_u,nl =  2.34159
    NO participation ratio (PR_NO):  4.973727
  
  
  Mulliken Population Analysis
  Atom      Charge (e)              h+              e-           Del q
  --------------------------------------------------------------------
   1 H        0.107255        0.077372       -0.011977        0.065395
   2 C       -0.098589        0.324996       -0.318311        0.006685
   3 H       -0.008674        0.111530       -0.183659       -0.072129
   4 C       -0.098727        0.325031       -0.318350        0.006681
   5 H        0.107374        0.077427       -0.011970        0.065457
   6 H       -0.008638        0.111548       -0.183637       -0.072089
  --------------------------------------------------------------------
  Sum:       -0.000000        1.027903       -1.027903       -0.000000
  
  Multipole moment analysis of the density matrix
    Molecular charge:                      -0.000000
    Number of electrons:                   16.000000
      Center of electronic charge [Ang]: [ -1.570199,  -0.074624,   0.001136]
    Total nuclear charge:                  16.000000
      Center of nuclear charge [Ang]:    [ -1.557273,  -0.061016,   0.002580]
    Dipole moment [D]:                     1.446651
      Cartesian components [D]:          [  0.993385,   1.045792,   0.110936]
    RMS size of the density [Ang]:         1.231994
      Cartesian components [Ang]:        [  0.814779,   0.798754,   0.464689]
  
  Exciton analysis of the difference density matrix
    <r_h> [Ang]:                  [ -1.625420,  -0.132533,  -0.005015]
    <r_e> [Ang]:                  [ -1.817204,  -0.334447,  -0.026423]
    |<r_e - r_h>| [Ang]:            0.279300
    Hole size [Ang]:                1.476643
      Cartesian components [Ang]: [  0.951581,   0.938632,   0.627646]
    Electron size [Ang]:            1.734950
      Cartesian components [Ang]: [  1.099708,   1.086566,   0.787443]

  Transition density matrix analysis:
  -----------------------------------
  
  CT numbers (Mulliken)
    omega =     0.9220
    <Phe> =    -0.0062
  
  Exciton analysis of the transition density matrix
    Trans. dipole moment [D]:             0.240688
      Cartesian components [D]:         [ -0.011646,  -0.014403,   0.239974]
    <r_h> [Ang]:                        [ -1.614973,  -0.121520,  -0.003847]
    <r_e> [Ang]:                        [ -1.830082,  -0.348015,  -0.027863]
    |<r_e - r_h>| [Ang]:                  0.313287
    Hole size [Ang]:                      1.422858
      Cartesian components [Ang]:       [  0.915181,   0.902691,   0.610015]
    Electron size [Ang]:                  1.750080
      Cartesian components [Ang]:       [  1.107536,   1.093989,   0.799583]
    RMS electron-hole separation [Ang]:   2.279398
      Cartesian components [Ang]:       [  1.453688,   1.439551,   1.005058]
    Covariance(r_h, r_e) [Ang^2]:        -0.005101
    Correlation coefficient:             -0.002049
    Center-of-mass size [Ang]:            1.126621
      Cartesian components [Ang]:       [  0.717887,   0.707516,   0.503324]

  Decomposition into state-averaged NTOs
    H- 1 -> L+ 0: -0.5292 ( 56.0%)
    H- 0 -> L+ 2:  0.3446 ( 23.7%)
    H- 0 -> L+ 1:  0.2471 ( 12.2%)
                   omega =  92.2%
  ----------------------------------------------------------------------------


  Excited state 3 (singlet, A)                                     [converged]
  ----------------------------------------------------------------------------
  Term symbol:  4 (1) A                                     R^2 =  2.62192e-13

  Total energy:                                            -77.9793365165 a.u.
  Excitation energy:                                               9.064556 eV

  Osc. strength:                                                      0.009157
  Trans. dip. moment [a.u.]:           [  -0.009302,   -0.012619,    0.202450]
  <i|r^2|0> [a.u.]:                    [  -0.019767,    0.042764,   -0.082606]
  Two-photon absorption cross-section (SoS) [a.u.]:                   1.187984
  Two-photon absorption matrix (SoS) [a.u.]:
                                       |   -0.024808   -0.029266    0.263270 |
                                       |   -0.029266   -0.034145    0.275162 |
                                       |    0.263270    0.275162    0.058742 |
  Two-photon absorption cross-section [a.u.]:                         2.206938
  Two-photon absorption matrix [a.u.]:
                                       |   -0.034012   -0.039853    0.357730 |
                                       |   -0.039853   -0.046415    0.376082 |
                                       |    0.357730    0.376082    0.080187 |

  Dip. moment [a.u.]:                  [   0.402658,    0.423435,    0.044919]
  Total dipole [Debye]:                                               1.489578
  <r^2> [a.u.]:                        [ 180.555584,   38.517439,   11.845025]
  Total <r^2> [a.u.]:                                               230.918047

  V1^2 = 0.9569, V2^2 = 0.0431

  Important amplitudes:
      occ i     occ j     vir a      vir b          v   
    -----------------------------------------------------
     8 (A) A             10 (A) A                -0.5491
     7 (A) A              9 (A) A                 0.4126
     7 (A) A             20 (A) A                 0.0453
     8 (A) A             24 (A) A                -0.0375
     8 (A) A             11 (A) A                 0.0291
     4 (A) A              9 (A) A                -0.0278
     8 (A) A             18 (A) A                 0.0241
     8 (A) A             21 (A) A                 0.0205
     5 (A) A   8 (A) B    9 (A) A    9 (A) B      0.0188
     8 (A) A   8 (A) B    9 (A) A   12 (A) B     -0.0172
     8 (A) A             16 (A) A                 0.0171
     8 (A) A   8 (A) B   10 (A) A   17 (A) B     -0.0133
     5 (A) A   8 (A) B   11 (A) A   10 (A) B     -0.0118
     7 (A) A   8 (A) B   13 (A) A   10 (A) B     -0.0112
     5 (A) A             28 (A) A                -0.0102
     8 (A) A             15 (A) A                 0.0092
     6 (A) A   8 (A) B   10 (A) A   10 (A) B      0.0090
     4 (A) A   8 (A) B   12 (A) A   10 (A) B     -0.0086
     6 (A) A   8 (A) A   10 (A) A   15 (A) A     -0.0085
     6 (A) A   8 (A) B   15 (A) A   10 (A) B      0.0083
     4 (A) A   7 (A) B    9 (A) A   19 (A) B      0.0082
     4 (A) A   8 (A) A   10 (A) A   12 (A) A      0.0082
     7 (A) A   8 (A) B   22 (A) A   10 (A) B      0.0077
     7 (A) A   8 (A) A   10 (A) A   13 (A) A      0.0076
     5 (A) A   7 (A) B    9 (A) A   16 (A) B     -0.0075
     7 (A) A   8 (A) A   10 (A) A   22 (A) A     -0.0072
     5 (A) A   8 (A) A   10 (A) A   11 (A) A      0.0071
     3 (A) A   4 (A) B   10 (A) A    9 (A) B      0.0068
     5 (A) A   8 (A) B   21 (A) A   10 (A) B     -0.0067
     7 (A) A   8 (A) A   12 (A) A   16 (A) A     -0.0067
     7 (A) A   8 (A) B   20 (A) A   17 (A) B     -0.0066
     6 (A) A   8 (A) A   10 (A) A   18 (A) A      0.0065
     7 (A) A   8 (A) A    9 (A) A   28 (A) A     -0.0062
     5 (A) A   8 (A) A   10 (A) A   21 (A) A      0.0060
     4 (A) A   8 (A) B   19 (A) A   10 (A) B      0.0058
     8 (A) A   8 (A) B   10 (A) A   28 (A) B     -0.0057
     8 (A) A   8 (A) B    9 (A) A   19 (A) B      0.0057
     7 (A) A   8 (A) B   16 (A) A   12 (A) B      0.0056
     5 (A) A   8 (A) B    9 (A) A   20 (A) B      0.0055
     5 (A) A   6 (A) A    9 (A) A   14 (A) A      0.0055
    -----------------------------------------------------

  Density matrix analysis:
  ------------------------
  NOs
    Occupation of frontier NOs:
       0.6323   1.3321
    Number of electrons: 16.000000
    Number of unpaired electrons: n_u =  2.34551, n_u,nl =  2.32089
    NO participation ratio (PR_NO):  4.821826
  
  
  Mulliken Population Analysis
  Atom      Charge (e)              h+              e-           Del q
  --------------------------------------------------------------------
   1 H        0.019310        0.074548       -0.097097       -0.022549
   2 C        0.064951        0.392819       -0.222595        0.170225
   3 H       -0.084220        0.082305       -0.229979       -0.147674
   4 C        0.064840        0.392853       -0.222605        0.170248
   5 H        0.019381        0.074590       -0.097126       -0.022536
   6 H       -0.084263        0.082313       -0.230027       -0.147714
  --------------------------------------------------------------------
  Sum:       -0.000000        1.099428       -1.099428       -0.000000
  
  Multipole moment analysis of the density matrix
    Molecular charge:                      0.000000
    Number of electrons:                   16.000000
      Center of electronic charge [Ang]: [ -1.570590,  -0.075021,   0.001094]
    Total nuclear charge:                  16.000000
      Center of nuclear charge [Ang]:    [ -1.557273,  -0.061016,   0.002580]
    Dipole moment [D]:                     1.489577
      Cartesian components [D]:          [  1.023455,   1.076264,   0.114173]
    RMS size of the density [Ang]:         1.252635
      Cartesian components [Ang]:        [  0.832641,   0.817616,   0.455311]
  
  Exciton analysis of the difference density matrix
    <r_h> [Ang]:                  [ -1.575893,  -0.080482,   0.000506]
    <r_e> [Ang]:                  [ -1.760894,  -0.275030,  -0.020122]
    |<r_e - r_h>| [Ang]:            0.269259
    Hole size [Ang]:                1.459606
      Cartesian components [Ang]: [  0.907491,   0.894377,   0.712039]
    Electron size [Ang]:            1.921028
      Cartesian components [Ang]: [  1.246481,   1.242399,   0.770115]

  Transition density matrix analysis:
  -----------------------------------
  
  CT numbers (Mulliken)
    omega =     0.9238
    <Phe> =    -0.0186
  
  Exciton analysis of the transition density matrix
    Trans. dipole moment [D]:             0.258059
      Cartesian components [D]:         [ -0.011821,  -0.016038,   0.257288]
    <r_h> [Ang]:                        [ -1.564374,  -0.068360,   0.001790]
    <r_e> [Ang]:                        [ -1.787605,  -0.303110,  -0.023101]
    |<r_e - r_h>| [Ang]:                  0.324899
    Hole size [Ang]:                      1.341708
      Cartesian components [Ang]:       [  0.813831,   0.801702,   0.703658]
    Electron size [Ang]:                  1.985834
      Cartesian components [Ang]:       [  1.286360,   1.282531,   0.802452]
    RMS electron-hole separation [Ang]:   2.407820
      Cartesian components [Ang]:       [  1.529821,   1.523041,   1.066579]
    Covariance(r_h, r_e) [Ang^2]:         0.025840
    Correlation coefficient:              0.009698
    Center-of-mass size [Ang]:            1.203682
      Cartesian components [Ang]:       [  0.765435,   0.760045,   0.534125]

  Decomposition into state-averaged NTOs
    H- 0 -> L+ 1:  0.4453 ( 39.7%)
    H- 1 -> L+ 0:  0.4081 ( 33.3%)
    H- 0 -> L+ 2:  0.3099 ( 19.2%)
                   omega =  92.4%
  ----------------------------------------------------------------------------


  Excited state 4 (singlet, A)                                     [converged]
  ----------------------------------------------------------------------------
  Term symbol:  5 (1) A                                     R^2 =  3.64549e-13

  Total energy:                                            -77.9507442416 a.u.
  Excitation energy:                                               9.842591 eV

  Osc. strength:                                                      0.008871
  Trans. dip. moment [a.u.]:           [   0.009294,    0.011451,   -0.191238]
  <i|r^2|0> [a.u.]:                    [   0.037125,   -0.020581,    0.042654]
  Two-photon absorption cross-section (SoS) [a.u.]:                 140.104597
  Two-photon absorption matrix (SoS) [a.u.]:
                                       |   -0.276192   -0.317968    2.848461 |
                                       |   -0.317968   -0.363530    2.998229 |
                                       |    2.848461    2.998229    0.639760 |
  Two-photon absorption cross-section [a.u.]:                        86.729294
  Two-photon absorption matrix [a.u.]:
                                       |   -0.217844   -0.250208    2.240883 |
                                       |   -0.250208   -0.285428    2.359207 |
                                       |    2.240883    2.359207    0.503347 |

  Dip. moment [a.u.]:                  [  -0.990641,   -1.044093,   -0.110681]
  Total dipole [Debye]:                                               3.669062
  <r^2> [a.u.]:                        [ 175.146738,   40.979043,   10.875490]
  Total <r^2> [a.u.]:                                               227.001271

  V1^2 = 0.9630, V2^2 = 0.0370

  Important amplitudes:
      occ i     occ j     vir a      vir b          v   
    -----------------------------------------------------
     8 (A) A             11 (A) A                 0.6660
     8 (A) A             10 (A) A                 0.1238
     7 (A) A              9 (A) A                 0.1150
     8 (A) A             21 (A) A                 0.0698
     8 (A) A             16 (A) A                 0.0574
     8 (A) A             24 (A) A                 0.0262
     5 (A) A   8 (A) B   11 (A) A   11 (A) B      0.0163
     8 (A) A   8 (A) B    9 (A) A   13 (A) B     -0.0157
     8 (A) A             15 (A) A                -0.0155
     8 (A) A   8 (A) B   11 (A) A   17 (A) B      0.0144
     7 (A) A   8 (A) B   13 (A) A   11 (A) B      0.0128
     4 (A) A   8 (A) B   12 (A) A   11 (A) B      0.0113
     5 (A) A   8 (A) A   11 (A) A   21 (A) A     -0.0105
     7 (A) A             20 (A) A                 0.0101
     6 (A) A   8 (A) B   15 (A) A   11 (A) B     -0.0092
     8 (A) A             18 (A) A                -0.0088
     7 (A) A   8 (A) A   11 (A) A   22 (A) A      0.0086
     8 (A) A   8 (A) B    9 (A) A   22 (A) B      0.0086
     6 (A) A   8 (A) A   11 (A) A   15 (A) A      0.0084
     6 (A) A   8 (A) B   10 (A) A   11 (A) B     -0.0083
     7 (A) A   8 (A) B   22 (A) A   11 (A) B     -0.0082
     3 (A) A   4 (A) B   11 (A) A    9 (A) B     -0.0081
     3 (A) A   8 (A) B   11 (A) A   18 (A) B     -0.0078
     7 (A) A   8 (A) A   11 (A) A   13 (A) A     -0.0078
     8 (A) A   8 (A) B    9 (A) A   12 (A) B      0.0078
     5 (A) A   8 (A) B   21 (A) A   11 (A) B      0.0073
     4 (A) A   8 (A) B   19 (A) A   11 (A) B     -0.0067
     7 (A) A   8 (A) A   13 (A) A   16 (A) A     -0.0067
     4 (A) A   8 (A) A   11 (A) A   12 (A) A     -0.0067
     8 (A) A   8 (A) B    9 (A) A   23 (A) B      0.0061
     6 (A) A   8 (A) A   11 (A) A   18 (A) A     -0.0058
     3 (A) A   6 (A) B   11 (A) A   28 (A) B      0.0057
     3 (A) A   8 (A) A   11 (A) A   24 (A) A     -0.0056
     3 (A) A   8 (A) A   11 (A) A   18 (A) A     -0.0055
     6 (A) A   8 (A) B   18 (A) A   11 (A) B      0.0055
     3 (A) A   8 (A) B   11 (A) A   30 (A) B     -0.0053
     3 (A) A   5 (A) B   11 (A) A   25 (A) B     -0.0052
     3 (A) A   8 (A) B   10 (A) A   11 (A) B      0.0051
     7 (A) A   8 (A) B   11 (A) A   13 (A) B      0.0049
     5 (A) A   8 (A) B   11 (A) A   10 (A) B      0.0049
    -----------------------------------------------------

  Density matrix analysis:
  ------------------------
  NOs
    Occupation of frontier NOs:
       0.9612   1.0084
    Number of electrons: 16.000000
    Number of unpaired electrons: n_u =  2.32086, n_u,nl =  2.03753
    NO participation ratio (PR_NO):  2.808824
  
  
  Mulliken Population Analysis
  Atom      Charge (e)              h+              e-           Del q
  --------------------------------------------------------------------
   1 H       -0.362756        0.046791       -0.451407       -0.404615
   2 C        0.305278        0.513272       -0.102721        0.410551
   3 H        0.057730        0.047155       -0.052878       -0.005724
   4 C        0.305408        0.513439       -0.102623        0.410816
   5 H       -0.363799        0.046771       -0.452487       -0.405716
   6 H        0.058138        0.047179       -0.052492       -0.005312
  --------------------------------------------------------------------
  Sum:        0.000000        1.214607       -1.214607        0.000000
  
  Multipole moment analysis of the density matrix
    Molecular charge:                      -0.000000
    Number of electrons:                   16.000000
      Center of electronic charge [Ang]: [ -1.524509,  -0.026485,   0.006241]
    Total nuclear charge:                  16.000000
      Center of nuclear charge [Ang]:    [ -1.557273,  -0.061016,   0.002580]
    Dipole moment [D]:                     3.669061
      Cartesian components [D]:          [ -2.517959,  -2.653818,  -0.281323]
    RMS size of the density [Ang]:         1.283768
      Cartesian components [Ang]:        [  0.860960,   0.846466,   0.436236]
  
  Exciton analysis of the difference density matrix
    <r_h> [Ang]:                  [ -1.530132,  -0.032294,   0.005612]
    <r_e> [Ang]:                  [ -1.090561,   0.430975,   0.054731]
    |<r_e - r_h>| [Ang]:            0.640511
    Hole size [Ang]:                1.400556
      Cartesian components [Ang]: [  0.824150,   0.810656,   0.790678]
    Electron size [Ang]:            2.014096
      Cartesian components [Ang]: [  1.343092,   1.332563,   0.690625]

  Transition density matrix analysis:
  -----------------------------------
  
  CT numbers (Mulliken)
    omega =     0.9294
    <Phe> =    -0.0123
  
  Exciton analysis of the transition density matrix
    Trans. dipole moment [D]:             0.243761
      Cartesian components [D]:         [  0.011811,   0.014553,  -0.243040]
    <r_h> [Ang]:                        [ -1.550755,  -0.054127,   0.003298]
    <r_e> [Ang]:                        [ -0.983524,   0.543780,   0.066690]
    |<r_e - r_h>| [Ang]:                  0.826597
    Hole size [Ang]:                      1.221532
      Cartesian components [Ang]:       [  0.650595,   0.638047,   0.813488]
    Electron size [Ang]:                  2.132237
      Cartesian components [Ang]:       [  1.419853,   1.407080,   0.742011]
    RMS electron-hole separation [Ang]:   2.580663
      Cartesian components [Ang]:       [  1.652279,   1.647769,   1.102113]
    Covariance(r_h, r_e) [Ang^2]:         0.031007
    Correlation coefficient:              0.011905
    Center-of-mass size [Ang]:            1.234968
      Cartesian components [Ang]:       [  0.785849,   0.777223,   0.550919]

  Decomposition into state-averaged NTOs
    H- 0 -> L+ 2:  0.4983 ( 49.7%)
    H- 0 -> L+ 1: -0.4505 ( 40.6%)
    H- 1 -> L+ 0:  0.1133 (  2.6%)
                   omega =  92.9%
  ----------------------------------------------------------------------------


  Excited state 5 (singlet, A)                                     [converged]
  ----------------------------------------------------------------------------
  Term symbol:  6 (1) A                                     R^2 =  1.23558e-12

  Total energy:                                            -77.9398650725 a.u.
  Excitation energy:                                              10.138628 eV

  Osc. strength:                                                      0.000000
  Trans. dip. moment [a.u.]:           [   0.000032,    0.000017,   -0.000204]
  <i|r^2|0> [a.u.]:                    [  -0.080530,    0.096317,   -0.015638]
  Two-photon absorption cross-section (SoS) [a.u.]:                 205.726384
  Two-photon absorption matrix (SoS) [a.u.]:
                                       |   -0.353171   -0.053907    3.670918 |
                                       |   -0.053907    0.419665   -3.476282 |
[...]
    16   -1.540667696181e-03
    17   -1.232543648482e-03
    18   -5.368094468975e-03
    19   -2.241299666827e-03
    20    3.126345341744e-02
    21    1.072322438045e+00
    22    5.871237167316e-04
    23    1.337874021606e-02
    24    8.385210625621e-04
    25    6.869415294070e-02
    26   -5.189964565952e-02
    27   -1.325452188694e+00
    28    1.380032969637e-01
    29   -5.275268959573e-02
    30    3.398891045530e-03
    31    4.734310637778e-01
    32   -2.454904695314e-01
    33    7.759747684398e-03
    34    1.372168187855e-02
    35   -9.804736473235e-04
    36   -1.863689476983e-03
    37    5.543984199100e-03
    38   -1.686345891251e-03
    39   -3.054380480165e-03
    40    7.117969260049e-01
    41    2.228312084859e-03
    42   -1.180968263282e-02
    43   -6.082696786355e-04
    44    3.127604692100e-02
    45    1.072494723001e+00
    46    1.333960933745e-02
    47    1.270738930511e-03
    48    7.150147650725e-04
Sym=X
Ene= 0.231584
Spin=Alpha
Occup=0
     1    1.879805989672e-02
     2    1.421916047009e+00
     3   -1.855000818179e-02
     4   -4.658777378124e-03
     5   -1.172844595241e-03
     6    1.453552307225e-02
     7   -8.865719448151e-03
     8   -4.253930256916e-01
     9   -1.651686913428e-01
    10   -1.430372349803e-01
    11   -1.658682111900e-02
    12   -6.171626984338e-01
    13   -4.517429781402e-01
    14   -5.696985360956e-02
    15    7.031503016811e-03
    16   -7.822476909062e-04
    17   -9.510901214985e-04
    18    5.866831400223e-04
    19   -3.677918391459e-03
    20   -3.625448915948e-02
    21   -8.915978061271e-01
    22   -1.303827781086e-03
    23   -7.292227695356e-03
    24   -5.043457741577e-04
    25    1.481887947494e-02
    26   -9.150934499745e-03
    27   -4.299817679801e-01
    28   -1.342825008893e-01
    29   -1.723352373509e-01
    30   -1.684779726823e-02
    31   -4.189927049386e-01
    32   -6.398148642851e-01
    33   -5.874160939078e-02
    34    7.090949186284e-03
    35   -8.337493338000e-04
    36   -9.174307280879e-04
    37   -2.094054611007e-04
    38   -3.752426151844e-03
    39    1.888768218512e-02
    40    1.425182442051e+00
    41   -3.730809249675e-03
    42   -1.880402404397e-02
    43   -1.314862473065e-03
    44   -3.617710222260e-02
    45   -8.882698596366e-01
    46   -7.181043456042e-03
    47   -1.645273305968e-03
    48   -4.431442372939e-04
Sym=X
Ene= 0.236294
Spin=Alpha
Occup=0
     1   -2.430013869287e-02
     2   -1.112062810387e+00
     3    1.736913681003e-02
     4    8.597106419411e-03
     5    1.353233751463e-03
     6   -8.691419172123e-02
     7    8.272671648777e-02
     8    1.541635111550e+00
     9    4.523029475155e-02
    10   -7.054096576739e-02
    11   -2.092210425950e-03
    12    2.334055547900e-01
    13   -2.462985145733e-01
    14   -3.668572069022e-03
    15   -2.090075451948e-02
    16    2.481995489188e-03
    17    2.792811583076e-03
    18   -1.015203485184e-04
    19    1.213763053452e-02
    20   -1.576950227364e-02
    21   -1.034742960458e+00
    22   -8.900868612589e-03
    23   -1.409762994609e-02
    24   -1.279404881236e-03
    25    8.685609557227e-02
    26   -8.268401166663e-02
    27   -1.539875316806e+00
    28    7.321418945063e-02
    29   -4.101169455502e-02
    30    1.017991070358e-03
    31    2.593497775383e-01
    32   -2.182972333690e-01
    33   -8.020703407257e-04
    34    2.086960976366e-02
    35   -2.426027999058e-03
    36   -2.847230759308e-03
    37    1.089492815933e-03
    38   -1.207237912383e-02
    39    2.427434925858e-02
    40    1.107154981248e+00
    41   -7.693572827976e-03
    42   -1.770624826168e-02
    43   -1.440730448735e-03
    44    1.587582642972e-02
    45    1.037469531382e+00
    46    1.365427869799e-02
    47    9.607685272940e-03
    48    1.234917761640e-03
Sym=X
Ene= 0.302188
Spin=Alpha
Occup=0
     1   -2.931847420152e-02
     2    1.768627292224e+00
     3   -2.417211571059e-02
     4   -4.166034772859e-04
     5   -1.187335737342e-03
     6    1.187745355864e-03
     7    2.472828799484e-03
     8   -2.064878227299e-01
     9   -1.347586791311e-01
    10   -1.439893089638e-01
    11   -1.517588864652e-02
    12   -1.135726914248e+00
    13   -1.163413229603e+00
    14   -1.248438056285e-01
    15    4.175634976140e-03
    16   -2.244570842850e-03
    17    1.332119822309e-03
    18   -3.324544118004e-02
    19   -4.953022798217e-03
    20    1.119155127535e-02
    21   -1.546854924952e+00
    22    2.745159484911e-03
    23   -2.171161650554e-02
    24   -1.179179072658e-03
    25   -1.185732536315e-03
    26   -2.478643396036e-03
    27    2.062016866692e-01
    28    1.369909648324e-01
    29    1.418762595291e-01
    30    1.514348167443e-02
    31    1.104444230860e+00
    32    1.192940781274e+00
    33    1.250928974502e-01
    34   -4.106660332846e-03
    35   -1.170043081824e-03
    36    2.539355013886e-03
    37   -3.355974966493e-02
    38    1.532573065304e-03
    39    2.928018804479e-02
    40   -1.768247764879e+00
    41   -8.174479955697e-04
    42    2.415047571462e-02
    43    1.419095312708e-03
    44   -1.118192461128e-02
    45    1.546757020882e+00
    46    2.183346937582e-02
    47   -1.630226930698e-03
    48    9.497482746468e-04
Sym=X
Ene= 0.463148
Spin=Alpha
Occup=0
     1   -1.021785859053e-01
     2   -8.596914966138e-01
     3   -1.482813059863e-02
     4   -1.092326302724e-02
     5   -1.372940363747e-03
     6    6.263840327132e-02
     7    1.602375354540e-02
     8   -3.633716066631e+00
     9    1.028583783542e-01
    10   -1.010115734928e-01
    11   -1.179318097119e-03
    12    2.522114967922e+00
    13   -2.224937365553e+00
    14   -1.311381113633e-02
    15    5.275863784917e-02
    16   -3.057283878089e-03
    17   -4.716488296989e-03
    18    2.478275166316e-03
    19    2.043660738491e-02
    20   -1.265511622715e-01
    21   -5.501334265735e-01
    22    9.436418964867e-03
    23    1.575351924093e-02
    24    1.405452074352e-03
    25   -6.264503940629e-02
    26   -1.600332788534e-02
    27    3.633956314062e+00
    28    1.062245791277e-01
    29   -9.754312172379e-02
    30   -8.178943361156e-04
    31    2.351881377593e+00
    32   -2.403783851267e+00
    33   -3.213697769880e-02
    34   -5.275965562722e-02
    35    3.417329399400e-03
    36    4.298336620193e-03
    37    4.639794678244e-03
    38   -2.008986216674e-02
    39    1.021411929633e-01
    40    8.594462202996e-01
    41    1.015837449415e-02
    42    1.535364730755e-02
    43    1.414093396483e-03
    44    1.264950668472e-01
    45    5.502572528274e-01
    46   -1.525726859668e-02
    47   -1.021812881487e-02
    48   -1.349871735467e-03
Sym=X
Ene= 0.579142
Spin=Alpha
Occup=0
     1   -3.034366310984e-01
     2   -8.508529096442e-02
     3    9.332629377059e-03
     4   -1.722173707446e-02
     5   -5.922595080135e-04
     6    6.259603693430e-03
     7    1.643351321894e-01
     8    4.403334200048e-01
     9   -3.102231641446e-01
    10    2.827782043986e-01
    11    2.167983719693e-03
    12    8.212753040601e-01
    13   -6.326540323661e-01
    14    1.221692021420e-03
    15   -6.329297871793e-04
    16   -4.223683920914e-03
    17   -1.886471013349e-03
    18   -1.475385002856e-02
    19   -5.881128743458e-02
    20   -1.466578550990e-01
    21   -4.889778939219e-02
    22    3.712262530023e-02
    23   -3.293006494062e-02
    24   -2.061559449635e-04
    25    6.280032018790e-03
    26    1.643616062561e-01
    27    4.392928988203e-01
    28    2.983791207633e-01
    29   -2.951708390003e-01
    30   -3.484346909950e-03
    31   -6.748160586726e-01
    32    7.877885136970e-01
    33    1.519413405873e-02
    34   -6.577461160761e-04
    35   -2.412871517103e-03
    36   -3.940722994737e-03
    37    2.068371637733e-02
    38   -5.699913172965e-02
    39   -3.034053793979e-01
    40   -8.507590476971e-02
    41   -1.770904574136e-02
    42    8.456795042817e-03
    43   -3.390126222122e-04
    44   -1.466551268285e-01
    45   -4.918066999208e-02
    46   -3.480727013140e-02
    47    3.538257115505e-02
    48    4.668577706164e-04
Sym=X
Ene= 0.608522
Spin=Alpha
Occup=0
     1    4.026380385575e-01
     2   -1.584994618002e-01
     3    5.580322189658e-02
     4   -4.205188363787e-02
     5    1.384514904941e-04
     6   -5.838407379766e-04
     7    4.302932909882e-02
     8   -6.128720001533e-02
     9    6.811739349536e-03
    10    5.878456733965e-02
    11    3.869723788397e-03
    12   -1.751355625248e-01
    13   -3.191082459137e-01
    14   -2.771248404536e-02
    15    1.942447815731e-02
    16    4.625637395870e-03
    17   -1.154824417642e-02
    18    1.467347248469e-01
    19   -1.292219541120e-02
    20   -6.190793221704e-01
    21    3.587309868750e-01
    22   -3.177280201496e-02
    23    5.708747926824e-02
    24    1.921604870152e-03
    25   -5.733877751298e-04
    26    4.297560371010e-02
    27   -6.124233596784e-02
    28    5.835496297539e-02
    29    9.780748278540e-03
    30    3.406451173600e-03
    31   -3.099616846083e-01
    32   -1.907787897690e-01
    33   -2.639169323635e-02
    34    1.965981306313e-02
    35   -1.026492102303e-02
    36    5.348187511146e-03
    37   -1.447255622132e-01
    38   -2.781978333368e-02
    39    4.028174919126e-01
    40   -1.590680907617e-01
    41   -4.486841403954e-02
    42    5.357301300109e-02
    43    1.085118757021e-03
    44   -6.190489120202e-01
    45    3.587649990051e-01
    46    5.866278896803e-02
    47   -2.880140934899e-02
    48    1.076408160486e-03
Sym=X
Ene= 0.688117
Spin=Alpha
Occup=0
     1    4.710212109190e-05
     2    5.337526304790e-05
     3    1.378100863519e-03
     4    1.738128282623e-03
     5   -2.866305840888e-02
     6    2.559384884373e-06
     7   -1.314094825924e-06
     8    5.325558555379e-05
     9    3.217516940661e-02
    10    4.047140289389e-02
    11   -6.696901623201e-01
    12   -2.956964934066e-02
    13   -3.694878732088e-02
    14    6.127881366085e-01
    15   -1.200081013318e-03
    16    8.344053049132e-02
    17   -7.776838141677e-02
    18   -8.703142663652e-03
    19   -1.286945298825e-03
    20    3.805821664376e-05
    21    3.617376877281e-05
    22    4.539320917177e-04
    23    5.766395644944e-04
    24   -9.543609353544e-03
    25   -8.489734887112e-07
    26    3.446601741742e-05
    27   -7.694481204123e-05
    28    3.215850401028e-02
    29    4.044015107803e-02
    30   -6.696958801318e-01
    31   -2.952063574481e-02
    32   -3.688720783863e-02
    33    6.127724747438e-01
    34    1.458831511529e-03
    35   -8.204764104091e-02
    36    7.922439023512e-02
    37    8.729877055380e-03
    38    1.136234480438e-03
    39   -1.730182228571e-05
    40   -6.668595492520e-05
    41    1.369721472184e-03
    42    1.737381365237e-03
    43   -2.863061536644e-02
    44   -1.893886113784e-05
    45   -5.977410295347e-05
    46    4.512525245123e-04
    47    5.780303278184e-04
    48   -9.546137619068e-03
Sym=X
Ene= 0.706488
Spin=Alpha
Occup=0
     1   -5.247965261796e-01
     2   -6.658493190538e-04
     3   -8.308008788401e-02
     4   -3.562451142483e-02
     5   -6.149147597883e-03
     6   -4.612503059995e-02
     7   -3.054544999837e-01
     8    5.001130691382e-01
     9    1.536246221347e-01
    10   -2.297749880124e-01
    11   -6.520054907433e-03
    12    9.815454571440e-02
    13    2.065695780759e-01
    14    1.714854818331e-02
    15    1.882371683399e-01
    16   -2.068912133527e-02
    17   -2.296728919236e-02
    18   -7.853013371838e-03
    19   -7.499197036636e-02
    20   -4.366764730619e-01
    21    2.862153067942e-01
    22    4.901093502405e-02
    23    7.412975841280e-02
    24    6.828819880421e-03
    25   -4.615351037213e-02
    26   -3.052968401013e-01
    27    4.996566113492e-01
    28   -2.373407662057e-01
    29    1.416432752278e-01
    30   -2.865078086807e-03
    31    2.011193614180e-01
    32    1.082868836137e-01
    33    1.629306044790e-02
    34    1.883175238939e-01
    35   -1.951305611864e-02
    36   -2.430223636361e-02
    37    1.514787674728e-02
    38   -7.380598839649e-02
    39   -5.251531995343e-01
    40    6.556464953093e-05
    41   -3.135377165015e-02
    42   -8.480750262022e-02
    43   -6.624911595687e-03
    44   -4.368838718793e-01
    45    2.862192422083e-01
    46    7.159615202943e-02
    47    5.271441503298e-02
    48    6.626104196731e-03
Sym=X
Ene= 0.771340
Spin=Alpha
Occup=0
     1    4.669369513165e-01
     2   -2.315920441650e-01
     3    8.821522976508e-02
     4    2.757724949744e-02
     5    5.905852266334e-03
     6    8.706513480162e-02
     7   -2.252966793796e-01
     8   -5.865022382045e-01
     9    1.781089758786e-01
    10   -4.736793747540e-03
    11    8.309050533795e-03
    12    8.646362047698e-02
    13   -5.207521872374e-01
    14   -2.734280931046e-02
    15   -1.955306930166e-01
    16    1.612915226664e-02
    17    2.195322266072e-02
    18   -1.572785797998e-02
    19    8.487072085772e-03
    20    5.989081341640e-01
    21   -7.218039294261e-01
    22   -2.019668536981e-02
    23   -1.230524059030e-01
    24   -8.405048579008e-03
    25   -8.703819221985e-02
    26    2.255990584824e-01
    27    5.859769062170e-01
    28    1.408063647536e-02
    29   -1.774636098705e-01
    30   -1.003828885154e-02
    31    5.242474922700e-01
    32   -6.017054682959e-02
    33    2.158929068427e-02
    34    1.954673312540e-01
    35   -1.767347596178e-02
    36   -2.014517673275e-02
    37   -1.510874337394e-02
    38   -1.003228080041e-02
    39   -4.667414958886e-01
    40    2.321672663866e-01
    41   -2.306760146649e-02
    42   -8.943336378163e-02
    43   -6.507636798995e-03
    44   -5.988388483173e-01
    45    7.214211927215e-01
    46    1.218657917425e-01
    47    2.639774448850e-02
    48    7.445625147436e-03
Sym=X
Ene= 0.806779
Spin=Alpha
Occup=0
     1    5.230126702232e-06
     2    2.621802805257e-05
     3    1.985346725676e-03
     4    2.503884818257e-03
     5   -4.146292418975e-02
     6    3.355302280425e-06
     7   -3.698851600499e-05
     8    2.192043143661e-05
     9    3.669605664690e-02
    10    4.610381231161e-02
    11   -7.631683141110e-01
    12   -5.405502937976e-02
    13   -6.793245448756e-02
    14    1.124311487113e+00
    15    1.119066648833e-03
    16   -6.447767497312e-02
    17    6.201006700368e-02
    18    6.833967074120e-03
    19    9.038150478990e-04
    20    1.742665087855e-05
    21   -4.327102875153e-05
    22    1.030452435290e-03
    23    1.296409901893e-03
    24   -2.149932069302e-02
    25   -7.435185174148e-07
    26   -2.836691272623e-05
    27    1.285271073654e-05
    28   -3.664080624168e-02
    29   -4.608562064586e-02
    30    7.631859415652e-01
    31    5.399924323051e-02
    32    6.786913771120e-02
    33   -1.124314897724e+00
    34    9.707201027849e-04
    35   -6.531547499901e-02
    36    6.112590825501e-02
    37    6.838886655839e-03
    38    1.003560756187e-03
    39   -1.038050758696e-05
    40    4.733643694466e-05
    41   -1.986476428099e-03
    42   -2.517056077872e-03
    43    4.142320127253e-02
    44   -8.707491315936e-06
    45    1.673745728926e-06
    46   -1.023724040541e-03
    47   -1.303660149474e-03
    48    2.150084450541e-02
Sym=X
Ene= 0.859035
Spin=Alpha
Occup=0
     1    3.180677719215e-02
     2   -1.043445015539e+00
     3    1.473390828010e-01
     4    5.227425522876e-02
     5    1.023193719220e-02
     6    6.632346544980e-03
     7    1.439737349772e-01
     8   -1.172092942745e-01
     9   -3.932622248927e-01
    10   -4.456579116720e-01
    11   -4.584214613370e-02
    12    8.953596183396e-01
    13    9.966601264492e-01
    14    1.032877603279e-01
    15   -3.409042674537e-02
    16    1.478866688186e-02
    17   -9.268512002299e-03
    18    2.265743888895e-01
    19    1.766301344657e-02
    20    4.996490569798e-03
    21    1.067474999780e+00
    22    4.971485363144e-02
    23    1.441213562963e-01
    24    1.110370814978e-02
    25    6.606485969393e-03
    26    1.439674923920e-01
    27   -1.172691662441e-01
    28   -4.254523600272e-01
    29   -4.156591448834e-01
    30   -4.550778037245e-02
    31    9.507119179927e-01
    32    9.452044856747e-01
    33    1.026792726116e-01
    34   -3.361333816295e-02
    35   -8.413003386785e-03
    36    1.702033737755e-02
    37   -2.272009753153e-01
    38   -5.516763104241e-03
    39    3.187388351172e-02
    40   -1.043790287395e+00
    41    4.469977096169e-02
    42    1.498028500871e-01
    43    1.120142895228e-02
    44    4.755259543596e-03
    45    1.068064709678e+00
    46    1.415902976757e-01
    47    5.696979441941e-02
    48    1.022926164079e-02
Sym=X
Ene= 0.926955
Spin=Alpha
Occup=0
     1   -1.820128648651e-01
     2    8.677252659141e-01
     3   -1.616514474591e-01
     4    3.927015952097e-02
     5   -5.401943357824e-03
     6   -2.687266783643e-02
     7   -6.001869484056e-02
     8   -2.502732122119e-01
     9    2.315836716327e-01
    10    6.473923202455e-01
    11    5.023795822869e-02
    12   -7.294340119708e-01
    13   -1.767449523497e+00
    14   -1.418100259086e-01
    15    7.669544321954e-02
    16   -6.069233403885e-03
    17    3.379424255825e-03
    18   -1.130102220968e-01
    19    9.536154509966e-02
    20    8.623330160204e-02
    21   -1.296638459602e+00
    22   -1.495966791149e-02
    23   -1.705692704793e-01
    24   -1.102103509421e-02
    25    2.685125635241e-02
    26    5.931609239154e-02
    27    2.513906160929e-01
    28   -6.348746045514e-01
    29   -2.641221466140e-01
    30   -4.643294063296e-02
    31    1.728269632176e+00
    32    8.181586216177e-01
    33    1.323990545091e-01
    34   -7.640821936215e-02
    35   -4.963063804795e-03
    36    9.084849506934e-03
    37   -1.024416919680e-01
    38   -1.063644692282e-01
    39    1.819517457363e-01
    40   -8.676464131184e-01
    41   -4.748442149308e-02
    42    1.593161171675e-01
    43    7.335888625573e-03
    44   -8.625579452082e-02
    45    1.295879790220e+00
    46    1.695706786656e-01
    47    2.360725134351e-02
    48    9.564886996785e-03
Sym=X
Ene= 0.977570
Spin=Alpha
Occup=0
     1   -7.200746129516e-02
     2    1.468887270442e+00
     3   -1.653853377828e-01
     4   -9.298786412752e-02
     5   -1.356299424746e-02
     6    1.926184994135e-02
     7    2.445039581779e-01
     8    4.207553507007e-01
     9    6.132174787779e-01
    10   -2.352946450057e-01
    11    1.525639473316e-02
    12   -2.058708703407e+00
    13    6.171392956445e-01
    14   -6.165995448185e-02
    15   -3.401554009398e-02
    16   -1.615281132155e-02
    17   -7.364210187812e-03
    18   -4.288817461954e-02
    19   -2.792463485872e-01
    20   -7.581355111457e-02
    21    3.033498909284e-01
    22    8.611144802590e-02
    23    1.927103327605e-02
    24    5.314533101005e-03
    25   -1.928337709120e-02
    26   -2.459112299607e-01
    27   -4.182733107792e-01
    28    2.666814026650e-01
    29   -6.002406434182e-01
    30   -2.345519751213e-02
    31   -7.225027603035e-01
    32    2.023838194347e+00
    33    8.755491539357e-02
    34    3.417567622194e-02
    35    1.029954381304e-02
    36    1.394821817874e-02
    37   -7.114929049172e-02
    38    2.735308806892e-01
    39    7.206555197220e-02
    40   -1.469537058230e+00
    41    8.451753933519e-02
    42    1.699590683153e-01
    43    1.432905167147e-02
    44    7.585184601121e-02
    45   -3.044540280390e-01
    46   -1.503603442760e-02
    47   -8.701130322645e-02
    48   -5.959837872814e-03
[5D]

======= END OF MOLDEN-FORMATTED INPUT FILE =======


        *************************************************************
        *                                                           *
        *  Thank you very much for using Q-Chem.  Have a nice day.  *
        *                                                           *
        *************************************************************


