                  Welcome to Q-Chem
     A Quantum Leap Into The Future Of Chemistry


 Q-Chem 5.4 (devel), Q-Chem, Inc., Pleasanton, CA (2021)

 E. Epifanovsky,  A. T. B. Gilbert,  Xintian Feng,  Joonho Lee,  Yuezhi Mao,  
 N. Mardirossian,  P. Pokhilko,  A. White,  M. Wormit,  M. P. Coons,  
 A. L. Dempwolff,  Zhengting Gan,  D. Hait,  P. R. Horn,  L. D. Jacobson,  
 I. Kaliman,  J. Kussmann,  A. W. Lange,  Ka Un Lao,  D. S. Levine,  Jie Liu,  
 S. C. McKenzie,  A. F. Morrison,  K. Nanda,  F. Plasser,  D. R. Rehn,  
 M. L. Vidal,  Zhi-Qiang You,  Ying Zhu,  B. Alam,  B. Albrecht,  
 A. Aldossary,  E. Alguire,  J. H. Andersen,  D. Barton,  K. Begam,  A. Behn,  
 Y. A. Bernard,  E. J. Berquist,  H. Burton,  A. Carreras,  K. Carter-Fenk,  
 R. Chakraborty,  A. D. Chien,  K. D. Closser,  V. Cofer-Shabica,  
 S. Dasgupta,  Jia Deng,  M. de Wergifosse,  M. Diedenhofen,  Hainam Do,  
 S. Ehlert,  Po-Tung Fang,  S. Fatehi,  Qingguo Feng,  T. Friedhoff,  
 J. Gayvert,  Qinghui Ge,  G. Gidofalvi,  M. Goldey,  J. Gomes,  
 C. Gonzalez-Espinoza,  S. Gulania,  A. Gunina,  M. W. D. Hanson-Heine,  
 P. H. P. Harbach,  A. W. Hauser,  M. F. Herbst,  M. Hernandez Vera,  
 M. Hodecker,  Z. C. Holden,  S. Houck,  Xunkun Huang,  Kerwin Hui,  
 B. C. Huynh,  M. Ivanov,  Hyunjun Ji,  Hanjie Jiang,  B. Kaduk,  S. Kaehler,  
 K. Khistyaev,  Jaehoon Kim,  P. Klunzinger,  Z. Koczor-Benda,  
 Joong Hoon Koh,  D. Kosenkov,  L. Koulias,  T. Kowalczyk,  C. M. Krauter,  
 K. Kue,  A. Kunitsa,  T. Kus,  A. Landau,  K. V. Lawler,  D. Lefrancois,  
 S. Lehtola,  Rain Li,  Yi-Pei Li,  Jiashu Liang,  M. Liebenthal,  
 Hung-Hsuan Lin,  You-Sheng Lin,  Fenglai Liu,  Kuan-Yu Liu,  
 M. Loipersberger,  A. Luenser,  A. Manjanath,  P. Manohar,  E. Mansoor,  
 S. F. Manzer,  Shan-Ping Mao,  A. V. Marenich,  T. Markovich,  S. Mason,  
 S. A. Maurer,  P. F. McLaughlin,  M. F. S. J. Menger,  J.-M. Mewes,  
 S. A. Mewes,  P. Morgante,  J. W. Mullinax,  K. J. Oosterbaan,  G. Paran,  
 Alexander C. Paul,  Suranjan K. Paul,  F. Pavosevic,  Zheng Pei,  S. Prager,  
 E. I. Proynov,  E. Ramos,  B. Rana,  A. E. Rask,  A. Rettig,  R. M. Richard,  
 F. Rob,  E. Rossomme,  T. Scheele,  M. Scheurer,  M. Schneider,  
 N. Sergueev,  S. M. Sharada,  W. Skomorowski,  D. W. Small,  C. J. Stein,  
 Yu-Chuan Su,  E. J. Sundstrom,  Zhen Tao,  J. Thirman,  T. Tsuchimochi,  
 N. M. Tubman,  S. P. Veccham,  O. Vydrov,  J. Wenzel,  J. Witte,  A. Yamada,  
 Kun Yao,  S. Yeganeh,  S. R. Yost,  A. Zech,  Igor Ying Zhang,  Xing Zhang,  
 Yu Zhang,  D. Zuev,  A. Aspuru-Guzik,  A. T. Bell,  N. A. Besley,  
 K. B. Bravaya,  B. R. Brooks,  D. Casanova,  Jeng-Da Chai,  S. Coriani,  
 C. J. Cramer,  A. E. DePrince, III,  R. A. DiStasio Jr.,  A. Dreuw,  
 B. D. Dunietz,  T. R. Furlani,  W. A. Goddard III,  S. Grimme,  
 S. Hammes-Schiffer,  T. Head-Gordon,  W. J. Hehre,  Chao-Ping Hsu,  
 T.-C. Jagau,  Yousung Jung,  A. Klamt,  Jing Kong,  D. S. Lambrecht,  
 WanZhen Liang,  N. J. Mayhall,  C. W. McCurdy,  J. B. Neaton,  
 C. Ochsenfeld,  J. A. Parkhill,  R. Peverati,  V. A. Rassolov,  Yihan Shao,  
 L. V. Slipchenko,  T. Stauch,  R. P. Steele,  J. E. Subotnik,  
 A. J. W. Thom,  A. Tkatchenko,  D. G. Truhlar,  T. Van Voorhis,  
 T. A. Wesolowski,  K. B. Whaley,  H. L. Woodcock III,  P. M. Zimmerman,  
 S. Faraji,  P. M. W. Gill,  M. Head-Gordon,  J. M. Herbert,  A. I. Krylov

 Additional authors for Version 5.4.1: 
 S. Kotaru,  Shaozhi Li,  Xiangyuan Li,  F. Matz,  A. Molle,  Haisheng Ren,  
 Yingli Su,  Hung-Yi Tsai,  C. Utku,  Fang Wang

 Contributors to earlier versions of Q-Chem not listed above: 
 R. D. Adamson,  B. Austin,  R. Baer,  J. Baker,  G. J. O. Beran,  
 K. Brandhorst,  S. T. Brown,  E. F. C. Byrd,  A. K. Chakraborty,  
 G. K. L. Chan,  Chun-Min Chang,  Yunqing Chen,  C.-L. Cheng,  
 Siu Hung Chien,  D. M. Chipman,  D. L. Crittenden,  H. Dachsel,  
 R. J. Doerksen,  A. D. Dutoi,  R. G. Edgar,  J. Fosso-Tande,  
 L. Fusti-Molnar,  D. Ghosh,  A. Ghysels,  A. Golubeva-Zadorozhnaya,  
 J. Gonthier,  M. S. Gordon,  S. R. Gwaltney,  G. Hawkins,  J. E. Herr,  
 A. Heyden,  S. Hirata,  E. G. Hohenstein,  G. Kedziora,  F. J. Keil,  
 C. Kelley,  Jihan Kim,  R. A. King,  R. Z. Khaliullin,  P. P. Korambath,  
 W. Kurlancheek,  A. Laurent,  A. M. Lee,  M. S. Lee,  S. V. Levchenko,  
 Ching Yeh Lin,  D. Liotard,  E. Livshits,  R. C. Lochan,  I. Lotan,  
 L. A. Martinez-Martinez,  P. E. Maslen,  N. Nair,  D. P. O'Neill,  
 D. Neuhauser,  E. Neuscamman,  C. M. Oana,  R. Olivares-Amaya,  R. Olson,  
 T. M. Perrine,  B. Peters,  P. A. Pieniazek,  A. Prociuk,  Y. M. Rhee,  
 J. Ritchie,  M. A. Rohrdanz,  E. Rosta,  N. J. Russ,  H. F. Schaefer III,  
 M. W. Schmidt,  N. E. Schultz,  S. Sharma,  N. Shenvi,  C. D. Sherrill,  
 A. C. Simmonett,  A. Sodt,  T. Stein,  D. Stuck,  K. S. Thanthiriwatte,  
 V. Vanovschi,  L. Vogt,  Tao Wang,  A. Warshel,  M. A. Watson,  
 C. F. Williams,  Q. Wu,  X. Xu,  Jun Yang,  W. Zhang,  Yan Zhao

 Please cite Q-Chem as follows:
 Y. Shao et al., Mol. Phys. 113, 184-215 (2015)
 DOI: 10.1080/00268976.2014.952696

 Q-Chem 5.4.1 for Intel X86 EM64T Linux

 Parts of Q-Chem use Armadillo 9.800.1 (Horizon Scraper).
 http://arma.sourceforge.net/

 Q-Chem begins on Thu Nov 17 15:39:40 2022  

 Host: cpu197.baobab
0

     Scratch files written to /scratch/fum/qchem4012//
 Processing $rem in /home/share/wesolowski/qc5.aug2021.FDE/config/preferences:
 Processing $rem in /home/fum/.qchemrc:

 Checking the input file for inconsistencies... 	...done.

--------------------------------------------------------------
User input:
--------------------------------------------------------------
$comment
generated from CCJob.Templates
$end

$rem
sym_ignore = true
method = adc(2)
ee_states = 10
basis = cc-pVDZ
mem_static = 1024
mem_total = 40000
adc_davidson_maxiter = 900
adc_davidson_conv = 6
adc_print = 3
adc_prop_es = true
adc_prop_es2es = true
adc_prop_tpa = true
molden_format = True
state_analysis = true
print_orbitals = 15
gen_scfman = false
fde_export_density = true
fde_details = 3
$end

$molecule
0 1
H -0.0348278765 -0.23420978269999998 0.0636489606
C -1.0765972949 -0.5242748755 -0.0023551776
H -1.313264467 -1.5767591607 -0.0757276926
C -2.043634118 0.3926884087 0.0061254933
H -1.8137616575 1.4459188338 0.0804456828
H -3.085977293 0.114931858 -0.0593381042                     
$end
--------------------------------------------------------------
 ----------------------------------------------------------------
             Standard Nuclear Orientation (Angstroms)
    I     Atom           X                Y                Z
 ----------------------------------------------------------------
    1      H      -0.0348278765    -0.2342097827     0.0636489606
    2      C      -1.0765972949    -0.5242748755    -0.0023551776
    3      H      -1.3132644670    -1.5767591607    -0.0757276926
    4      C      -2.0436341180     0.3926884087     0.0061254933
    5      H      -1.8137616575     1.4459188338     0.0804456828
    6      H      -3.0859772930     0.1149318580    -0.0593381042
 ----------------------------------------------------------------
 Nuclear Repulsion Energy =          33.41821633 hartrees
 There are        8 alpha and        8 beta electrons
 Requested basis set is cc-pVDZ
 There are 24 shells and 48 basis functions
 Total memory of 40000 MB is distributed as follows: 
   MEM_STATIC is set to 1024 MB
   QALLOC/CCMAN JOB total memory use is  38976 MB
 Warning: actual memory use might exceed 40000 MB

 Total QAlloc Memory Limit  40000 MB
 Mega-Array Size      1001 MB
 MEM_STATIC part      1024 MB

                       Distance Matrix (Angstroms)
             H (  1)   C (  2)   H (  3)   C (  4)   H (  5)
   C (  2)  1.083410
   H (  3)  1.859103  1.081258
   C (  4)  2.105140  1.332687  2.102109
   H (  5)  2.446982  2.105215  3.067812  1.080583
   H (  6)  3.073522  2.109370  2.450428  1.080700  1.846510

 A cutoff of  1.0D-11 yielded    300 shell pairs
 There are      1220 function pairs (      1329 Cartesian)
 Smallest overlap matrix eigenvalue = 4.80E-03

 Scale SEOQF with 1.000000e-01/1.000000e-01/1.000000e+00

 Standard Electronic Orientation quadrupole field applied
 Nucleus-field energy     =     0.0000000022 hartrees
 Guess from superposition of atomic densities
 Warning:  Energy on first SCF cycle will be non-variational
 SAD guess density has 16.000000 electrons
 A restricted Hartree-Fock SCF calculation will be
 performed using Pulay DIIS extrapolation
 SCF converges when DIIS error is below 1.0E-08
 using 10 threads for integral computing
 -------------------------------------------------------
 OpenMP Integral computing Module                
 Release: version 1.0, May 2013, Q-Chem Inc. Pittsburgh 
 -------------------------------------------------------
 ---------------------------------------
  Cycle       Energy         DIIS Error
 ---------------------------------------
    1     -78.4372943499      1.01E-01
    2     -78.0176663578      7.21E-03
    3     -78.0382958637      1.84E-03
    4     -78.0397790515      5.74E-04
    5     -78.0399009905      5.82E-05
    6     -78.0399028680      1.01E-05
    7     -78.0399029315      3.50E-06
    8     -78.0399029364      1.11E-06
    9     -78.0399029370      1.00E-07
   10     -78.0399029370      2.26E-08
   11     -78.0399029370      6.57E-09 Convergence criterion met
 ---------------------------------------
 SCF time:  CPU 1.55 s  wall 2.28 s
 SCF   energy in the final basis set = -78.03990294
 Total energy in the final basis set = -78.03990294
Exporting Density Matrix to file 'Densmat_SCF.txt'.
Export successful
================================================================================
|                                                                              |
|                                 A D C  M A N                                 |
|                                                                              |
 ------------------------------------------------------------------------------ 
|                                                                              |
| Components:                                                                  |
|                                                                              |
| - libvmm - 1.3-trunk                                                         |
|   Authors:                                                                   |
|   Evgeny Epifanovsky, Ilya Kaliman                                           |
|                                                                              |
| - libtensor - 2.5-trunk                                                      |
|   Authors:                                                                   |
|   Evgeny Epifanovsky, Michael Wormit, Dmitry Zuev, Sam Manzer,               |
|   Ilya Kaliman                                                               |
|                                                                              |
| - libwfa - 1.1-trunk                                                         |
|   Authors:                                                                   |
|   Felix Plasser, Stefanie Mewes (Baeppler), Benjamin Thomitzni,              |
|   Michael Wormit, Feng Chen, Anna I. Krylov, Pavel Pokhilko                  |
|                                                                              |
| - libadc - 1.1-trunk                                                         |
|   Authors:                                                                   |
|   Michael Wormit, Adrian L. Dempwolff, Philipp H. P. Harbach,                |
|   Caroline Krauter, Dirk Rehn, Matthias Schneider, Jan Wenzel                |
|                                                                              |
| - adcman - 2.6-trunk                                                         |
|   Authors:                                                                   |
|   Michael Wormit, Adrian L. Dempwolff, Philipp H. P. Harbach,                |
|   Caroline Krauter, Daniel Lefrancois, Jan-Michael Mewes, Dirk Rehn,         |
|   Matthias Schneider, Jan Wenzel, Andreas Dreuw                              |
|                                                                              |
| Authors of earlier versions of ADCMAN:                                       |
| Andreas Dreuw, Jan Hendrik Starcke, Dirk Rehn, Michael Wormit                |
|                                                                              |
================================================================================

 Created directory /scratch/fum/qchem4012/plots
  Import QC data ...  CPU 0.00 s  wall 0.00 s

 Alpha MOs, Restricted
 -- Occupied --                  
-11.235 -11.233  -1.032  -0.789  -0.641  -0.581  -0.505  -0.374
  1 A     2 A     3 A     4 A     5 A     6 A     7 A     8 A                  
 -- Virtual --                   
  0.168   0.204   0.233   0.240   0.303   0.461   0.577   0.616
  9 A    10 A    11 A    12 A    13 A    14 A    15 A    16 A                  
  0.689   0.708   0.784   0.808   0.862   0.936   0.972   1.009
 17 A    18 A    19 A    20 A    21 A    22 A    23 A    24 A                  
  1.130   1.235   1.257   1.266   1.293   1.601   1.721   1.749
 25 A    26 A    27 A    28 A    29 A    30 A    31 A    32 A                  
  1.819   1.861   1.867   1.923   1.976   1.978   2.219   2.257
 33 A    34 A    35 A    36 A    37 A    38 A    39 A    40 A                  
  2.376   2.454   2.502   2.629   2.721   2.819   3.141   3.395
 41 A    42 A    43 A    44 A    45 A    46 A    47 A    48 A                  

 Beta MOs, Restricted
 -- Occupied --                  
-11.235 -11.233  -1.032  -0.789  -0.641  -0.581  -0.505  -0.374
  1 A     2 A     3 A     4 A     5 A     6 A     7 A     8 A                  
 -- Virtual --                   
  0.168   0.204   0.233   0.240   0.303   0.461   0.577   0.616
  9 A    10 A    11 A    12 A    13 A    14 A    15 A    16 A                  
  0.689   0.708   0.784   0.808   0.862   0.936   0.972   1.009
 17 A    18 A    19 A    20 A    21 A    22 A    23 A    24 A                  
  1.130   1.235   1.257   1.266   1.293   1.601   1.721   1.749
 25 A    26 A    27 A    28 A    29 A    30 A    31 A    32 A                  
  1.819   1.861   1.867   1.923   1.976   1.978   2.219   2.257
 33 A    34 A    35 A    36 A    37 A    38 A    39 A    40 A                  
  2.376   2.454   2.502   2.629   2.721   2.819   3.141   3.395
 41 A    42 A    43 A    44 A    45 A    46 A    47 A    48 A                  
  Import AO data ...  CPU 0.00 s  wall 0.00 s
  Using point group: C1
  Irreducible representations in point group: A
  Molecular orbitals: 
  Occupied MOs:
  Block   0:   1 (  A) A   2 (  A) A   3 (  A) A   4 (  A) A   5 (  A) A
                  -11.24      -11.23      -1.032     -0.7892     -0.6414
               6 (  A) A   7 (  A) A   8 (  A) A
                 -0.5812     -0.5047      -0.374
  Block   1:   1 (  A) B   2 (  A) B   3 (  A) B   4 (  A) B   5 (  A) B
                  -11.24      -11.23      -1.032     -0.7892     -0.6414
               6 (  A) B   7 (  A) B   8 (  A) B
                 -0.5812     -0.5047      -0.374
  Virtual MOs:
  Block   0:   9 (  A) A  10 (  A) A  11 (  A) A  12 (  A) A  13 (  A) A
                  0.1685      0.2035      0.2328      0.2395      0.3032
              14 (  A) A  15 (  A) A  16 (  A) A  17 (  A) A  18 (  A) A
                  0.4615       0.577      0.6162      0.6892      0.7082
              19 (  A) A  20 (  A) A  21 (  A) A  22 (  A) A
                  0.7844       0.808      0.8622      0.9357
  Block   1:  23 (  A) A  24 (  A) A  25 (  A) A  26 (  A) A  27 (  A) A
                  0.9721       1.009        1.13       1.235       1.257
              28 (  A) A  29 (  A) A  30 (  A) A  31 (  A) A  32 (  A) A
                   1.266       1.293       1.601       1.721       1.749
              33 (  A) A  34 (  A) A  35 (  A) A  36 (  A) A
                   1.819       1.861       1.867       1.923
  Block   2:  37 (  A) A  38 (  A) A  39 (  A) A  40 (  A) A  41 (  A) A
                   1.976       1.978       2.219       2.257       2.376
              42 (  A) A  43 (  A) A  44 (  A) A  45 (  A) A  46 (  A) A
                   2.454       2.502       2.629       2.721       2.819
              47 (  A) A  48 (  A) A
                   3.141       3.395
  Block   3:   9 (  A) B  10 (  A) B  11 (  A) B  12 (  A) B  13 (  A) B
                  0.1685      0.2035      0.2328      0.2395      0.3032
              14 (  A) B  15 (  A) B  16 (  A) B  17 (  A) B  18 (  A) B
                  0.4615       0.577      0.6162      0.6892      0.7082
              19 (  A) B  20 (  A) B  21 (  A) B  22 (  A) B
                  0.7844       0.808      0.8622      0.9357
  Block   4:  23 (  A) B  24 (  A) B  25 (  A) B  26 (  A) B  27 (  A) B
                  0.9721       1.009        1.13       1.235       1.257
              28 (  A) B  29 (  A) B  30 (  A) B  31 (  A) B  32 (  A) B
                   1.266       1.293       1.601       1.721       1.749
              33 (  A) B  34 (  A) B  35 (  A) B  36 (  A) B
                   1.819       1.861       1.867       1.923
  Block   5:  37 (  A) B  38 (  A) B  39 (  A) B  40 (  A) B  41 (  A) B
                   1.976       1.978       2.219       2.257       2.376
              42 (  A) B  43 (  A) B  44 (  A) B  45 (  A) B  46 (  A) B
                   2.454       2.502       2.629       2.721       2.819
              47 (  A) B  48 (  A) B
                   3.141       3.395
  Import MO data ...  CPU 0.01 s  wall 0.00 s
  Import HF data ...  CPU 0.08 s  wall 0.03 s
  Import 2e integrals ...  CPU 0.67 s  wall 0.13 s

--------------------------------------------------------------------------------
                                   HF Summary                                   
--------------------------------------------------------------------------------
  Energy:                                                  -78.0399029370 a.u.
  Dip. moment [a.u.]:                  [  -0.001801,    0.001390,    0.000289]
  Total dipole [Debye]:                                               0.005829
  <r^2> [a.u.]:                        [ 175.324597,   34.896871,   11.628789]
  Total <r^2> [a.u.]:                                               221.850256
--------------------------------------------------------------------------------
  HF properties ...  CPU 0.01 s  wall 0.01 s
  MP(1) calculation ...  CPU 0.01 s  wall 0.00 s
  N^6 prerequesite intermediates ...  CPU 0.52 s  wall 0.08 s
  Difference density matrix of state mp2_gs printed to ASCII file 'State_mp2_gs_Difference.txt'
Exporting MP density matrix to file 'Densmat_MP.txt'.
Export successful
  Total density matrix of state mp2_gs printed to ASCII file 'State_mp2_gs_Total.txt'
Exporting MP density matrix to file 'Densmat_MP.txt'.
Export successful

--------------------------------------------------------------------------------
                                 MP(2) Summary                                  
--------------------------------------------------------------------------------
  MP energy contribution:                                   -0.2797493842 a.u.
  Total energy:                                            -78.3196523212 a.u.
  Dip. moment [a.u.]:                  [  -0.001598,    0.001351,    0.000293]
  Total dipole [Debye]:                                               0.005371
  <r^2> [a.u.]:                        [ 175.371761,   34.937904,   11.460423]
  Total <r^2> [a.u.]:                                               221.770087

  Density matrix analysis:
  ------------------------
  NOs
    Occupation of frontier NOs:
       0.0453   1.9383
    Number of electrons: 16.000000
    Number of unpaired electrons: n_u =  0.40360, n_u,nl =  0.04511
    NO participation ratio (PR_NO): 13.859955
  
  
  Mulliken Population Analysis
  Atom      Charge (e)              h+              e-           Del q
  --------------------------------------------------------------------
   1 H        0.051604        0.013971       -0.011215        0.002757
   2 C       -0.101360        0.093519       -0.098876       -0.005357
   3 H        0.050953        0.014013       -0.011209        0.002803
   4 C       -0.101592        0.092875       -0.098928       -0.006053
   5 H        0.050029        0.014128       -0.011184        0.002943
   6 H        0.050367        0.014098       -0.011192        0.002906
  --------------------------------------------------------------------
  Sum:        0.000000        0.242603       -0.242603       -0.000000
  
  Multipole moment analysis of the density matrix
    Molecular charge:                      0.000000
    Number of electrons:                   16.000000
      Center of electronic charge [Ang]: [ -1.560523,  -0.065022,   0.001968]
    Total nuclear charge:                  16.000000
      Center of nuclear charge [Ang]:    [ -1.560576,  -0.064977,   0.001978]
    Dipole moment [D]:                     0.005371
      Cartesian components [D]:          [ -0.004062,   0.003434,   0.000744]
    RMS size of the density [Ang]:         1.200794
      Cartesian components [Ang]:        [  0.796295,   0.779261,   0.447855]
  
  Exciton analysis of the difference density matrix
    <r_h> [Ang]:                  [ -1.559763,  -0.065437,   0.001933]
    <r_e> [Ang]:                  [ -1.560205,  -0.065352,   0.001925]
    |<r_e - r_h>| [Ang]:            0.000451
    Hole size [Ang]:                1.393787
      Cartesian components [Ang]: [  0.847098,   0.833790,   0.727915]
    Electron size [Ang]:            1.359682
      Cartesian components [Ang]: [  0.877858,   0.861731,   0.579241]
--------------------------------------------------------------------------------
  MP(2) calculation ...  CPU 0.13 s  wall 0.12 s
  Start ADC(2)-s ...  CPU 0.01 s  wall 0.00 s
  ADC(2) intermediates ...  CPU 0.02 s  wall 0.01 s
  Starting Davidson for singlet states of irrep A ... 
--------------------------------------------------------------------------------
   It NVec Conv  Avg. Norm  Max. Norm  Conv. states           Remark
--------------------------------------------------------------------------------
        10    0  1.330e-01  4.683e-01  0.4116 n n n n n n n n Guess.
    1   20    0  2.298e-02  1.107e-01  0.3263 n n n n n n n n 
    2   30    0  5.805e-03  2.447e-02  0.3215 n n n n n n n n 
    3   40    0  1.788e-03  1.021e-02  0.3211 n n n n n n n n 
    4   50    0  5.596e-04  3.636e-03  0.3211 n n n n n n n n 
    5   20    0  2.665e-04  1.868e-03  0.3211 n n n n n n n n Subspace collapsed.
    6   30    0  1.319e-04  1.010e-03  0.3211 n n n n n n n n 
    7   40    0  8.964e-05  7.573e-04  0.3211 n n n n n n n n 
    8   50    0  6.223e-05  5.117e-04  0.3211 n n n n n n n n 
    9   20    2  4.071e-05  3.330e-04  0.3211 n y n y n n n n Subspace collapsed.
   10   30    4  3.577e-05  3.183e-04  0.3211 n y y y y n n n 
   11   40    5  3.900e-05  3.839e-04  0.3211 n y y y y y n n 
   12   50    6  2.979e-05  2.961e-04  0.3211 y y y y y y n n 
   13   20    6  1.394e-05  1.384e-04  0.3211 y y y y y y n n Subspace collapsed.
   14   30    6  8.976e-06  8.873e-05  0.3211 y y y y y y n n 
   15   40    6  5.785e-06  5.740e-05  0.3211 y y y y y y n n 
   16   50    6  5.535e-06  5.515e-05  0.3211 y y y y y y n n 
   17   20    7  2.885e-06  2.876e-05  0.3211 y y y y y y n y Subspace collapsed.
   18   30    7  4.729e-06  4.722e-05  0.3211 y y y y y y n y 
   19   40    7  4.889e-06  4.885e-05  0.3211 y y y y y y n y 
   20   50    9  4.432e-06  4.431e-05  0.3211 y y y y y y y y 
   21   20    9  1.743e-06  1.742e-05  0.3211 y y y y y y y y Subspace collapsed.
   22   30    9  1.266e-06  1.265e-05  0.3211 y y y y y y y y 
   23   31    9  1.269e-06  1.268e-05  0.3211 y y y y y y y y 
   24   33    9  1.266e-06  1.266e-05  0.3211 y y y y y y y y 
   25   34    9  1.267e-06  1.267e-05  0.3211 y y y y y y y y 
   26   34    9  1.267e-06  1.267e-05  0.3211 y y y y y y y y 
   27   44    9  6.557e-07  6.555e-06  0.3211 y y y y y y y y 
   28   50    9  7.568e-07  7.567e-06  0.3211 y y y y y y y y 
   29   16    9  4.316e-07  4.315e-06  0.3211 y y y y y y y y Subspace collapsed.
   30   22    9  6.798e-07  6.797e-06  0.3211 y y y y y y y y 
   31   27    9  7.352e-07  7.352e-06  0.3211 y y y y y y y y 
   32   32    9  5.700e-07  5.700e-06  0.3211 y y y y y y y y 
   33   36    9  4.339e-07  4.339e-06  0.3211 y y y y y y y y 
   34   40    9  2.134e-07  2.134e-06  0.3211 y y y y y y y y 
   35   44    9  1.148e-07  1.148e-06  0.3211 y y y y y y y y 
   36   48   10  5.375e-08  5.374e-07  0.3211 y y y y y y y y Converged.
--------------------------------------------------------------------------------
  Davidson Summary: 
 ------------------------------------------------------------
  State  0: excitation energy =   0.3211 a.u.   (converged)
  State  1: excitation energy =   0.3329 a.u.   (converged)
  State  2: excitation energy =   0.3367 a.u.   (converged)
  State  3: excitation energy =   0.3612 a.u.   (converged)
  State  4: excitation energy =   0.3750 a.u.   (converged)
  State  5: excitation energy =   0.3869 a.u.   (converged)
  State  6: excitation energy =   0.4245 a.u.   (converged)
  State  7: excitation energy =   0.4472 a.u.   (converged)
  State  8: excitation energy =   0.4565 a.u.   (converged)
  State  9: excitation energy =   0.4647 a.u.   (converged)
 ------------------------------------------------------------

  Singlet states of irrep A ...  CPU 93.98 s  wall 31.68 s
  TDMs ...  CPU 0.67 s  wall 0.27 s
  SDMs ...  CPU 1.48 s  wall 0.52 s
  Starting TPA DIIS iterations ... 
------------------------------------ 
   It     Res. Norm  Remark
------------------------------------
                       Guess.
    1     4.402e+00  
    2     5.836e+00  
    3     1.078e+00  
    4     2.574e-01  
    5     6.578e-02  
    6     2.679e-02  
    7     8.243e-03  
    8     1.446e-03  
    9     5.353e-04  
   10     9.027e-05  
   11     2.829e-05  
   12     4.406e-06  
   13     1.425e-06  
   14     4.565e-07  Converged.
   ... Converged in 14 steps (norm: 4.56512e-07)
------------------------------------
  Starting TPA DIIS iterations ... 
------------------------------------ 
   It     Res. Norm  Remark
------------------------------------
                       Guess.
    1     4.184e+00  
    2     5.539e+00  
    3     1.028e+00  
    4     2.552e-01  
    5     6.539e-02  
    6     2.667e-02  
    7     8.099e-03  
    8     1.451e-03  
    9     5.367e-04  
   10     8.965e-05  
   11     2.830e-05  
   12     4.347e-06  
   13     1.430e-06  
   14     4.511e-07  Converged.
   ... Converged in 14 steps (norm: 4.51103e-07)
------------------------------------
  Starting TPA DIIS iterations ... 
------------------------------------ 
   It     Res. Norm  Remark
------------------------------------
                       Guess.
    1     6.891e-01  
    2     4.834e-01  
    3     1.703e-01  
    4     5.938e-02  
    5     1.843e-02  
    6     6.678e-03  
    7     1.046e-03  
    8     4.495e-04  
    9     1.245e-04  
   10     2.852e-05  
   11     5.411e-06  
   12     1.609e-06  
   13     8.974e-07  Converged.
   ... Converged in 13 steps (norm: 8.97368e-07)
------------------------------------
  Starting TPA DIIS iterations ... 
------------------------------------ 
   It     Res. Norm  Remark
------------------------------------
                       Guess.
    1     4.693e+00  
    2     6.359e+00  
    3     1.160e+00  
    4     2.864e-01  
    5     7.423e-02  
    6     3.049e-02  
    7     9.364e-03  
    8     1.640e-03  
    9     6.118e-04  
   10     1.037e-04  
   11     3.285e-05  
   12     5.163e-06  
   13     1.683e-06  
   14     5.442e-07  Converged.
   ... Converged in 14 steps (norm: 5.44165e-07)
------------------------------------
  Starting TPA DIIS iterations ... 
------------------------------------ 
   It     Res. Norm  Remark
------------------------------------
                       Guess.
    1     4.460e+00  
    2     6.034e+00  
    3     1.106e+00  
    4     2.838e-01  
    5     7.380e-02  
    6     3.037e-02  
    7     9.203e-03  
    8     1.647e-03  
    9     6.135e-04  
   10     1.030e-04  
   11     3.284e-05  
   12     5.092e-06  
   13     1.688e-06  
   14     5.382e-07  Converged.
   ... Converged in 14 steps (norm: 5.38201e-07)
------------------------------------
  Starting TPA DIIS iterations ... 
------------------------------------ 
   It     Res. Norm  Remark
------------------------------------
                       Guess.
    1     7.014e-01  
    2     5.010e-01  
    3     1.803e-01  
    4     6.727e-02  
    5     1.988e-02  
    6     7.306e-03  
    7     1.182e-03  
    8     5.304e-04  
    9     1.503e-04  
   10     3.260e-05  
   11     6.136e-06  
   12     1.900e-06  
   13     1.125e-06  
   14     4.142e-07  Converged.
   ... Converged in 14 steps (norm: 4.14248e-07)
------------------------------------
  Starting TPA DIIS iterations ... 
------------------------------------ 
   It     Res. Norm  Remark
------------------------------------
                       Guess.
    1     4.792e+00  
    2     6.540e+00  
    3     1.188e+00  
    4     2.966e-01  
    5     7.719e-02  
    6     3.180e-02  
    7     9.758e-03  
    8     1.708e-03  
    9     6.387e-04  
   10     1.085e-04  
   11     3.448e-05  
   12     5.434e-06  
   13     1.776e-06  
   14     5.761e-07  Converged.
   ... Converged in 14 steps (norm: 5.76057e-07)
------------------------------------
  Starting TPA DIIS iterations ... 
------------------------------------ 
   It     Res. Norm  Remark
------------------------------------
                       Guess.
    1     4.554e+00  
    2     6.205e+00  
    3     1.133e+00  
    4     2.938e-01  
    5     7.676e-02  
    6     3.168e-02  
    7     9.591e-03  
    8     1.716e-03  
    9     6.406e-04  
   10     1.078e-04  
   11     3.445e-05  
   12     5.358e-06  
   13     1.781e-06  
   14     5.700e-07  Converged.
   ... Converged in 14 steps (norm: 5.69958e-07)
------------------------------------
  Starting TPA DIIS iterations ... 
------------------------------------ 
   It     Res. Norm  Remark
------------------------------------
                       Guess.
    1     7.054e-01  
    2     5.069e-01  
    3     1.837e-01  
    4     7.008e-02  
    5     2.036e-02  
    6     7.526e-03  
    7     1.231e-03  
    8     5.596e-04  
    9     1.596e-04  
   10     3.378e-05  
   11     6.387e-06  
   12     2.006e-06  
   13     1.211e-06  
   14     4.433e-07  Converged.
   ... Converged in 14 steps (norm: 4.43316e-07)
------------------------------------
  Starting TPA DIIS iterations ... 
------------------------------------ 
   It     Res. Norm  Remark
------------------------------------
                       Guess.
    1     5.536e+00  
    2     7.926e+00  
    3     1.397e+00  
    4     3.773e-01  
    5     1.007e-01  
    6     4.224e-02  
    7     1.288e-02  
    8     2.245e-03  
    9     8.542e-04  
   10     1.466e-04  
   11     4.772e-05  
   12     7.655e-06  
   13     2.556e-06  
   14     8.494e-07  Converged.
   ... Converged in 14 steps (norm: 8.49384e-07)
------------------------------------
  Starting TPA DIIS iterations ... 
------------------------------------ 
   It     Res. Norm  Remark
------------------------------------
                       Guess.
    1     5.258e+00  
    2     7.519e+00  
    3     1.331e+00  
    4     3.730e-01  
    5     1.001e-01  
    6     4.214e-02  
    7     1.267e-02  
    8     2.258e-03  
    9     8.567e-04  
   10     1.456e-04  
   11     4.761e-05  
   12     7.542e-06  
   13     2.558e-06  
   14     8.435e-07  Converged.
   ... Converged in 14 steps (norm: 8.43541e-07)
------------------------------------
  Starting TPA DIIS iterations ... 
------------------------------------ 
   It     Res. Norm  Remark
------------------------------------
                       Guess.
    1     7.325e-01  
    2     5.485e-01  
    3     2.082e-01  
    4     9.307e-02  
    5     2.396e-02  
    6     9.276e-03  
    7     1.632e-03  
    8     7.980e-04  
    9     2.345e-04  
   10     3.936e-05  
   11     8.358e-06  
   12     2.895e-06  
   13     1.994e-06  
   14     7.012e-07  Converged.
   ... Converged in 14 steps (norm: 7.01205e-07)
------------------------------------
  Starting TPA DIIS iterations ... 
------------------------------------ 
   It     Res. Norm  Remark
------------------------------------
                       Guess.
    1     6.040e+00  
    2     8.898e+00  
    3     1.538e+00  
    4     4.361e-01  
    5     1.178e-01  
    6     4.994e-02  
    7     1.516e-02  
    8     2.636e-03  
    9     1.013e-03  
   10     1.747e-04  
   11     5.770e-05  
   12     9.337e-06  
   13     3.163e-06  
   14     1.073e-06  
   15     3.723e-07  Converged.
   ... Converged in 15 steps (norm: 3.72286e-07)
------------------------------------
  Starting TPA DIIS iterations ... 
------------------------------------ 
   It     Res. Norm  Remark
------------------------------------
                       Guess.
    1     5.736e+00  
    2     8.441e+00  
    3     1.464e+00  
    4     4.307e-01  
    5     1.172e-01  
    6     4.987e-02  
    7     1.491e-02  
    8     2.653e-03  
    9     1.016e-03  
   10     1.736e-04  
   11     5.750e-05  
   12     9.197e-06  
   13     3.161e-06  
   14     1.069e-06  
   15     3.491e-07  Converged.
   ... Converged in 15 steps (norm: 3.49139e-07)
------------------------------------
  Starting TPA DIIS iterations ... 
------------------------------------ 
   It     Res. Norm  Remark
------------------------------------
                       Guess.
    1     7.487e-01  
    2     5.748e-01  
    3     2.243e-01  
    4     1.104e-01  
    5     2.641e-02  
    6     1.056e-02  
    7     1.941e-03  
    8     9.678e-04  
    9     2.870e-04  
   10     4.081e-05  
   11     9.810e-06  
   12     3.589e-06  
   13     2.663e-06  
   14     9.165e-07  Converged.
   ... Converged in 14 steps (norm: 9.16474e-07)
------------------------------------
  Starting TPA DIIS iterations ... 
------------------------------------ 
   It     Res. Norm  Remark
------------------------------------
                       Guess.
    1     6.539e+00  
    2     9.885e+00  
    3     1.676e+00  
    4     4.974e-01  
    5     1.355e-01  
    6     5.803e-02  
    7     1.753e-02  
    8     3.040e-03  
    9     1.179e-03  
   10     2.042e-04  
   11     6.827e-05  
   12     1.113e-05  
   13     3.820e-06  
   14     1.327e-06  
   15     4.667e-07  Converged.
   ... Converged in 15 steps (norm: 4.66675e-07)
------------------------------------
  Starting TPA DIIS iterations ... 
------------------------------------ 
   It     Res. Norm  Remark
------------------------------------
                       Guess.
    1     6.208e+00  
    2     9.377e+00  
    3     1.596e+00  
    4     4.905e-01  
    5     1.349e-01  
    6     5.798e-02  
    7     1.724e-02  
    8     3.062e-03  
    9     1.183e-03  
   10     2.028e-04  
   11     6.795e-05  
   12     1.096e-05  
   13     3.811e-06  
   14     1.327e-06  
   15     4.353e-07  Converged.
   ... Converged in 15 steps (norm: 4.3528e-07)
------------------------------------
  Starting TPA DIIS iterations ... 
------------------------------------ 
   It     Res. Norm  Remark
------------------------------------
                       Guess.
    1     7.633e-01  
    2     5.995e-01  
    3     2.397e-01  
    4     1.289e-01  
    5     2.891e-02  
    6     1.191e-02  
    7     2.276e-03  
    8     1.132e-03  
    9     3.383e-04  
   10     4.167e-05  
   11     1.136e-05  
   12     4.343e-06  
   13     3.431e-06  
   14     1.162e-06  
   15     3.997e-07  Converged.
   ... Converged in 15 steps (norm: 3.99737e-07)
------------------------------------
  Starting TPA DIIS iterations ... 
------------------------------------ 
   It     Res. Norm  Remark
------------------------------------
                       Guess.
    1     8.640e+00  
    2     1.428e+01  
    3     2.249e+00  
    4     7.827e-01  
    5     2.185e-01  
    6     9.652e-02  
    7     2.859e-02  
    8     4.918e-03  
    9     1.968e-03  
   10     3.435e-04  
   11     1.182e-04  
   12     1.983e-05  
   13     7.044e-06  
   14     2.832e-06  
   15     1.000e-06  
   16     5.983e-07  Converged.
   ... Converged in 16 steps (norm: 5.98347e-07)
------------------------------------
  Starting TPA DIIS iterations ... 
------------------------------------ 
   It     Res. Norm  Remark
------------------------------------
                       Guess.
    1     8.200e+00  
    2     1.355e+01  
    3     2.139e+00  
    4     7.687e-01  
    5     2.176e-01  
    6     9.665e-02  
    7     2.813e-02  
    8     4.961e-03  
    9     1.973e-03  
   10     3.412e-04  
   11     1.173e-04  
   12     1.959e-05  
   13     6.971e-06  
   14     2.876e-06  
   15     9.340e-07  Converged.
   ... Converged in 15 steps (norm: 9.33996e-07)
------------------------------------
  Starting TPA DIIS iterations ... 
------------------------------------ 
   It     Res. Norm  Remark
------------------------------------
                       Guess.
    1     8.135e-01  
    2     6.930e-01  
    3     3.011e-01  
    4     2.168e-01  
    5     4.023e-02  
    6     1.815e-02  
    7     3.948e-03  
    8     1.659e-03  
    9     5.374e-04  
   10     5.242e-05  
   11     1.911e-05  
   12     8.067e-06  
   13     7.670e-06  
   14     2.540e-06  
   15     9.438e-07  Converged.
   ... Converged in 15 steps (norm: 9.43831e-07)
------------------------------------
  Starting TPA DIIS iterations ... 
------------------------------------ 
   It     Res. Norm  Remark
------------------------------------
                       Guess.
    1     1.049e+01  
    2     1.843e+01  
    3     2.739e+00  
    4     1.062e+00  
    5     3.005e-01  
    6     1.355e-01  
    7     3.952e-02  
    8     6.761e-03  
    9     2.763e-03  
   10     4.826e-04  
   11     1.663e-04  
   12     2.891e-05  
   13     1.030e-05  
   14     4.828e-06  
   15     1.692e-06  
   16     1.179e-06  
   17     2.663e-07  Converged.
   ... Converged in 17 steps (norm: 2.66256e-07)
------------------------------------
  Starting TPA DIIS iterations ... 
------------------------------------ 
   It     Res. Norm  Remark
------------------------------------
                       Guess.
    1     9.950e+00  
    2     1.748e+01  
    3     2.604e+00  
    4     1.040e+00  
    5     2.994e-01  
    6     1.358e-01  
    7     3.889e-02  
    8     6.825e-03  
    9     2.769e-03  
   10     4.792e-04  
   11     1.648e-04  
   12     2.870e-05  
   13     1.013e-05  
   14     4.964e-06  
   15     1.642e-06  
   16     1.319e-06  
   17     3.831e-07  Converged.
   ... Converged in 17 steps (norm: 3.83147e-07)
------------------------------------
  Starting TPA DIIS iterations ... 
------------------------------------ 
   It     Res. Norm  Remark
------------------------------------
                       Guess.
    1     8.476e-01  
    2     7.648e-01  
    3     3.510e-01  
    4     2.997e-01  
    5     5.111e-02  
    6     2.399e-02  
    7     5.668e-03  
    8     1.883e-03  
    9     6.935e-04  
   10     7.228e-05  
   11     2.741e-05  
   12     1.184e-05  
   13     1.250e-05  
   14     4.211e-06  
   15     1.819e-06  
   16     1.138e-06  
   17     4.914e-07  Converged.
   ... Converged in 17 steps (norm: 4.91432e-07)
------------------------------------
  Starting TPA DIIS iterations ... 
------------------------------------ 
   It     Res. Norm  Remark
------------------------------------
                       Guess.
    1     1.142e+01  
    2     2.063e+01  
    3     2.983e+00  
    4     1.211e+00  
    5     3.448e-01  
    6     1.568e-01  
    7     4.541e-02  
    8     7.753e-03  
    9     3.196e-03  
   10     5.580e-04  
   11     1.914e-04  
   12     3.406e-05  
   13     1.213e-05  
   14     6.101e-06  
   15     2.155e-06  
   16     1.582e-06  
   17     3.530e-07  Converged.
   ... Converged in 17 steps (norm: 3.53048e-07)
------------------------------------
  Starting TPA DIIS iterations ... 
------------------------------------ 
   It     Res. Norm  Remark
------------------------------------
                       Guess.
    1     1.084e+01  
    2     1.956e+01  
    3     2.836e+00  
    4     1.185e+00  
    5     3.435e-01  
    6     1.573e-01  
    7     4.470e-02  
    8     7.828e-03  
    9     3.202e-03  
   10     5.539e-04  
   11     1.898e-04  
   12     3.391e-05  
   13     1.190e-05  
   14     6.305e-06  
   15     2.148e-06  
   16     1.778e-06  
   17     5.165e-07  Converged.
   ... Converged in 17 steps (norm: 5.16468e-07)
------------------------------------
  Starting TPA DIIS iterations ... 
------------------------------------ 
   It     Res. Norm  Remark
------------------------------------
                       Guess.
    1     8.624e-01  
    2     7.986e-01  
    3     3.751e-01  
    4     3.409e-01  
    5     5.686e-02  
    6     2.691e-02  
    7     6.594e-03  
    8     1.944e-03  
    9     7.684e-04  
   10     8.388e-05  
   11     3.209e-05  
   12     1.392e-05  
   13     1.534e-05  
   14     5.225e-06  
   15     2.433e-06  
   16     1.486e-06  
   17     6.786e-07  Converged.
   ... Converged in 17 steps (norm: 6.78589e-07)
------------------------------------
  Starting TPA DIIS iterations ... 
------------------------------------ 
   It     Res. Norm  Remark
------------------------------------
                       Guess.
    1     1.237e+01  
    2     2.291e+01  
    3     3.227e+00  
    4     1.366e+00  
    5     3.912e-01  
    6     1.793e-01  
    7     5.160e-02  
    8     8.791e-03  
    9     3.653e-03  
   10     6.370e-04  
   11     2.174e-04  
   12     3.967e-05  
   13     1.415e-05  
   14     7.569e-06  
   15     2.720e-06  
   16     2.070e-06  
   17     4.665e-07  Converged.
   ... Converged in 17 steps (norm: 4.66484e-07)
------------------------------------
  Starting TPA DIIS iterations ... 
------------------------------------ 
   It     Res. Norm  Remark
------------------------------------
                       Guess.
    1     1.174e+01  
    2     2.173e+01  
    3     3.067e+00  
    4     1.335e+00  
    5     3.898e-01  
    6     1.800e-01  
    7     5.078e-02  
    8     8.878e-03  
    9     3.660e-03  
   10     6.322e-04  
   11     2.157e-04  
   12     3.961e-05  
   13     1.383e-05  
   14     7.858e-06  
   15     2.783e-06  
   16     2.335e-06  
   17     6.769e-07  Converged.
   ... Converged in 17 steps (norm: 6.76923e-07)
------------------------------------
  Starting TPA DIIS iterations ... 
------------------------------------ 
   It     Res. Norm  Remark
------------------------------------
                       Guess.
    1     8.762e-01  
    2     8.313e-01  
    3     3.986e-01  
    4     3.808e-01  
    5     6.278e-02  
    6     2.977e-02  
    7     7.552e-03  
    8     1.988e-03  
    9     8.420e-04  
   10     9.596e-05  
   11     3.713e-05  
   12     1.617e-05  
   13     1.853e-05  
   14     6.366e-06  
   15     3.175e-06  
   16     1.886e-06  
   17     9.038e-07  Converged.
   ... Converged in 17 steps (norm: 9.03779e-07)
------------------------------------
  Two-photon absorbption ...  CPU 73.50 s  wall 18.39 s
  Transition density matrix of state singlet_A_1 printed to ASCII file 'State_singlet_A_1_Transition.txt'
  Transition density matrix of state singlet_A_2 printed to ASCII file 'State_singlet_A_2_Transition.txt'
  Transition density matrix of state singlet_A_3 printed to ASCII file 'State_singlet_A_3_Transition.txt'
  Transition density matrix of state singlet_A_4 printed to ASCII file 'State_singlet_A_4_Transition.txt'
  Transition density matrix of state singlet_A_5 printed to ASCII file 'State_singlet_A_5_Transition.txt'
  Transition density matrix of state singlet_A_6 printed to ASCII file 'State_singlet_A_6_Transition.txt'
  Transition density matrix of state singlet_A_7 printed to ASCII file 'State_singlet_A_7_Transition.txt'
  Transition density matrix of state singlet_A_8 printed to ASCII file 'State_singlet_A_8_Transition.txt'
  Transition density matrix of state singlet_A_9 printed to ASCII file 'State_singlet_A_9_Transition.txt'
  Transition density matrix of state singlet_A_10 printed to ASCII file 'State_singlet_A_10_Transition.txt'
  Transition properties ...  CPU 0.16 s  wall 0.30 s
  Difference density matrix of state singlet_A_1 printed to ASCII file 'State_singlet_A_1_Difference.txt'
  Total density matrix of state singlet_A_1 printed to ASCII file 'State_singlet_A_1_Total.txt'
  Difference density matrix of state singlet_A_2 printed to ASCII file 'State_singlet_A_2_Difference.txt'
  Total density matrix of state singlet_A_2 printed to ASCII file 'State_singlet_A_2_Total.txt'
  Difference density matrix of state singlet_A_3 printed to ASCII file 'State_singlet_A_3_Difference.txt'
  Total density matrix of state singlet_A_3 printed to ASCII file 'State_singlet_A_3_Total.txt'
  Difference density matrix of state singlet_A_4 printed to ASCII file 'State_singlet_A_4_Difference.txt'
  Total density matrix of state singlet_A_4 printed to ASCII file 'State_singlet_A_4_Total.txt'
  Difference density matrix of state singlet_A_5 printed to ASCII file 'State_singlet_A_5_Difference.txt'
  Total density matrix of state singlet_A_5 printed to ASCII file 'State_singlet_A_5_Total.txt'
  Difference density matrix of state singlet_A_6 printed to ASCII file 'State_singlet_A_6_Difference.txt'
  Total density matrix of state singlet_A_6 printed to ASCII file 'State_singlet_A_6_Total.txt'
  Difference density matrix of state singlet_A_7 printed to ASCII file 'State_singlet_A_7_Difference.txt'
  Total density matrix of state singlet_A_7 printed to ASCII file 'State_singlet_A_7_Total.txt'
  Difference density matrix of state singlet_A_8 printed to ASCII file 'State_singlet_A_8_Difference.txt'
  Total density matrix of state singlet_A_8 printed to ASCII file 'State_singlet_A_8_Total.txt'
  Difference density matrix of state singlet_A_9 printed to ASCII file 'State_singlet_A_9_Difference.txt'
  Total density matrix of state singlet_A_9 printed to ASCII file 'State_singlet_A_9_Total.txt'
  Difference density matrix of state singlet_A_10 printed to ASCII file 'State_singlet_A_10_Difference.txt'
  Total density matrix of state singlet_A_10 printed to ASCII file 'State_singlet_A_10_Total.txt'
  Properties ...  CPU 0.31 s  wall 0.57 s
  ISR TDMS ...  CPU 8.90 s  wall 3.16 s
  ISR transition properties ...  CPU 0.17 s  wall 0.08 s
  Sum-over-states TPA ...  CPU 0.00 s  wall 0.00 s

--------------------------------------------------------------------------------
                   State-averaged natural transition orbitals
--------------------------------------------------------------------------------
--------------------------------------------------------------------------------
  SA-NTO decomposition ...  CPU 0.01 s  wall 0.02 s

--------------------------------------------------------------------------------
                             Excited State Summary
--------------------------------------------------------------------------------
--------------------------------------------------------------------------------

  Excited state 1 (singlet, A)                                     [converged]
  ----------------------------------------------------------------------------
  Term symbol:  2 (1) A                                     R^2 =  2.91726e-13

  Total energy:                                            -77.9985406641 a.u.
  Excitation energy:                                               8.737893 eV

  Osc. strength:                                                      0.445754
  Trans. dip. moment [a.u.]:           [   1.046671,   -0.993294,   -0.009133]
  <i|r^2|0> [a.u.]:                    [   6.169517,   -0.245821,   -0.000405]
  Two-photon absorption cross-section (SoS) [a.u.]:                   0.002189
  Two-photon absorption matrix (SoS) [a.u.]:
                                       |    0.003504   -0.006137   -0.000957 |
                                       |   -0.006137    0.008056   -0.000301 |
                                       |   -0.000957   -0.000301    0.011382 |
  Two-photon absorption cross-section [a.u.]:                         0.001336
  Two-photon absorption matrix [a.u.]:
                                       |   -0.009891   -0.007716    0.000807 |
                                       |   -0.007716   -0.002672    0.002134 |
                                       |    0.000807    0.002134    0.009782 |

  Dip. moment [a.u.]:                  [  -0.001229,    0.001146,    0.000368]
  Total dipole [Debye]:                                               0.004372
  <r^2> [a.u.]:                        [ 176.127512,   35.628667,   11.870039]
  Total <r^2> [a.u.]:                                               223.626217

  V1^2 = 0.9715, V2^2 = 0.0285

  Important amplitudes:
      occ i     occ j     vir a      vir b          v   
    -----------------------------------------------------
     8 (A) A              9 (A) A                 0.6811
     6 (A) A             14 (A) A                 0.0624
     4 (A) A             10 (A) A                -0.0609
     7 (A) A             16 (A) A                 0.0568
     5 (A) A             13 (A) A                 0.0513
     6 (A) A             23 (A) A                 0.0488
     8 (A) A             20 (A) A                 0.0350
     6 (A) A             19 (A) A                 0.0308
     3 (A) A             12 (A) A                 0.0281
     5 (A) A             22 (A) A                -0.0215
     7 (A) A             11 (A) A                 0.0213
     4 (A) A             24 (A) A                -0.0188
     3 (A) A             26 (A) A                 0.0185
     8 (A) A   8 (A) B   17 (A) A   20 (A) B     -0.0184
     8 (A) A   8 (A) B    9 (A) A   28 (A) B      0.0168
     6 (A) A             26 (A) A                -0.0163
     7 (A) A             21 (A) A                 0.0149
     3 (A) A             14 (A) A                -0.0139
     6 (A) A             12 (A) A                 0.0133
     3 (A) A   4 (A) B    9 (A) A    9 (A) B      0.0129
     3 (A) A             19 (A) A                -0.0119
     8 (A) A   8 (A) B   18 (A) A   19 (A) B      0.0113
     7 (A) A             32 (A) A                 0.0094
     7 (A) A             36 (A) A                 0.0086
     3 (A) A             23 (A) A                -0.0081
     8 (A) A   8 (A) B   25 (A) A   29 (A) B      0.0076
     6 (A) A             35 (A) A                 0.0069
     6 (A) A             40 (A) A                 0.0068
     3 (A) A   6 (A) B    9 (A) A   28 (A) B     -0.0065
     6 (A) A   8 (A) A   19 (A) A   28 (A) A     -0.0061
     5 (A) A   7 (A) B    9 (A) A    9 (A) B     -0.0060
     5 (A) A   8 (A) B   11 (A) A   20 (A) B     -0.0059
     7 (A) A   8 (A) B   13 (A) A   20 (A) B     -0.0059
     5 (A) A   8 (A) B   16 (A) A    9 (A) B     -0.0059
     5 (A) A   8 (A) B   11 (A) A    9 (A) B      0.0058
     3 (A) A   5 (A) B    9 (A) A   25 (A) B     -0.0058
     3 (A) A             40 (A) A                -0.0057
     7 (A) A   8 (A) B   22 (A) A   20 (A) B      0.0057
     6 (A) A   8 (A) A    9 (A) A   18 (A) A      0.0057
     8 (A) A   8 (A) B   19 (A) A   30 (A) B      0.0056
    -----------------------------------------------------

  Density matrix analysis:
  ------------------------
  NOs
    Occupation of frontier NOs:
       0.9494   1.0218
    Number of electrons: 16.000000
    Number of unpaired electrons: n_u =  2.31354, n_u,nl =  2.03268
    NO participation ratio (PR_NO):  2.864699
  
  
  Mulliken Population Analysis
  Atom      Charge (e)              h+              e-           Del q
  --------------------------------------------------------------------
   1 H        0.059237        0.020232       -0.012598        0.007634
   2 C       -0.116319        0.490986       -0.505945       -0.014959
   3 H        0.058478        0.020142       -0.012617        0.007525
   4 C       -0.117213        0.490639       -0.506260       -0.015621
   5 H        0.057689        0.020221       -0.012561        0.007660
   6 H        0.058128        0.020290       -0.012529        0.007761
  --------------------------------------------------------------------
  Sum:        0.000000        1.062511       -1.062511       -0.000000
  
  Multipole moment analysis of the density matrix
    Molecular charge:                      0.000000
    Number of electrons:                   16.000000
      Center of electronic charge [Ang]: [ -1.560536,  -0.065015,   0.001966]
    Total nuclear charge:                  16.000000
      Center of nuclear charge [Ang]:    [ -1.560576,  -0.064977,   0.001978]
    Dipole moment [D]:                     0.004372
      Cartesian components [D]:          [ -0.003123,   0.002912,   0.000936]
    RMS size of the density [Ang]:         1.214230
      Cartesian components [Ang]:        [  0.804533,   0.786980,   0.455788]
  
  Exciton analysis of the difference density matrix
    <r_h> [Ang]:                  [ -1.560126,  -0.065605,   0.001808]
    <r_e> [Ang]:                  [ -1.560310,  -0.065503,   0.001770]
    |<r_e - r_h>| [Ang]:            0.000214
    Hole size [Ang]:                1.285430
      Cartesian components [Ang]: [  0.728522,   0.712537,   0.783503]
    Electron size [Ang]:            1.463202
      Cartesian components [Ang]: [  0.854021,   0.830527,   0.849608]

  Transition density matrix analysis:
  -----------------------------------
  
  CT numbers (Mulliken)
    omega =     0.9535
    <Phe> =    -0.1606
  
  Exciton analysis of the transition density matrix
    Trans. dipole moment [D]:             1.833865
      Cartesian components [D]:         [  1.330186,  -1.262351,  -0.011607]
    <r_h> [Ang]:                        [ -1.559898,  -0.065884,   0.001831]
    <r_e> [Ang]:                        [ -1.560324,  -0.065465,   0.001749]
    |<r_e - r_h>| [Ang]:                  0.000603
    Hole size [Ang]:                      1.214174
      Cartesian components [Ang]:       [  0.649659,   0.636409,   0.804453]
    Electron size [Ang]:                  1.486019
      Cartesian components [Ang]:       [  0.864466,   0.839385,   0.869703]
    RMS electron-hole separation [Ang]:   1.936542
      Cartesian components [Ang]:       [  1.106583,   1.075055,   1.170438]
    Covariance(r_h, r_e) [Ang^2]:        -0.033862
    Correlation coefficient:             -0.018767
    Center-of-mass size [Ang]:            0.950624
      Cartesian components [Ang]:       [  0.527776,   0.515612,   0.599402]

  Decomposition into state-averaged NTOs
    H- 0 -> L+ 0: -0.6699 ( 89.7%)
    H- 2 -> L+ 5: -0.0837 (  1.4%)
                   omega =  95.3%
  ----------------------------------------------------------------------------


  Excited state 2 (singlet, A)                                     [converged]
  ----------------------------------------------------------------------------
  Term symbol:  3 (1) A                                     R^2 =  1.43130e-13

  Total energy:                                            -77.9867269444 a.u.
  Excitation energy:                                               9.059360 eV

  Osc. strength:                                                      0.000019
  Trans. dip. moment [a.u.]:           [  -0.005595,    0.005025,    0.005468]
  <i|r^2|0> [a.u.]:                    [   0.032212,    0.086241,   -0.150223]
  Two-photon absorption cross-section (SoS) [a.u.]:                   5.011169
  Two-photon absorption matrix (SoS) [a.u.]:
                                       |    0.053382    0.059345   -0.547451 |
                                       |    0.059345    0.065473   -0.559053 |
                                       |   -0.547451   -0.559053   -0.118851 |
  Two-photon absorption cross-section [a.u.]:                         0.073716
  Two-photon absorption matrix [a.u.]:
                                       |   -0.001907   -0.006874    0.065523 |
                                       |   -0.006874   -0.012511    0.068492 |
                                       |    0.065523    0.068492    0.014336 |

  Dip. moment [a.u.]:                  [  -0.019163,    0.005178,    0.000058]
  Total dipole [Debye]:                                               0.050454
  <r^2> [a.u.]:                        [ 174.417003,   33.991839,   13.172440]
  Total <r^2> [a.u.]:                                               221.581282

  V1^2 = 0.9542, V2^2 = 0.0458

  Important amplitudes:
      occ i     occ j     vir a      vir b          v   
    -----------------------------------------------------
     7 (A) A              9 (A) A                -0.6688
     8 (A) A             11 (A) A                -0.1499
     7 (A) A             20 (A) A                -0.0758
     5 (A) A   8 (A) B    9 (A) A    9 (A) B      0.0316
     8 (A) A             16 (A) A                 0.0275
     8 (A) A             21 (A) A                -0.0177
     5 (A) A             28 (A) A                -0.0150
     4 (A) A   7 (A) B    9 (A) A   19 (A) B      0.0135
     5 (A) A   7 (A) B    9 (A) A   16 (A) B     -0.0133
     8 (A) A             10 (A) A                -0.0109
     7 (A) A   8 (A) B   20 (A) A   17 (A) B      0.0105
     7 (A) A   8 (A) A    9 (A) A   28 (A) A      0.0098
     5 (A) A   8 (A) B    9 (A) A   20 (A) B      0.0095
     4 (A) A   6 (A) B    9 (A) A   16 (A) B      0.0091
     5 (A) A   6 (A) A    9 (A) A   23 (A) A     -0.0091
     5 (A) A   6 (A) A    9 (A) A   14 (A) A     -0.0089
     5 (A) A   6 (A) B    9 (A) A   19 (A) B     -0.0086
     8 (A) A   7 (A) B    9 (A) A   28 (A) B     -0.0085
     4 (A) A   5 (A) A    9 (A) A   10 (A) A     -0.0085
     6 (A) A   7 (A) B    9 (A) A   18 (A) B     -0.0083
     5 (A) A   6 (A) B    9 (A) A   23 (A) B     -0.0080
     3 (A) A   7 (A) B    9 (A) A   18 (A) B     -0.0079
     5 (A) A   7 (A) A    9 (A) A   16 (A) A     -0.0079
     4 (A) A   8 (A) B    9 (A) A   25 (A) B     -0.0077
     7 (A) A   8 (A) B   17 (A) A   20 (A) B      0.0074
     4 (A) A   7 (A) B   19 (A) A    9 (A) B      0.0074
     5 (A) A   5 (A) B    9 (A) A   13 (A) B     -0.0072
     7 (A) A   8 (A) B   19 (A) A   18 (A) B     -0.0072
     5 (A) A   8 (A) A    9 (A) A   20 (A) A      0.0069
     4 (A) A   5 (A) B    9 (A) A   18 (A) B      0.0067
     7 (A) A   7 (A) B   20 (A) A   22 (A) B     -0.0065
     7 (A) A   8 (A) B   17 (A) A    9 (A) B      0.0065
     5 (A) A   6 (A) B    9 (A) A   14 (A) B     -0.0063
     4 (A) A   7 (A) A    9 (A) A   19 (A) A      0.0061
     4 (A) A   5 (A) B   10 (A) A    9 (A) B      0.0061
     4 (A) A   7 (A) B    9 (A) A   14 (A) B     -0.0060
     5 (A) A   7 (A) B   11 (A) A   20 (A) B      0.0060
     5 (A) A             37 (A) A                 0.0059
     4 (A) A   8 (A) A    9 (A) A   25 (A) A     -0.0057
     6 (A) A   7 (A) A   19 (A) A   28 (A) A      0.0057
    -----------------------------------------------------

  Density matrix analysis:
  ------------------------
  NOs
    Occupation of frontier NOs:
       0.9567   1.0549
    Number of electrons: 16.000000
    Number of unpaired electrons: n_u =  2.35548, n_u,nl =  2.06363
    NO participation ratio (PR_NO):  3.034906
  
  
  Mulliken Population Analysis
  Atom      Charge (e)              h+              e-           Del q
  --------------------------------------------------------------------
   1 H        0.148111        0.123419       -0.026911        0.096507
   2 C       -0.301694        0.269860       -0.470193       -0.200334
   3 H        0.152046        0.124046       -0.022953        0.101093
   4 C       -0.301900        0.273881       -0.474189       -0.200308
   5 H        0.151166        0.127558       -0.026421        0.101137
   6 H        0.152271        0.124709       -0.022805        0.101904
  --------------------------------------------------------------------
  Sum:        0.000000        1.043473       -1.043473       -0.000000
  
  Multipole moment analysis of the density matrix
    Molecular charge:                      0.000000
    Number of electrons:                   16.000000
      Center of electronic charge [Ang]: [ -1.559942,  -0.065149,   0.001976]
    Total nuclear charge:                  16.000000
      Center of nuclear charge [Ang]:    [ -1.560576,  -0.064977,   0.001978]
    Dipole moment [D]:                     0.050454
      Cartesian components [D]:          [ -0.048707,   0.013160,   0.000148]
    RMS size of the density [Ang]:         1.200166
      Cartesian components [Ang]:        [  0.786885,   0.768553,   0.480143]
  
  Exciton analysis of the difference density matrix
    <r_h> [Ang]:                  [ -1.565426,  -0.057087,   0.002252]
    <r_e> [Ang]:                  [ -1.556519,  -0.059027,   0.002371]
    |<r_e - r_h>| [Ang]:            0.009117
    Hole size [Ang]:                1.486207
      Cartesian components [Ang]: [  1.004262,   0.996572,   0.455095]
    Electron size [Ang]:            1.478420
      Cartesian components [Ang]: [  0.883250,   0.859676,   0.816426]

  Transition density matrix analysis:
  -----------------------------------
  
  CT numbers (Mulliken)
    omega =     0.9218
    <Phe> =    -0.0121
  
  Exciton analysis of the transition density matrix
    Trans. dipole moment [D]:             0.011816
      Cartesian components [D]:         [ -0.007110,   0.006386,   0.006949]
    <r_h> [Ang]:                        [ -1.566611,  -0.056007,   0.002298]
    <r_e> [Ang]:                        [ -1.555310,  -0.059622,   0.002349]
    |<r_e - r_h>| [Ang]:                  0.011865
    Hole size [Ang]:                      1.514530
      Cartesian components [Ang]:       [  1.027222,   1.020211,   0.444731]
    Electron size [Ang]:                  1.475513
      Cartesian components [Ang]:       [  0.873817,   0.849218,   0.832113]
    RMS electron-hole separation [Ang]:   2.094736
      Cartesian components [Ang]:       [  1.332757,   1.312591,   0.942754]
    Covariance(r_h, r_e) [Ang^2]:         0.041581
    Correlation coefficient:              0.018607
    Center-of-mass size [Ang]:            1.067017
      Cartesian components [Ang]:       [  0.682160,   0.671030,   0.472125]

  Decomposition into state-averaged NTOs
    H- 1 -> L+ 0:  0.6611 ( 87.4%)
    H- 0 -> L+ 2:  0.1498 (  4.5%)
                   omega =  92.2%
  ----------------------------------------------------------------------------


  Excited state 3 (singlet, A)                                     [converged]
  ----------------------------------------------------------------------------
  Term symbol:  4 (1) A                                     R^2 =  2.16222e-13

  Total energy:                                            -77.9829701878 a.u.
  Excitation energy:                                               9.161587 eV

  Osc. strength:                                                      0.024924
  Trans. dip. moment [a.u.]:           [  -0.014835,   -0.020538,    0.332264]
  <i|r^2|0> [a.u.]:                    [  -0.091042,   -0.003205,   -0.000455]
  Two-photon absorption cross-section (SoS) [a.u.]:                   0.005266
  Two-photon absorption matrix (SoS) [a.u.]:
                                       |   -0.018838    0.000089   -0.006529 |
                                       |    0.000089    0.020692   -0.014451 |
                                       |   -0.006529   -0.014451   -0.005037 |
  Two-photon absorption cross-section [a.u.]:                         0.006627
  Two-photon absorption matrix [a.u.]:
                                       |   -0.014857    0.001014   -0.002890 |
                                       |    0.001014    0.015658   -0.023889 |
                                       |   -0.002890   -0.023889   -0.004785 |

  Dip. moment [a.u.]:                  [  -0.028103,    0.002702,   -0.001548]
  Total dipole [Debye]:                                               0.071868
  <r^2> [a.u.]:                        [ 180.693597,   40.567785,   11.026485]
  Total <r^2> [a.u.]:                                               232.287867

  V1^2 = 0.9587, V2^2 = 0.0413

  Important amplitudes:
      occ i     occ j     vir a      vir b          v   
    -----------------------------------------------------
     8 (A) A             10 (A) A                -0.6890
     8 (A) A             24 (A) A                -0.0507
     8 (A) A             18 (A) A                 0.0313
     4 (A) A              9 (A) A                 0.0239
     8 (A) A   8 (A) B    9 (A) A   12 (A) B     -0.0219
     8 (A) A             15 (A) A                -0.0173
     8 (A) A   8 (A) B   10 (A) A   17 (A) B     -0.0173
     5 (A) A   8 (A) B   11 (A) A   10 (A) B     -0.0165
     7 (A) A   8 (A) B   13 (A) A   10 (A) B     -0.0141
     7 (A) A              9 (A) A                 0.0111
     4 (A) A   8 (A) B   12 (A) A   10 (A) B      0.0111
     6 (A) A   8 (A) A   10 (A) A   15 (A) A     -0.0109
     7 (A) A   8 (A) B   22 (A) A   10 (A) B      0.0108
     6 (A) A   8 (A) B   15 (A) A   10 (A) B      0.0107
     4 (A) A   8 (A) A   10 (A) A   12 (A) A     -0.0106
     7 (A) A   8 (A) A   10 (A) A   22 (A) A     -0.0099
     7 (A) A   8 (A) A   10 (A) A   13 (A) A      0.0097
     5 (A) A   8 (A) B   21 (A) A   10 (A) B     -0.0094
     5 (A) A   8 (A) A   10 (A) A   11 (A) A      0.0094
     6 (A) A   8 (A) A   10 (A) A   18 (A) A     -0.0088
     6 (A) A   8 (A) B   10 (A) A   10 (A) B     -0.0087
     7 (A) A   8 (A) A   12 (A) A   16 (A) A     -0.0081
     3 (A) A   4 (A) B   10 (A) A    9 (A) B     -0.0079
     5 (A) A   8 (A) A   10 (A) A   21 (A) A      0.0079
     4 (A) A   8 (A) B   19 (A) A   10 (A) B     -0.0075
     8 (A) A   8 (A) B    9 (A) A   23 (A) B     -0.0075
     8 (A) A   8 (A) B   10 (A) A   28 (A) B     -0.0073
     3 (A) A   8 (A) B   10 (A) A   10 (A) B     -0.0072
     5 (A) A   8 (A) B   10 (A) A   11 (A) B     -0.0072
     3 (A) A   8 (A) A   10 (A) A   24 (A) A      0.0071
     7 (A) A   8 (A) B   16 (A) A   12 (A) B      0.0070
     3 (A) A   8 (A) B   10 (A) A   18 (A) B      0.0069
     8 (A) A   8 (A) B    9 (A) A   19 (A) B      0.0068
     6 (A) A   8 (A) B   18 (A) A   10 (A) B      0.0067
     3 (A) A   6 (A) B   10 (A) A   28 (A) B      0.0062
     7 (A) A   8 (A) B   12 (A) A   11 (A) B     -0.0058
     6 (A) A             28 (A) A                -0.0057
     3 (A) A   5 (A) B   10 (A) A   25 (A) B      0.0056
     5 (A) A   8 (A) A   10 (A) A   16 (A) A     -0.0056
     3 (A) A   8 (A) A   10 (A) A   18 (A) A      0.0056
    -----------------------------------------------------

  Density matrix analysis:
  ------------------------
  NOs
    Occupation of frontier NOs:
       0.9817   0.9847
    Number of electrons: 16.000000
    Number of unpaired electrons: n_u =  2.28588, n_u,nl =  2.02454
    NO participation ratio (PR_NO):  2.693398
  
  
  Mulliken Population Analysis
  Atom      Charge (e)              h+              e-           Del q
  --------------------------------------------------------------------
   1 H       -0.166024        0.053615       -0.271243       -0.217628
   2 C        0.325784        0.539661       -0.112518        0.427144
   3 H       -0.163293        0.053846       -0.268092       -0.214246
   4 C        0.324267        0.536105       -0.110246        0.425859
   5 H       -0.162572        0.053797       -0.266398       -0.212601
   6 H       -0.158161        0.054148       -0.262676       -0.208528
  --------------------------------------------------------------------
  Sum:        0.000000        1.291172       -1.291172       -0.000000
  
  Multipole moment analysis of the density matrix
    Molecular charge:                      0.000000
    Number of electrons:                   16.000000
      Center of electronic charge [Ang]: [ -1.559647,  -0.065067,   0.002029]
    Total nuclear charge:                  16.000000
      Center of nuclear charge [Ang]:    [ -1.560576,  -0.064977,   0.001978]
    Dipole moment [D]:                     0.071868
      Cartesian components [D]:          [ -0.071431,   0.006867,  -0.003936]
    RMS size of the density [Ang]:         1.276212
      Cartesian components [Ang]:        [  0.854378,   0.840104,   0.439294]
  
  Exciton analysis of the difference density matrix
    <r_h> [Ang]:                  [ -1.559302,  -0.066313,   0.001870]
    <r_e> [Ang]:                  [ -1.548440,  -0.066867,   0.002624]
    |<r_e - r_h>| [Ang]:            0.010903
    Hole size [Ang]:                1.410052
      Cartesian components [Ang]: [  0.833949,   0.819522,   0.788135]
    Electron size [Ang]:            2.074371
      Cartesian components [Ang]: [  1.372380,   1.375699,   0.725977]

  Transition density matrix analysis:
  -----------------------------------
  
  CT numbers (Mulliken)
    omega =     0.9259
    <Phe> =    -0.0109
  
  Exciton analysis of the transition density matrix
    Trans. dipole moment [D]:             0.423491
      Cartesian components [D]:         [ -0.018853,  -0.026102,   0.422265]
    <r_h> [Ang]:                        [ -1.560257,  -0.066657,   0.001726]
    <r_e> [Ang]:                        [ -1.544312,  -0.067712,   0.002841]
    |<r_e - r_h>| [Ang]:                  0.016019
    Hole size [Ang]:                      1.213013
      Cartesian components [Ang]:       [  0.636509,   0.623684,   0.822968]
    Electron size [Ang]:                  2.294051
      Cartesian components [Ang]:       [  1.516607,   1.522697,   0.802476]
    RMS electron-hole separation [Ang]:   2.585146
      Cartesian components [Ang]:       [  1.637338,   1.638483,   1.147814]
    Covariance(r_h, r_e) [Ang^2]:         0.025675
    Correlation coefficient:              0.009226
    Center-of-mass size [Ang]:            1.302442
      Cartesian components [Ang]:       [  0.826114,   0.826219,   0.575546]

  Decomposition into state-averaged NTOs
    H- 0 -> L+ 1:  0.6797 ( 92.4%)
                   omega =  92.6%
  ----------------------------------------------------------------------------


  Excited state 4 (singlet, A)                                     [converged]
  ----------------------------------------------------------------------------
  Term symbol:  5 (1) A                                     R^2 =  6.11248e-13

  Total energy:                                            -77.9584178389 a.u.
  Excitation energy:                                               9.829690 eV

  Osc. strength:                                                      0.000004
  Trans. dip. moment [a.u.]:           [   0.002250,   -0.001849,   -0.003101]
  <i|r^2|0> [a.u.]:                    [   0.030288,    0.018627,   -0.036077]
  Two-photon absorption cross-section (SoS) [a.u.]:                 148.932350
  Two-photon absorption matrix (SoS) [a.u.]:
                                       |    0.290029    0.323207   -2.993071 |
                                       |    0.323207    0.357447   -3.039443 |
                                       |   -2.993071   -3.039443   -0.647221 |
  Two-photon absorption cross-section [a.u.]:                        91.769699
  Two-photon absorption matrix [a.u.]:
                                       |    0.231036    0.253929   -2.350136 |
                                       |    0.253929    0.277276   -2.385248 |
                                       |   -2.350136   -2.385248   -0.508045 |

  Dip. moment [a.u.]:                  [   0.013309,    0.029415,    0.001972]
  Total dipole [Debye]:                                               0.082215
  <r^2> [a.u.]:                        [ 181.381764,   40.515250,   10.772027]
  Total <r^2> [a.u.]:                                               232.669041

  V1^2 = 0.9635, V2^2 = 0.0365

  Important amplitudes:
      occ i     occ j     vir a      vir b          v   
    -----------------------------------------------------
     8 (A) A             11 (A) A                -0.6694
     7 (A) A              9 (A) A                 0.1519
     8 (A) A             21 (A) A                -0.0780
     8 (A) A             16 (A) A                 0.0643
     8 (A) A   8 (A) B    9 (A) A   13 (A) B     -0.0167
     5 (A) A   8 (A) B   11 (A) A   11 (A) B     -0.0155
     8 (A) A   8 (A) B   11 (A) A   17 (A) B     -0.0140
     7 (A) A             20 (A) A                 0.0139
     7 (A) A   8 (A) B   13 (A) A   11 (A) B     -0.0127
     5 (A) A   8 (A) A   11 (A) A   21 (A) A      0.0110
     4 (A) A   8 (A) B   12 (A) A   11 (A) B      0.0110
     8 (A) A   8 (A) B    9 (A) A   22 (A) B      0.0107
     7 (A) A   8 (A) A   11 (A) A   22 (A) A     -0.0097
     6 (A) A   8 (A) B   10 (A) A   11 (A) B     -0.0090
     6 (A) A   8 (A) B   15 (A) A   11 (A) B      0.0090
     7 (A) A   8 (A) B   22 (A) A   11 (A) B      0.0089
     8 (A) A             12 (A) A                -0.0088
     3 (A) A   4 (A) B   11 (A) A    9 (A) B     -0.0083
     3 (A) A   8 (A) B   11 (A) A   18 (A) B      0.0081
     6 (A) A   8 (A) A   11 (A) A   15 (A) A     -0.0080
     7 (A) A   8 (A) A   13 (A) A   16 (A) A     -0.0078
     7 (A) A   8 (A) A   11 (A) A   13 (A) A      0.0077
     5 (A) A   8 (A) B   21 (A) A   11 (A) B     -0.0071
     4 (A) A   8 (A) B   19 (A) A   11 (A) B     -0.0070
     5 (A) A   8 (A) B    9 (A) A    9 (A) B     -0.0068
     4 (A) A   8 (A) A   11 (A) A   12 (A) A     -0.0063
     6 (A) A   8 (A) A   11 (A) A   18 (A) A     -0.0063
     3 (A) A   6 (A) B   11 (A) A   28 (A) B      0.0060
     6 (A) A   8 (A) B   18 (A) A   11 (A) B      0.0060
     7 (A) A   8 (A) B   16 (A) A   13 (A) B      0.0057
     3 (A) A   8 (A) A   11 (A) A   18 (A) A      0.0056
     5 (A) A   8 (A) B   10 (A) A   10 (A) B     -0.0056
     3 (A) A   8 (A) B   11 (A) A   30 (A) B      0.0055
     3 (A) A   5 (A) B   11 (A) A   25 (A) B      0.0054
     6 (A) A   8 (A) B   11 (A) A   10 (A) B     -0.0054
     7 (A) A   8 (A) B   12 (A) A   10 (A) B     -0.0054
     6 (A) A              9 (A) A                 0.0054
     8 (A) A   8 (A) B   20 (A) A   22 (A) B      0.0053
     3 (A) A   8 (A) A   11 (A) A   24 (A) A      0.0053
     5 (A) A   8 (A) A   11 (A) A   16 (A) A     -0.0049
    -----------------------------------------------------

  Density matrix analysis:
  ------------------------
  NOs
    Occupation of frontier NOs:
       0.9397   1.0288
    Number of electrons: 16.000000
    Number of unpaired electrons: n_u =  2.31940, n_u,nl =  2.04982
    NO participation ratio (PR_NO):  2.920566
  
  
  Mulliken Population Analysis
  Atom      Charge (e)              h+              e-           Del q
  --------------------------------------------------------------------
   1 H       -0.140829        0.046057       -0.238489       -0.192432
   2 C        0.274611        0.496868       -0.120896        0.375971
   3 H       -0.134924        0.046917       -0.232794       -0.185877
   4 C        0.272335        0.495973       -0.122046        0.373927
   5 H       -0.124358        0.047055       -0.221442       -0.174387
   6 H       -0.146835        0.046316       -0.243518       -0.197202
  --------------------------------------------------------------------
  Sum:        0.000000        1.179185       -1.179185       -0.000000
  
  Multipole moment analysis of the density matrix
    Molecular charge:                      0.000000
    Number of electrons:                   16.000000
      Center of electronic charge [Ang]: [ -1.561016,  -0.065950,   0.001913]
    Total nuclear charge:                  16.000000
      Center of nuclear charge [Ang]:    [ -1.560576,  -0.064977,   0.001978]
    Dipole moment [D]:                     0.082215
      Cartesian components [D]:          [  0.033829,   0.074764,   0.005011]
    RMS size of the density [Ang]:         1.277105
      Cartesian components [Ang]:        [  0.858913,   0.839488,   0.434196]
  
  Exciton analysis of the difference density matrix
    <r_h> [Ang]:                  [ -1.560843,  -0.066034,   0.001801]
    <r_e> [Ang]:                  [ -1.567533,  -0.078628,   0.001047]
    |<r_e - r_h>| [Ang]:            0.014280
    Hole size [Ang]:                1.395285
      Cartesian components [Ang]: [  0.819420,   0.806609,   0.790412]
    Electron size [Ang]:            2.124221
      Cartesian components [Ang]: [  1.441442,   1.404736,   0.679173]

  Transition density matrix analysis:
  -----------------------------------
  
  CT numbers (Mulliken)
    omega =     0.9298
    <Phe> =    -0.0135
  
  Exciton analysis of the transition density matrix
    Trans. dipole moment [D]:             0.005407
      Cartesian components [D]:         [  0.002859,  -0.002350,  -0.003941]
    <r_h> [Ang]:                        [ -1.560470,  -0.065213,   0.001814]
    <r_e> [Ang]:                        [ -1.569043,  -0.081011,   0.000876]
    |<r_e - r_h>| [Ang]:                  0.017999
    Hole size [Ang]:                      1.228335
      Cartesian components [Ang]:       [  0.659309,   0.649885,   0.807322]
    Electron size [Ang]:                  2.261916
      Cartesian components [Ang]:       [  1.535490,   1.496022,   0.721425]
    RMS electron-hole separation [Ang]:   2.563314
      Cartesian components [Ang]:       [  1.662513,   1.623397,   1.082227]
    Covariance(r_h, r_e) [Ang^2]:         0.027408
    Correlation coefficient:              0.009865
    Center-of-mass size [Ang]:            1.292274
      Cartesian components [Ang]:       [  0.839785,   0.819405,   0.541579]

  Decomposition into state-averaged NTOs
    H- 0 -> L+ 2:  0.6646 ( 88.3%)
    H- 1 -> L+ 0: -0.1499 (  4.5%)
                   omega =  93.0%
  ----------------------------------------------------------------------------


  Excited state 5 (singlet, A)                                     [converged]
  ----------------------------------------------------------------------------
  Term symbol:  6 (1) A                                     R^2 =  1.91285e-13

  Total energy:                                            -77.9446290289 a.u.
  Excitation energy:                                              10.204903 eV

  Osc. strength:                                                      0.000000
  Trans. dip. moment [a.u.]:           [   0.000259,    0.000284,    0.000077]
  <i|r^2|0> [a.u.]:                    [   0.089272,   -0.104707,    0.017347]
  Two-photon absorption cross-section (SoS) [a.u.]:                 166.667732
  Two-photon absorption matrix (SoS) [a.u.]:
                                       |    0.310715    0.039209   -3.242228 |
                                       |    0.039209   -0.375340    3.193501 |
                                       |   -3.242228    3.193501    0.073531 |
  Two-photon absorption cross-section [a.u.]:                        71.512612
  Two-photon absorption matrix [a.u.]:
                                       |    0.205495    0.026395   -2.113739 |
                                       |    0.026395   -0.243909    2.101991 |
                                       |   -2.113739    2.101991    0.049611 |

  Dip. moment [a.u.]:                  [   0.022510,   -0.019664,    0.000043]
  Total dipole [Debye]:                                               0.075971
  <r^2> [a.u.]:                        [ 178.366837,   38.068088,   11.982880]
[...]
    16   -1.445103736362e-03
    17   -1.765050811129e-03
    18    1.239972649618e-04
    19   -3.453548226379e-03
    20    1.121553589797e-02
    21    9.294829034432e-01
    22   -4.860731709146e-04
    23    1.397320011700e-02
    24    8.066268327494e-04
    25    7.008179690320e-02
    26   -5.219609588935e-02
    27   -1.393004321061e+00
    28    9.692086751430e-02
    29   -9.345755996398e-02
    30   -1.195910079829e-03
    31    3.818050461740e-01
    32   -3.666048971717e-01
    33   -4.629004945035e-03
    34    1.556177153311e-02
    35   -1.453041747426e-03
    36   -1.786472295817e-03
    37   -4.142787245015e-05
    38   -3.036682315102e-03
    39    1.031781741294e-02
    40    9.366885327839e-01
    41    2.356516730655e-04
    42   -1.396821304764e-02
    43   -8.361108085856e-04
    44    9.562880421069e-03
    45    9.304519245985e-01
    46    1.397641933446e-02
    47    3.243414867306e-04
    48    6.729244074971e-04
Sym=X
Ene= 0.232760
Spin=Alpha
Occup=0
     1    2.611131406943e-02
     2    1.224603714353e+00
     3   -1.416159618559e-02
     4   -3.777758901218e-03
     5   -8.789825993425e-04
     6    2.255395515082e-03
     7   -2.544249013950e-03
     8   -3.213614502551e-02
     9   -1.539757045498e-01
    10   -1.598362271306e-01
    11   -1.657529135929e-02
    12   -5.525908556943e-01
    13   -5.692121252495e-01
    14   -5.912593113207e-02
    15    4.055391781837e-04
    16   -3.846789500714e-05
    17   -3.814348894139e-05
    18   -2.030420103141e-04
    19   -2.693125505687e-04
    20   -2.470957671984e-02
    21   -1.174986667532e+00
    22   -2.618208909827e-03
    23   -1.372931221369e-02
    24   -9.318788901554e-04
    25   -2.806728448496e-03
    26    2.924127922309e-03
    27    4.768921448428e-02
    28   -1.543257878219e-01
    29   -1.580744133298e-01
    30   -1.685041187560e-02
    31   -5.464113631580e-01
    32   -5.523095555909e-01
    33   -5.933188311715e-02
    34   -5.675160697519e-04
    35    8.170522381198e-05
    36    1.626265387023e-05
    37    5.223780570527e-04
    38    3.570728964299e-04
    39    2.497734137130e-02
    40    1.151659321948e+00
    41   -2.481073830849e-03
    42   -1.354558160672e-02
    43   -9.359691018373e-04
    44   -2.605368802321e-02
    45   -1.220800052394e+00
    46   -1.432043203589e-02
    47   -3.730714502903e-03
    48   -9.030797663541e-04
Sym=X
Ene= 0.239540
Spin=Alpha
Occup=0
     1   -1.639890661247e-02
     2   -1.047102010062e+00
     3    1.636640684525e-02
     4    9.048100180641e-03
     5    1.308352911090e-03
     6   -8.654512642234e-02
     7    7.994217764329e-02
     8    1.591450912576e+00
     9    5.369307754387e-02
    10   -5.980888263382e-02
    11   -9.730857249754e-04
    12    2.064489113345e-01
    13   -2.320785979955e-01
    14   -3.770773849430e-03
    15   -2.244269421017e-02
    16    2.583728580395e-03
    17    2.971060280871e-03
    18   -8.406232604938e-04
    19    1.297878012656e-02
    20   -1.745321601320e-02
    21   -1.123318966964e+00
    22   -8.306337497385e-03
    23   -1.782765244539e-02
    24   -1.445613488069e-03
    25    8.656632572073e-02
    26   -7.916839103980e-02
    27   -1.602983011585e+00
    28    5.465417485935e-02
    29   -6.051640154998e-02
    30   -1.216559754626e-03
    31    2.162868960984e-01
    32   -2.343257794098e-01
    33   -4.481998869151e-03
    34    2.268469637685e-02
    35   -2.601706297424e-03
    36   -3.015350485614e-03
    37    5.937099472452e-04
    38   -1.289075605712e-02
    39    1.655807165491e-02
    40    1.123944780262e+00
    41   -8.634170726379e-03
    42   -1.781311762914e-02
    43   -1.483705440682e-03
    44    1.581805840265e-02
    45    1.060065847382e+00
    46    1.663510954195e-02
    47    9.283733816217e-03
    48    1.325468568375e-03
Sym=X
Ene= 0.303205
Spin=Alpha
Occup=0
     1    2.046476778679e-02
     2   -1.686768398826e+00
     3    2.289422807903e-02
     4   -4.913820775086e-05
     5    1.077976720924e-03
     6   -1.196345699614e-04
     7   -1.823032587202e-04
     8    4.723473295067e-03
     9    1.331733354131e-01
    10    1.393064706371e-01
    11    1.445301493511e-02
    12    1.137693451476e+00
    13    1.200337585595e+00
    14    1.246253503578e-01
    15   -2.735377915361e-05
    16    1.632946199397e-03
    17   -1.831938587746e-03
    18    3.241904089866e-02
    19    1.671605489704e-03
    20   -2.060951581336e-02
    21    1.685209715626e+00
    22   -1.274915193736e-03
    23    2.271994677803e-02
    24    1.273399818477e-03
    25    2.194376439612e-04
    26   -1.028870835679e-04
    27   -5.698475179983e-03
    28   -1.346298985841e-01
    29   -1.410941680023e-01
    30   -1.484152333028e-02
    31   -1.143667420202e+00
    32   -1.196377904611e+00
    33   -1.253943378320e-01
    34    1.426052657408e-04
    35    1.573247985378e-03
    36   -1.894687851372e-03
    37    3.221144530454e-02
    38    1.573096128458e-03
    39   -1.947999994519e-02
    40    1.699932375118e+00
    41    1.541828444948e-03
    42   -2.291228405967e-02
    43   -1.299839247404e-03
    44    1.982257241039e-02
    45   -1.697940855641e+00
    46   -2.288018051529e-02
    47    3.974607953593e-04
    48   -1.059995864162e-03
Sym=X
Ene= 0.461471
Spin=Alpha
Occup=0
     1   -1.219316356683e-01
     2   -6.997375995803e-01
     3   -1.587184146809e-02
     4   -1.014450026444e-02
     5   -1.339552687053e-03
     6    6.047412341392e-02
     7    1.844942769618e-02
     8   -3.585861541131e+00
     9    1.026707143018e-01
    10   -9.749004786943e-02
    11   -1.020819278940e-03
    12    2.420878182945e+00
    13   -2.297827873024e+00
    14   -2.119438668329e-02
    15    5.441993396633e-02
    16   -3.435861385980e-03
    17   -4.733990156749e-03
    18   -7.834891031592e-04
    19    1.731917215513e-02
    20   -1.232383730253e-01
    21   -7.009466028916e-01
    22    9.110327456292e-03
    23    1.654957635890e-02
    24    1.400683670008e-03
    25   -6.072344481081e-02
    26   -1.625444485854e-02
    27    3.582482281155e+00
    28    1.059153531503e-01
    29   -1.013690717232e-01
    30   -1.238692214062e-03
    31    2.413344932002e+00
    32   -2.290007689168e+00
    33   -2.173087433372e-02
    34   -5.240597348817e-02
    35    3.238048029248e-03
    36    4.470416510574e-03
    37    1.024710326090e-03
    38   -1.937848349286e-02
    39    1.127700311936e-01
    40    7.093479954344e-01
    41    8.427535586759e-03
    42    1.612786877734e-02
    43    1.361908519884e-03
    44    1.097868479498e-01
    45    7.157413552852e-01
    46   -1.558279231484e-02
    47   -9.722574483932e-03
    48   -1.329883245674e-03
Sym=X
Ene= 0.577035
Spin=Alpha
Occup=0
     1    2.548654086156e-01
     2    2.101875327759e-02
     3   -1.754862316792e-02
     4    2.529259007542e-02
     5    6.717340604791e-04
     6   -3.680644868590e-03
     7   -1.549807250711e-01
     8   -4.931409420739e-01
     9    3.004367118180e-01
    10   -2.862228030693e-01
    11   -2.748088385597e-03
    12   -6.998822211246e-01
    13    6.700161525960e-01
    14    6.868137093001e-03
    15   -6.845305027762e-03
    16    4.026133810259e-03
    17    3.772788356439e-03
    18   -3.212607133525e-03
    19    6.058075282492e-02
    20    2.537400895135e-01
    21    2.253148285587e-02
    22   -2.644967864874e-02
    23    1.623462893735e-02
    24   -2.828327775342e-04
    25   -6.064826763965e-03
    26   -1.562965288765e-01
    27   -3.794610078558e-01
    28   -2.953970704413e-01
    29    2.829138062929e-01
    30    2.755805570126e-03
    31    7.821494124468e-01
    32   -7.512810639341e-01
    33   -7.930727069956e-03
    34   -6.751089993469e-03
    35    3.976391664023e-03
    36    3.805504260339e-03
    37   -3.913651120029e-03
    38    6.038728614302e-02
    39    2.550034970303e-01
    40    5.587357381190e-02
    41    2.703266142130e-02
    42   -1.637373303609e-02
    43    2.927639823892e-04
    44    2.485637062641e-01
    45    6.267214824653e-02
    46    1.833106037510e-02
    47   -2.645786663758e-02
    48   -7.217781424617e-04
Sym=X
Ene= 0.616171
Spin=Alpha
Occup=0
     1   -5.158818813561e-01
     2    2.048589227704e-01
     3   -6.159234609969e-02
     4    3.870509943318e-02
     5   -6.284797475199e-04
     6   -2.085816166776e-04
     7    1.320056427236e-03
     8   -1.654050159918e-02
     9   -3.693926922440e-02
    10   -3.914973406648e-02
    11   -4.125077233740e-03
    12    2.831785224117e-01
    13    2.906788725767e-01
    14    3.018147855736e-02
    15    9.895462571979e-04
    16   -7.488990479952e-03
    17    8.340088265001e-03
    18   -1.480626978914e-01
    19   -7.099555444440e-03
    20    5.121905109926e-01
    21   -2.003263398284e-01
    22    4.174759602615e-02
    23   -5.884055701333e-02
    24   -1.528787606394e-03
    25    3.709951957449e-04
    26   -2.080642151912e-04
    27    5.643009621035e-03
    28   -4.042116120496e-02
    29   -3.954817181921e-02
    30   -4.207980144185e-03
    31    3.033545096045e-01
    32    2.965546031086e-01
    33    3.238631104502e-02
    34   -1.202218422554e-03
    35    7.525816925474e-03
    36   -8.568768527884e-03
    37    1.501753295293e-01
    38    7.252557864224e-03
    39   -5.153068309594e-01
    40    2.061134840860e-01
    41    4.125816670407e-02
    42   -5.913224781106e-02
    43   -1.582200971959e-03
    44    5.248852663983e-01
    45   -2.053241612229e-01
    46   -6.162160749498e-02
    47    3.730497898220e-02
    48   -6.514062397457e-04
Sym=X
Ene= 0.689153
Spin=Alpha
Occup=0
     1    3.560177610887e-04
     2    3.574854005277e-04
     3    9.915990494680e-04
     4    1.230899978653e-03
     5   -2.052220479976e-02
     6    2.757643203106e-05
     7    1.470478945221e-04
     8    1.522355104711e-04
     9    3.137964408363e-02
    10    3.970387376595e-02
    11   -6.705864554538e-01
    12   -2.927529795388e-02
    13   -3.564052157327e-02
    14    6.136912762790e-01
    15   -1.356912927002e-03
    16    8.254978070253e-02
    17   -7.825680598157e-02
    18   -8.615640010610e-03
    19   -1.099136518617e-03
    20    4.330131114261e-04
    21    3.287763126148e-06
    22    9.135317447378e-04
    23    1.180621574402e-03
    24   -2.093322752563e-02
    25    2.472507177739e-06
    26    3.759021945566e-04
    27   -4.847936340107e-04
    28    3.186056567209e-02
    29    3.994179891820e-02
    30   -6.700009909235e-01
    31   -2.987574654911e-02
    32   -3.602118852517e-02
    33    6.130544144804e-01
    34    1.175823191500e-03
    35   -8.280488291478e-02
    36    7.850827857388e-02
    37    8.506172659001e-03
    38    1.164335302104e-03
    39    4.054672233530e-05
    40   -6.712205771939e-04
    41    1.015320594169e-03
    42    1.363237749717e-03
    43   -2.106628681022e-02
    44   -4.085422791338e-05
    45   -3.061688782041e-04
    46    9.209928889736e-04
    47    1.288714302510e-03
    48   -2.104801541353e-02
Sym=X
Ene= 0.708194
Spin=Alpha
Occup=0
     1   -4.803433851522e-01
     2    1.731662672430e-01
     3   -8.111010287399e-02
     4   -4.452251707245e-02
     5   -6.484158061634e-03
     6   -4.854294398436e-02
     7   -3.182046605091e-01
     8    5.268196513823e-01
     9    2.065578160809e-01
    10   -1.929731445350e-01
    11   -2.023805291423e-03
    12   -1.225316814343e-01
    13    1.058602990350e-01
    14    3.840369623201e-04
    15    1.944499229569e-01
    16   -2.046726439557e-02
    17   -2.393949718719e-02
    18    3.054140343473e-03
    19   -7.847631914532e-02
    20   -4.774505419142e-01
    21    1.598761753013e-01
    22    4.059260802013e-02
    23    8.223063725687e-02
    24    6.733112218593e-03
    25   -4.590976355137e-02
    26   -3.221045624947e-01
    27    4.292242526127e-01
    28   -2.057173156381e-01
    29    1.947170731737e-01
    30    1.509879679488e-03
    31    5.148405518982e-02
    32   -4.159383958960e-02
    33    8.184095077601e-04
    34    1.926706533520e-01
    35   -2.021155513515e-02
    36   -2.372366863132e-02
    37    3.320470904684e-03
    38   -7.436772341420e-02
    39   -4.688384383473e-01
    40    1.311325558807e-01
    41   -4.012507442841e-02
    42   -8.101057329734e-02
    43   -6.719755467097e-03
    44   -4.680404189860e-01
    45    1.371160337126e-01
    46    7.957222478503e-02
    47    4.364728675256e-02
    48    6.388134682556e-03
Sym=X
Ene= 0.784380
Spin=Alpha
Occup=0
     1    5.250281330846e-01
     2   -4.818588417646e-01
     3    1.101530104160e-01
     4    2.626479381732e-02
     5    6.733386301702e-03
     6    9.061044681739e-02
     7   -2.197488822622e-01
     8   -6.473838278347e-01
     9    1.088854680149e-01
    10   -1.063722008282e-01
    11   -5.671610783416e-04
    12    3.377685451949e-01
    13   -3.089251924258e-01
    14   -3.311201472647e-03
    15   -2.044563795188e-01
    16    1.730015672066e-02
    17    2.155722998423e-02
    18   -9.819790145434e-04
    19    1.075228027919e-02
    20    5.300206938988e-01
    21   -4.735932130981e-01
    22   -1.959276422074e-02
    23   -1.118199686422e-01
    24   -7.505763176844e-03
    25   -9.180738480250e-02
    26    2.099409406713e-01
    27    6.836515001987e-01
    28    1.090147592747e-01
    29   -1.059328223159e-01
    30   -1.502113879251e-03
    31    3.229787027871e-01
    32   -2.972926119343e-01
    33   -1.401615893028e-03
    34    2.086049042028e-01
    35   -1.778292433049e-02
    36   -2.234800218224e-02
    37    3.173160442449e-04
    38   -1.047425209720e-02
    39   -5.435174597849e-01
    40    4.681576838684e-01
    41   -2.114116686279e-02
    42   -1.124549634533e-01
    43   -7.727539390088e-03
    44   -5.373190381867e-01
    45    4.732196592420e-01
    46    1.112571968419e-01
    47    2.718791569655e-02
    48    6.900172862689e-03
Sym=X
Ene= 0.807984
Spin=Alpha
Occup=0
     1    3.141543583182e-04
     2   -8.179758503848e-04
     3    1.707312243953e-03
     4    2.045674302154e-03
     5   -3.385009817177e-02
     6    6.632324138504e-05
     7   -3.160041847630e-04
     8   -5.592636790864e-06
     9    3.591876154570e-02
    10    4.473897100504e-02
    11   -7.629378572131e-01
    12   -5.265811465906e-02
    13   -6.632805951778e-02
    14    1.126903725371e+00
    15    8.396338944835e-04
    16   -6.526196372237e-02
    17    6.190502803460e-02
    18    6.890732605026e-03
    19    8.855737362534e-04
    20    2.977516150431e-04
    21    1.810537616820e-04
    22    1.664456148815e-03
    23    2.031229751841e-03
    24   -3.443985722106e-02
    25   -4.947805434551e-05
    26   -7.160900941385e-05
    27    2.263608321416e-04
    28   -3.621977777207e-02
    29   -4.581172333933e-02
    30    7.633704899621e-01
    31    5.394526441063e-02
    32    6.731987567498e-02
    33   -1.127102719953e+00
    34    1.186798624482e-03
    35   -6.525674623617e-02
    36    6.183606660156e-02
    37    6.621410120709e-03
    38    9.458264302126e-04
    39   -2.980849807112e-04
    40   -7.671266814925e-05
    41   -1.550321812927e-03
    42   -2.139698400138e-03
    43    3.426245135452e-02
    44   -3.127198693621e-04
    45    9.160282922400e-04
    46   -1.390832202433e-03
    47   -1.996203923419e-03
    48    3.376708346668e-02
Sym=X
Ene= 0.862194
Spin=Alpha
Occup=0
     1    1.309300692654e-02
     2   -1.097981509545e+00
     3    1.479770444996e-01
     4    5.851064186399e-02
     5    1.038964861110e-02
     6   -3.494204488668e-04
     7   -2.263822101456e-03
     8    1.332251740006e-03
     9   -4.090223799453e-01
    10   -4.296456434726e-01
    11   -4.427132369095e-02
    12    9.491206006338e-01
    13    1.001980958941e+00
    14    1.030718829392e-01
    15    9.947797530275e-04
    16    1.159756420200e-02
    17   -1.348782116450e-02
    18    2.338119568000e-01
    19    1.167539325186e-02
    20   -1.606628414442e-02
    21    1.103513798362e+00
    22    5.086136103934e-02
    23    1.516022277420e-01
    24    1.139111528959e-02
    25    1.455495563817e-04
    26   -1.503634858870e-03
    27    9.852898146189e-04
    28   -4.075549137868e-01
    29   -4.274231544099e-01
    30   -4.516892411773e-02
    31    9.510174829542e-01
    32    9.990921210353e-01
    33    1.054505847608e-01
    34   -7.622094118124e-05
    35   -1.172022929932e-02
    36    1.357096889856e-02
    37   -2.359081709534e-01
    38   -1.106691615066e-02
    39    1.021883765898e-02
    40   -1.098674084613e+00
    41    4.905215262155e-02
    42    1.514807032680e-01
    43    1.141960556971e-02
    44   -8.103466001210e-03
    45    1.092992305172e+00
    46    1.480250127725e-01
    47    5.587708983189e-02
    48    1.027833612136e-02
Sym=X
Ene= 0.935730
Spin=Alpha
Occup=0
     1    1.141317108694e-01
     2   -1.287972341649e+00
     3    1.822292452969e-01
     4   -2.243495998282e-03
     5    8.480633526901e-03
     6   -3.772353905189e-04
     7   -5.207422445864e-03
     8    3.123344102883e-03
     9   -4.769563283086e-01
    10   -4.946446683580e-01
    11   -5.170680876361e-02
    12    1.478139660485e+00
    13    1.531041778438e+00
    14    1.601783193273e-01
    15    1.313871929337e-03
    16    5.909572228656e-03
    17   -6.608427991953e-03
    18    1.178763857309e-01
    19    7.532045364734e-03
    20   -1.148952307100e-01
    21    1.271974969010e+00
    22   -1.256170263302e-02
    23    1.806401704587e-01
    24    1.001138186368e-02
    25    1.420990119925e-04
    26   -1.813924041962e-03
    27    1.005741663172e-02
    28    4.715434939084e-01
    29    5.018306846392e-01
    30    5.224352210481e-02
    31   -1.459608580672e+00
    32   -1.547922726326e+00
    33   -1.613389785669e-01
    34    3.508020580510e-04
    35    5.863963969131e-03
    36   -7.212745929425e-03
    37    1.207682940762e-01
    38    2.569479217802e-03
    39   -1.174882173890e-01
    40    1.292093058514e+00
    41    1.280108841822e-02
    42   -1.824768427020e-01
    43   -1.028600774578e-02
    44    1.150138506537e-01
    45   -1.283367161317e+00
    46   -1.817284314215e-01
    47    5.888655355052e-03
    48   -8.284350123757e-03
Sym=X
Ene= 0.972063
Spin=Alpha
Occup=0
     1   -6.364408050833e-02
     2    9.099568170896e-01
     3   -8.829074321845e-02
     4   -9.953640125098e-02
     5   -1.003716755361e-02
     6    2.568950720785e-02
     7    2.638012346718e-01
     8    5.025902083579e-01
     9    4.782752455382e-01
    10   -4.609333770719e-01
    11   -4.644383754266e-03
    12   -1.474669813281e+00
    13    1.428999980354e+00
    14    1.473434339211e-02
    15   -5.582139087472e-02
    16   -1.265576474485e-02
    17   -9.770553895097e-03
    18    1.668630903654e-02
    19   -3.040322563006e-01
    20   -6.136804156708e-02
    21    9.330806231836e-01
    22    9.529820628261e-02
    23    9.589484336300e-02
    24    1.020158245065e-02
    25   -2.521328759144e-02
    26   -2.223649103093e-01
    27   -5.712023501751e-01
    28    4.806757187226e-01
    29   -4.499351441745e-01
    30   -4.233523136004e-03
    31   -1.496805099022e+00
    32    1.393841746294e+00
    33    1.257749861578e-02
    34    5.329101391545e-02
    35    1.259873505240e-02
    36    9.611226870734e-03
    37   -1.418579346454e-02
    38    2.980257560435e-01
    39    6.300127267449e-02
    40   -8.882900884619e-01
    41    9.358463722205e-02
    42    8.972371449444e-02
    43    9.852424226187e-03
    44    6.339064202737e-02
    45   -9.115069009600e-01
    46   -8.812314019152e-02
    47   -9.713890058465e-02
    48   -9.849933238043e-03
[5D]

======= END OF MOLDEN-FORMATTED INPUT FILE =======


        *************************************************************
        *                                                           *
        *  Thank you very much for using Q-Chem.  Have a nice day.  *
        *                                                           *
        *************************************************************


