                  Welcome to Q-Chem
     A Quantum Leap Into The Future Of Chemistry


 Q-Chem 5.4 (devel), Q-Chem, Inc., Pleasanton, CA (2021)

 E. Epifanovsky,  A. T. B. Gilbert,  Xintian Feng,  Joonho Lee,  Yuezhi Mao,  
 N. Mardirossian,  P. Pokhilko,  A. White,  M. Wormit,  M. P. Coons,  
 A. L. Dempwolff,  Zhengting Gan,  D. Hait,  P. R. Horn,  L. D. Jacobson,  
 I. Kaliman,  J. Kussmann,  A. W. Lange,  Ka Un Lao,  D. S. Levine,  Jie Liu,  
 S. C. McKenzie,  A. F. Morrison,  K. Nanda,  F. Plasser,  D. R. Rehn,  
 M. L. Vidal,  Zhi-Qiang You,  Ying Zhu,  B. Alam,  B. Albrecht,  
 A. Aldossary,  E. Alguire,  J. H. Andersen,  D. Barton,  K. Begam,  A. Behn,  
 Y. A. Bernard,  E. J. Berquist,  H. Burton,  A. Carreras,  K. Carter-Fenk,  
 R. Chakraborty,  A. D. Chien,  K. D. Closser,  V. Cofer-Shabica,  
 S. Dasgupta,  Jia Deng,  M. de Wergifosse,  M. Diedenhofen,  Hainam Do,  
 S. Ehlert,  Po-Tung Fang,  S. Fatehi,  Qingguo Feng,  T. Friedhoff,  
 J. Gayvert,  Qinghui Ge,  G. Gidofalvi,  M. Goldey,  J. Gomes,  
 C. Gonzalez-Espinoza,  S. Gulania,  A. Gunina,  M. W. D. Hanson-Heine,  
 P. H. P. Harbach,  A. W. Hauser,  M. F. Herbst,  M. Hernandez Vera,  
 M. Hodecker,  Z. C. Holden,  S. Houck,  Xunkun Huang,  Kerwin Hui,  
 B. C. Huynh,  M. Ivanov,  Hyunjun Ji,  Hanjie Jiang,  B. Kaduk,  S. Kaehler,  
 K. Khistyaev,  Jaehoon Kim,  P. Klunzinger,  Z. Koczor-Benda,  
 Joong Hoon Koh,  D. Kosenkov,  L. Koulias,  T. Kowalczyk,  C. M. Krauter,  
 K. Kue,  A. Kunitsa,  T. Kus,  A. Landau,  K. V. Lawler,  D. Lefrancois,  
 S. Lehtola,  Rain Li,  Yi-Pei Li,  Jiashu Liang,  M. Liebenthal,  
 Hung-Hsuan Lin,  You-Sheng Lin,  Fenglai Liu,  Kuan-Yu Liu,  
 M. Loipersberger,  A. Luenser,  A. Manjanath,  P. Manohar,  E. Mansoor,  
 S. F. Manzer,  Shan-Ping Mao,  A. V. Marenich,  T. Markovich,  S. Mason,  
 S. A. Maurer,  P. F. McLaughlin,  M. F. S. J. Menger,  J.-M. Mewes,  
 S. A. Mewes,  P. Morgante,  J. W. Mullinax,  K. J. Oosterbaan,  G. Paran,  
 Alexander C. Paul,  Suranjan K. Paul,  F. Pavosevic,  Zheng Pei,  S. Prager,  
 E. I. Proynov,  E. Ramos,  B. Rana,  A. E. Rask,  A. Rettig,  R. M. Richard,  
 F. Rob,  E. Rossomme,  T. Scheele,  M. Scheurer,  M. Schneider,  
 N. Sergueev,  S. M. Sharada,  W. Skomorowski,  D. W. Small,  C. J. Stein,  
 Yu-Chuan Su,  E. J. Sundstrom,  Zhen Tao,  J. Thirman,  T. Tsuchimochi,  
 N. M. Tubman,  S. P. Veccham,  O. Vydrov,  J. Wenzel,  J. Witte,  A. Yamada,  
 Kun Yao,  S. Yeganeh,  S. R. Yost,  A. Zech,  Igor Ying Zhang,  Xing Zhang,  
 Yu Zhang,  D. Zuev,  A. Aspuru-Guzik,  A. T. Bell,  N. A. Besley,  
 K. B. Bravaya,  B. R. Brooks,  D. Casanova,  Jeng-Da Chai,  S. Coriani,  
 C. J. Cramer,  A. E. DePrince, III,  R. A. DiStasio Jr.,  A. Dreuw,  
 B. D. Dunietz,  T. R. Furlani,  W. A. Goddard III,  S. Grimme,  
 S. Hammes-Schiffer,  T. Head-Gordon,  W. J. Hehre,  Chao-Ping Hsu,  
 T.-C. Jagau,  Yousung Jung,  A. Klamt,  Jing Kong,  D. S. Lambrecht,  
 WanZhen Liang,  N. J. Mayhall,  C. W. McCurdy,  J. B. Neaton,  
 C. Ochsenfeld,  J. A. Parkhill,  R. Peverati,  V. A. Rassolov,  Yihan Shao,  
 L. V. Slipchenko,  T. Stauch,  R. P. Steele,  J. E. Subotnik,  
 A. J. W. Thom,  A. Tkatchenko,  D. G. Truhlar,  T. Van Voorhis,  
 T. A. Wesolowski,  K. B. Whaley,  H. L. Woodcock III,  P. M. Zimmerman,  
 S. Faraji,  P. M. W. Gill,  M. Head-Gordon,  J. M. Herbert,  A. I. Krylov

 Additional authors for Version 5.4.1: 
 S. Kotaru,  Shaozhi Li,  Xiangyuan Li,  F. Matz,  A. Molle,  Haisheng Ren,  
 Yingli Su,  Hung-Yi Tsai,  C. Utku,  Fang Wang

 Contributors to earlier versions of Q-Chem not listed above: 
 R. D. Adamson,  B. Austin,  R. Baer,  J. Baker,  G. J. O. Beran,  
 K. Brandhorst,  S. T. Brown,  E. F. C. Byrd,  A. K. Chakraborty,  
 G. K. L. Chan,  Chun-Min Chang,  Yunqing Chen,  C.-L. Cheng,  
 Siu Hung Chien,  D. M. Chipman,  D. L. Crittenden,  H. Dachsel,  
 R. J. Doerksen,  A. D. Dutoi,  R. G. Edgar,  J. Fosso-Tande,  
 L. Fusti-Molnar,  D. Ghosh,  A. Ghysels,  A. Golubeva-Zadorozhnaya,  
 J. Gonthier,  M. S. Gordon,  S. R. Gwaltney,  G. Hawkins,  J. E. Herr,  
 A. Heyden,  S. Hirata,  E. G. Hohenstein,  G. Kedziora,  F. J. Keil,  
 C. Kelley,  Jihan Kim,  R. A. King,  R. Z. Khaliullin,  P. P. Korambath,  
 W. Kurlancheek,  A. Laurent,  A. M. Lee,  M. S. Lee,  S. V. Levchenko,  
 Ching Yeh Lin,  D. Liotard,  E. Livshits,  R. C. Lochan,  I. Lotan,  
 L. A. Martinez-Martinez,  P. E. Maslen,  N. Nair,  D. P. O'Neill,  
 D. Neuhauser,  E. Neuscamman,  C. M. Oana,  R. Olivares-Amaya,  R. Olson,  
 T. M. Perrine,  B. Peters,  P. A. Pieniazek,  A. Prociuk,  Y. M. Rhee,  
 J. Ritchie,  M. A. Rohrdanz,  E. Rosta,  N. J. Russ,  H. F. Schaefer III,  
 M. W. Schmidt,  N. E. Schultz,  S. Sharma,  N. Shenvi,  C. D. Sherrill,  
 A. C. Simmonett,  A. Sodt,  T. Stein,  D. Stuck,  K. S. Thanthiriwatte,  
 V. Vanovschi,  L. Vogt,  Tao Wang,  A. Warshel,  M. A. Watson,  
 C. F. Williams,  Q. Wu,  X. Xu,  Jun Yang,  W. Zhang,  Yan Zhao

 Please cite Q-Chem as follows:
 Y. Shao et al., Mol. Phys. 113, 184-215 (2015)
 DOI: 10.1080/00268976.2014.952696

 Q-Chem 5.4.1 for Intel X86 EM64T Linux

 Parts of Q-Chem use Armadillo 9.800.1 (Horizon Scraper).
 http://arma.sourceforge.net/

 Q-Chem begins on Thu Nov 17 15:41:54 2022  

 Host: cpu186.baobab
0

     Scratch files written to /scratch/fum/qchem59736//
 Processing $rem in /home/share/wesolowski/qc5.aug2021.FDE/config/preferences:
 Processing $rem in /home/fum/.qchemrc:

 Checking the input file for inconsistencies... 	...done.

--------------------------------------------------------------
User input:
--------------------------------------------------------------
$comment
generated from CCJob.Templates
$end

$rem
sym_ignore = true
method = adc(2)
ee_states = 10
basis = cc-pVDZ
mem_static = 1024
mem_total = 40000
adc_davidson_maxiter = 900
adc_davidson_conv = 6
adc_print = 3
adc_prop_es = true
adc_prop_es2es = true
adc_prop_tpa = true
molden_format = True
state_analysis = true
print_orbitals = 15
gen_scfman = false
fde_export_density = true
fde_details = 3
$end

$molecule
0 1
H -0.0348278765 -0.2442097827 0.0636489606
C -1.0765972949 -0.5242748755 -0.0023551776
H -1.323264467 -1.5767591607 -0.0757276926
C -2.043634118 0.3926884087 0.0061254933
H -1.8137616575 1.4459188338 0.0804456828
H -3.085977293 0.114931858 -0.0593381042                     
$end
--------------------------------------------------------------
 ----------------------------------------------------------------
             Standard Nuclear Orientation (Angstroms)
    I     Atom           X                Y                Z
 ----------------------------------------------------------------
    1      H      -0.0348278765    -0.2442097827     0.0636489606
    2      C      -1.0765972949    -0.5242748755    -0.0023551776
    3      H      -1.3232644670    -1.5767591607    -0.0757276926
    4      C      -2.0436341180     0.3926884087     0.0061254933
    5      H      -1.8137616575     1.4459188338     0.0804456828
    6      H      -3.0859772930     0.1149318580    -0.0593381042
 ----------------------------------------------------------------
 Nuclear Repulsion Energy =          33.41975153 hartrees
 There are        8 alpha and        8 beta electrons
 Requested basis set is cc-pVDZ
 There are 24 shells and 48 basis functions
 Total memory of 40000 MB is distributed as follows: 
   MEM_STATIC is set to 1024 MB
   QALLOC/CCMAN JOB total memory use is  38976 MB
 Warning: actual memory use might exceed 40000 MB

 Total QAlloc Memory Limit  40000 MB
 Mega-Array Size      1001 MB
 MEM_STATIC part      1024 MB

                       Distance Matrix (Angstroms)
             H (  1)   C (  2)   H (  3)   C (  4)   H (  5)
   C (  2)  1.080776
   H (  3)  1.858812  1.083490
   C (  4)  2.108139  1.332687  2.098656
   H (  5)  2.453859  2.105215  3.066196  1.080583
   H (  6)  3.074674  2.109370  2.443204  1.080700  1.846510

 A cutoff of  1.0D-11 yielded    300 shell pairs
 There are      1220 function pairs (      1329 Cartesian)
 Smallest overlap matrix eigenvalue = 4.80E-03

 Scale SEOQF with 1.000000e-01/1.000000e-01/1.000000e+00

 Standard Electronic Orientation quadrupole field applied
 Nucleus-field energy     =     0.0000000022 hartrees
 Guess from superposition of atomic densities
 Warning:  Energy on first SCF cycle will be non-variational
 SAD guess density has 16.000000 electrons
 A restricted Hartree-Fock SCF calculation will be
 performed using Pulay DIIS extrapolation
 SCF converges when DIIS error is below 1.0E-08
 using 10 threads for integral computing
 -------------------------------------------------------
 OpenMP Integral computing Module                
 Release: version 1.0, May 2013, Q-Chem Inc. Pittsburgh 
 -------------------------------------------------------
 ---------------------------------------
  Cycle       Energy         DIIS Error
 ---------------------------------------
    1     -78.4375960864      1.01E-01
    2     -78.0176486489      7.21E-03
    3     -78.0382792570      1.84E-03
    4     -78.0397624575      5.74E-04
    5     -78.0398843940      5.81E-05
    6     -78.0398862711      1.00E-05
    7     -78.0398863342      3.39E-06
    8     -78.0398863389      1.12E-06
    9     -78.0398863395      9.78E-08
   10     -78.0398863395      2.07E-08
   11     -78.0398863395      6.16E-09 Convergence criterion met
 ---------------------------------------
 SCF time:  CPU 2.60 s  wall 3.11 s
 SCF   energy in the final basis set = -78.03988634
 Total energy in the final basis set = -78.03988634
Exporting Density Matrix to file 'Densmat_SCF.txt'.
Export successful
================================================================================
|                                                                              |
|                                 A D C  M A N                                 |
|                                                                              |
 ------------------------------------------------------------------------------ 
|                                                                              |
| Components:                                                                  |
|                                                                              |
| - libvmm - 1.3-trunk                                                         |
|   Authors:                                                                   |
|   Evgeny Epifanovsky, Ilya Kaliman                                           |
|                                                                              |
| - libtensor - 2.5-trunk                                                      |
|   Authors:                                                                   |
|   Evgeny Epifanovsky, Michael Wormit, Dmitry Zuev, Sam Manzer,               |
|   Ilya Kaliman                                                               |
|                                                                              |
| - libwfa - 1.1-trunk                                                         |
|   Authors:                                                                   |
|   Felix Plasser, Stefanie Mewes (Baeppler), Benjamin Thomitzni,              |
|   Michael Wormit, Feng Chen, Anna I. Krylov, Pavel Pokhilko                  |
|                                                                              |
| - libadc - 1.1-trunk                                                         |
|   Authors:                                                                   |
|   Michael Wormit, Adrian L. Dempwolff, Philipp H. P. Harbach,                |
|   Caroline Krauter, Dirk Rehn, Matthias Schneider, Jan Wenzel                |
|                                                                              |
| - adcman - 2.6-trunk                                                         |
|   Authors:                                                                   |
|   Michael Wormit, Adrian L. Dempwolff, Philipp H. P. Harbach,                |
|   Caroline Krauter, Daniel Lefrancois, Jan-Michael Mewes, Dirk Rehn,         |
|   Matthias Schneider, Jan Wenzel, Andreas Dreuw                              |
|                                                                              |
| Authors of earlier versions of ADCMAN:                                       |
| Andreas Dreuw, Jan Hendrik Starcke, Dirk Rehn, Michael Wormit                |
|                                                                              |
================================================================================

 Created directory /scratch/fum/qchem59736/plots
  Import QC data ...  CPU 0.00 s  wall 0.00 s

 Alpha MOs, Restricted
 -- Occupied --                  
-11.235 -11.233  -1.032  -0.789  -0.641  -0.581  -0.505  -0.374
  1 A     2 A     3 A     4 A     5 A     6 A     7 A     8 A                  
 -- Virtual --                   
  0.168   0.204   0.233   0.240   0.303   0.461   0.577   0.616
  9 A    10 A    11 A    12 A    13 A    14 A    15 A    16 A                  
  0.689   0.708   0.784   0.808   0.862   0.936   0.972   1.009
 17 A    18 A    19 A    20 A    21 A    22 A    23 A    24 A                  
  1.130   1.235   1.257   1.266   1.293   1.601   1.721   1.749
 25 A    26 A    27 A    28 A    29 A    30 A    31 A    32 A                  
  1.819   1.861   1.867   1.923   1.976   1.978   2.219   2.258
 33 A    34 A    35 A    36 A    37 A    38 A    39 A    40 A                  
  2.377   2.454   2.502   2.629   2.721   2.820   3.142   3.396
 41 A    42 A    43 A    44 A    45 A    46 A    47 A    48 A                  

 Beta MOs, Restricted
 -- Occupied --                  
-11.235 -11.233  -1.032  -0.789  -0.641  -0.581  -0.505  -0.374
  1 A     2 A     3 A     4 A     5 A     6 A     7 A     8 A                  
 -- Virtual --                   
  0.168   0.204   0.233   0.240   0.303   0.461   0.577   0.616
  9 A    10 A    11 A    12 A    13 A    14 A    15 A    16 A                  
  0.689   0.708   0.784   0.808   0.862   0.936   0.972   1.009
 17 A    18 A    19 A    20 A    21 A    22 A    23 A    24 A                  
  1.130   1.235   1.257   1.266   1.293   1.601   1.721   1.749
 25 A    26 A    27 A    28 A    29 A    30 A    31 A    32 A                  
  1.819   1.861   1.867   1.923   1.976   1.978   2.219   2.258
 33 A    34 A    35 A    36 A    37 A    38 A    39 A    40 A                  
  2.377   2.454   2.502   2.629   2.721   2.820   3.142   3.396
 41 A    42 A    43 A    44 A    45 A    46 A    47 A    48 A                  
  Import AO data ...  CPU 0.00 s  wall 0.00 s
  Using point group: C1
  Irreducible representations in point group: A
  Molecular orbitals: 
  Occupied MOs:
  Block   0:   1 (  A) A   2 (  A) A   3 (  A) A   4 (  A) A   5 (  A) A
                  -11.24      -11.23      -1.032     -0.7892     -0.6415
               6 (  A) A   7 (  A) A   8 (  A) A
                 -0.5812     -0.5047      -0.374
  Block   1:   1 (  A) B   2 (  A) B   3 (  A) B   4 (  A) B   5 (  A) B
                  -11.24      -11.23      -1.032     -0.7892     -0.6415
               6 (  A) B   7 (  A) B   8 (  A) B
                 -0.5812     -0.5047      -0.374
  Virtual MOs:
  Block   0:   9 (  A) A  10 (  A) A  11 (  A) A  12 (  A) A  13 (  A) A
                  0.1685      0.2035      0.2328      0.2396      0.3032
              14 (  A) A  15 (  A) A  16 (  A) A  17 (  A) A  18 (  A) A
                  0.4615       0.577      0.6162      0.6892      0.7082
              19 (  A) A  20 (  A) A  21 (  A) A  22 (  A) A
                  0.7845       0.808      0.8622      0.9358
  Block   1:  23 (  A) A  24 (  A) A  25 (  A) A  26 (  A) A  27 (  A) A
                  0.9721       1.009        1.13       1.235       1.257
              28 (  A) A  29 (  A) A  30 (  A) A  31 (  A) A  32 (  A) A
                   1.266       1.293       1.601       1.721       1.749
              33 (  A) A  34 (  A) A  35 (  A) A  36 (  A) A
                   1.819       1.861       1.867       1.923
  Block   2:  37 (  A) A  38 (  A) A  39 (  A) A  40 (  A) A  41 (  A) A
                   1.976       1.978       2.219       2.258       2.377
              42 (  A) A  43 (  A) A  44 (  A) A  45 (  A) A  46 (  A) A
                   2.454       2.502       2.629       2.721        2.82
              47 (  A) A  48 (  A) A
                   3.142       3.396
  Block   3:   9 (  A) B  10 (  A) B  11 (  A) B  12 (  A) B  13 (  A) B
                  0.1685      0.2035      0.2328      0.2396      0.3032
              14 (  A) B  15 (  A) B  16 (  A) B  17 (  A) B  18 (  A) B
                  0.4615       0.577      0.6162      0.6892      0.7082
              19 (  A) B  20 (  A) B  21 (  A) B  22 (  A) B
                  0.7845       0.808      0.8622      0.9358
  Block   4:  23 (  A) B  24 (  A) B  25 (  A) B  26 (  A) B  27 (  A) B
                  0.9721       1.009        1.13       1.235       1.257
              28 (  A) B  29 (  A) B  30 (  A) B  31 (  A) B  32 (  A) B
                   1.266       1.293       1.601       1.721       1.749
              33 (  A) B  34 (  A) B  35 (  A) B  36 (  A) B
                   1.819       1.861       1.867       1.923
  Block   5:  37 (  A) B  38 (  A) B  39 (  A) B  40 (  A) B  41 (  A) B
                   1.976       1.978       2.219       2.258       2.377
              42 (  A) B  43 (  A) B  44 (  A) B  45 (  A) B  46 (  A) B
                   2.454       2.502       2.629       2.721        2.82
              47 (  A) B  48 (  A) B
                   3.142       3.396
  Import MO data ...  CPU 0.01 s  wall 0.00 s
  Import HF data ...  CPU 0.16 s  wall 0.07 s
  Import 2e integrals ...  CPU 1.90 s  wall 0.34 s

--------------------------------------------------------------------------------
                                   HF Summary                                   
--------------------------------------------------------------------------------
  Energy:                                                  -78.0398863395 a.u.
  Dip. moment [a.u.]:                  [  -0.001462,    0.001669,    0.000616]
  Total dipole [Debye]:                                               0.005852
  <r^2> [a.u.]:                        [ 175.405763,   34.928911,   11.628427]
  Total <r^2> [a.u.]:                                               221.963101
--------------------------------------------------------------------------------
  HF properties ...  CPU 0.02 s  wall 0.01 s
  MP(1) calculation ...  CPU 0.01 s  wall 0.01 s
  N^6 prerequesite intermediates ...  CPU 0.56 s  wall 0.09 s
  Difference density matrix of state mp2_gs printed to ASCII file 'State_mp2_gs_Difference.txt'
Exporting MP density matrix to file 'Densmat_MP.txt'.
Export successful
  Total density matrix of state mp2_gs printed to ASCII file 'State_mp2_gs_Total.txt'
Exporting MP density matrix to file 'Densmat_MP.txt'.
Export successful

--------------------------------------------------------------------------------
                                 MP(2) Summary                                  
--------------------------------------------------------------------------------
  MP energy contribution:                                   -0.2797453366 a.u.
  Total energy:                                            -78.3196316761 a.u.
  Dip. moment [a.u.]:                  [  -0.001497,    0.001380,    0.000589]
  Total dipole [Debye]:                                               0.005387
  <r^2> [a.u.]:                        [ 175.452614,   34.968864,   11.460087]
  Total <r^2> [a.u.]:                                               221.881565

  Density matrix analysis:
  ------------------------
  NOs
    Occupation of frontier NOs:
       0.0453   1.9383
    Number of electrons: 16.000000
    Number of unpaired electrons: n_u =  0.40358, n_u,nl =  0.04511
    NO participation ratio (PR_NO): 13.859598
  
  
  Mulliken Population Analysis
  Atom      Charge (e)              h+              e-           Del q
  --------------------------------------------------------------------
   1 H        0.051346        0.013971       -0.011219        0.002752
   2 C       -0.101160        0.093500       -0.098864       -0.005364
   3 H        0.051083        0.014020       -0.011202        0.002818
   4 C       -0.101652        0.092873       -0.098930       -0.006057
   5 H        0.049931        0.014136       -0.011184        0.002952
   6 H        0.050452        0.014089       -0.011191        0.002898
  --------------------------------------------------------------------
  Sum:        0.000000        0.242590       -0.242590       -0.000000
  
  Multipole moment analysis of the density matrix
    Molecular charge:                      0.000000
    Number of electrons:                   16.000000
      Center of electronic charge [Ang]: [ -1.561152,  -0.065648,   0.001959]
    Total nuclear charge:                  16.000000
      Center of nuclear charge [Ang]:    [ -1.561201,  -0.065602,   0.001978]
    Dipole moment [D]:                     0.005387
      Cartesian components [D]:          [ -0.003806,   0.003507,   0.001498]
    RMS size of the density [Ang]:         1.200756
      Cartesian components [Ang]:        [  0.795952,   0.779556,   0.447848]
  
  Exciton analysis of the difference density matrix
    <r_h> [Ang]:                  [ -1.560848,  -0.066475,   0.001830]
    <r_e> [Ang]:                  [ -1.560772,  -0.065844,   0.001888]
    |<r_e - r_h>| [Ang]:            0.000637
    Hole size [Ang]:                1.393734
      Cartesian components [Ang]: [  0.846274,   0.834542,   0.727910]
    Electron size [Ang]:            1.359668
      Cartesian components [Ang]: [  0.877781,   0.861779,   0.579253]
--------------------------------------------------------------------------------
  MP(2) calculation ...  CPU 0.33 s  wall 0.17 s
  Start ADC(2)-s ...  CPU 0.01 s  wall 0.01 s
  ADC(2) intermediates ...  CPU 0.03 s  wall 0.01 s
  Starting Davidson for singlet states of irrep A ... 
--------------------------------------------------------------------------------
   It NVec Conv  Avg. Norm  Max. Norm  Conv. states           Remark
--------------------------------------------------------------------------------
        10    0  1.330e-01  4.684e-01  0.4116 n n n n n n n n Guess.
    1   20    0  2.311e-02  1.107e-01  0.3263 n n n n n n n n 
    2   30    0  5.941e-03  2.758e-02  0.3215 n n n n n n n n 
    3   40    0  2.140e-03  1.565e-02  0.3211 n n n n n n n n 
    4   50    0  6.436e-04  4.940e-03  0.3211 n n n n n n n n 
    5   20    0  2.807e-04  2.112e-03  0.3211 n n n n n n n n Subspace collapsed.
    6   30    0  2.136e-04  1.977e-03  0.3211 n n n n n n n n 
    7   40    0  1.291e-04  1.074e-03  0.3211 n n n n n n n n 
    8   50    0  1.418e-04  1.379e-03  0.3211 n n n n n n n n 
    9   20    2  1.135e-04  1.119e-03  0.3211 n y n y n n n n Subspace collapsed.
   10   30    4  1.447e-04  1.435e-03  0.3211 n y y y y n n n 
   11   40    5  1.453e-04  1.451e-03  0.3211 n y y y y y n n 
   12   50    6  1.344e-04  1.343e-03  0.3211 y y y y y y n n 
   13   20    6  6.966e-05  6.964e-04  0.3211 y y y y y y n n Subspace collapsed.
   14   30    6  4.217e-05  4.215e-04  0.3211 y y y y y y n n 
   15   40    7  2.633e-05  2.631e-04  0.3211 y y y y y y n y 
   16   50    7  3.523e-05  3.522e-04  0.3211 y y y y y y n y 
   17   20    8  1.864e-05  1.864e-04  0.3211 y y y y y y n y Subspace collapsed.
   18   30    7  2.881e-05  2.881e-04  0.3211 y y y y y y n y 
   19   40    9  2.483e-05  2.483e-04  0.3211 y y y y y y y y 
   20   50    9  2.752e-05  2.752e-04  0.3211 y y y y y y y y 
   21   20    9  1.085e-05  1.085e-04  0.3211 y y y y y y y y Subspace collapsed.
   22   30    9  9.168e-06  9.168e-05  0.3211 y y y y y y y y 
   23   31    9  8.896e-06  8.896e-05  0.3211 y y y y y y y y 
   24   40    9  5.836e-06  5.836e-05  0.3211 y y y y y y y y 
   25   48    9  6.384e-06  6.384e-05  0.3211 y y y y y y y y 
   26   50    9  6.400e-06  6.400e-05  0.3211 y y y y y y y y 
   27   15    9  4.116e-06  4.116e-05  0.3211 y y y y y y y y Subspace collapsed.
   28   20    9  4.929e-06  4.929e-05  0.3211 y y y y y y y y 
   29   25    9  5.251e-06  5.251e-05  0.3211 y y y y y y y y 
   30   30    9  4.864e-06  4.864e-05  0.3211 y y y y y y y y 
   31   30    9  4.864e-06  4.864e-05  0.3211 y y y y y y y y 
   32   40    9  3.890e-06  3.890e-05  0.3211 y y y y y y y y 
   33   40    9  3.890e-06  3.890e-05  0.3211 y y y y y y y y 
   34   49    9  2.511e-06  2.511e-05  0.3211 y y y y y y y y 
   35   50    9  2.452e-06  2.452e-05  0.3211 y y y y y y y y 
   36   14    9  1.346e-06  1.346e-05  0.3211 y y y y y y y y Subspace collapsed.
   37   18    9  1.230e-06  1.230e-05  0.3211 y y y y y y y y 
   38   22    9  7.486e-07  7.486e-06  0.3211 y y y y y y y y 
   39   26    9  4.553e-07  4.553e-06  0.3211 y y y y y y y y 
   40   30    9  3.373e-07  3.373e-06  0.3211 y y y y y y y y 
   41   34    9  3.415e-07  3.415e-06  0.3211 y y y y y y y y 
   42   38    9  2.659e-07  2.659e-06  0.3211 y y y y y y y y 
   43   42    9  2.941e-07  2.941e-06  0.3211 y y y y y y y y 
   44   46    9  2.035e-07  2.035e-06  0.3211 y y y y y y y y 
   45   46    9  2.035e-07  2.035e-06  0.3211 y y y y y y y y 
   46   50    9  1.014e-07  1.014e-06  0.3211 y y y y y y y y 
   47   13   10  4.451e-08  4.451e-07  0.3211 y y y y y y y y Converged.
--------------------------------------------------------------------------------
  Davidson Summary: 
 ------------------------------------------------------------
  State  0: excitation energy =   0.3211 a.u.   (converged)
  State  1: excitation energy =   0.3329 a.u.   (converged)
  State  2: excitation energy =   0.3367 a.u.   (converged)
  State  3: excitation energy =   0.3613 a.u.   (converged)
  State  4: excitation energy =   0.3751 a.u.   (converged)
  State  5: excitation energy =   0.3870 a.u.   (converged)
  State  6: excitation energy =   0.4245 a.u.   (converged)
  State  7: excitation energy =   0.4472 a.u.   (converged)
  State  8: excitation energy =   0.4565 a.u.   (converged)
  State  9: excitation energy =   0.4647 a.u.   (converged)
 ------------------------------------------------------------

  Singlet states of irrep A ...  CPU 192.05 s  wall 60.40 s
  TDMs ...  CPU 1.34 s  wall 0.52 s
  SDMs ...  CPU 3.44 s  wall 1.03 s
  Starting TPA DIIS iterations ... 
------------------------------------ 
   It     Res. Norm  Remark
------------------------------------
                       Guess.
    1     4.405e+00  
    2     5.839e+00  
    3     1.076e+00  
    4     2.563e-01  
    5     6.579e-02  
    6     2.668e-02  
    7     8.221e-03  
    8     1.437e-03  
    9     5.338e-04  
   10     8.974e-05  
   11     2.814e-05  
   12     4.377e-06  
   13     1.427e-06  
   14     4.536e-07  Converged.
   ... Converged in 14 steps (norm: 4.53557e-07)
------------------------------------
  Starting TPA DIIS iterations ... 
------------------------------------ 
   It     Res. Norm  Remark
------------------------------------
                       Guess.
    1     4.181e+00  
    2     5.536e+00  
    3     1.030e+00  
    4     2.562e-01  
    5     6.539e-02  
    6     2.675e-02  
    7     8.117e-03  
    8     1.459e-03  
    9     5.381e-04  
   10     9.012e-05  
   11     2.848e-05  
   12     4.363e-06  
   13     1.430e-06  
   14     4.445e-07  Converged.
   ... Converged in 14 steps (norm: 4.4447e-07)
------------------------------------
  Starting TPA DIIS iterations ... 
------------------------------------ 
   It     Res. Norm  Remark
------------------------------------
                       Guess.
    1     6.892e-01  
    2     4.836e-01  
    3     1.704e-01  
    4     6.040e-02  
    5     1.840e-02  
    6     6.656e-03  
    7     1.046e-03  
    8     4.495e-04  
    9     1.250e-04  
   10     2.835e-05  
   11     5.857e-06  
   12     1.796e-06  
   13     1.114e-06  
   14     4.485e-07  Converged.
   ... Converged in 14 steps (norm: 4.48464e-07)
------------------------------------
  Starting TPA DIIS iterations ... 
------------------------------------ 
   It     Res. Norm  Remark
------------------------------------
                       Guess.
    1     4.696e+00  
    2     6.361e+00  
    3     1.158e+00  
    4     2.852e-01  
    5     7.422e-02  
    6     3.036e-02  
    7     9.337e-03  
    8     1.629e-03  
    9     6.100e-04  
   10     1.031e-04  
   11     3.266e-05  
   12     5.128e-06  
   13     1.687e-06  
   14     5.399e-07  Converged.
   ... Converged in 14 steps (norm: 5.39872e-07)
------------------------------------
  Starting TPA DIIS iterations ... 
------------------------------------ 
   It     Res. Norm  Remark
------------------------------------
                       Guess.
    1     4.456e+00  
    2     6.031e+00  
    3     1.109e+00  
    4     2.848e-01  
    5     7.379e-02  
    6     3.047e-02  
    7     9.223e-03  
    8     1.656e-03  
    9     6.149e-04  
   10     1.036e-04  
   11     3.304e-05  
   12     5.109e-06  
   13     1.686e-06  
   14     5.290e-07  Converged.
   ... Converged in 14 steps (norm: 5.2896e-07)
------------------------------------
  Starting TPA DIIS iterations ... 
------------------------------------ 
   It     Res. Norm  Remark
------------------------------------
                       Guess.
    1     7.014e-01  
    2     5.012e-01  
    3     1.804e-01  
    4     6.844e-02  
    5     1.984e-02  
    6     7.284e-03  
    7     1.182e-03  
    8     5.303e-04  
    9     1.508e-04  
   10     3.236e-05  
   11     6.690e-06  
   12     2.129e-06  
   13     1.402e-06  
   14     5.569e-07  Converged.
   ... Converged in 14 steps (norm: 5.56907e-07)
------------------------------------
  Starting TPA DIIS iterations ... 
------------------------------------ 
   It     Res. Norm  Remark
------------------------------------
                       Guess.
    1     4.796e+00  
    2     6.543e+00  
    3     1.186e+00  
    4     2.954e-01  
    5     7.721e-02  
    6     3.167e-02  
    7     9.733e-03  
    8     1.697e-03  
    9     6.371e-04  
   10     1.079e-04  
   11     3.429e-05  
   12     5.398e-06  
   13     1.782e-06  
   14     5.715e-07  Converged.
   ... Converged in 14 steps (norm: 5.71498e-07)
------------------------------------
  Starting TPA DIIS iterations ... 
------------------------------------ 
   It     Res. Norm  Remark
------------------------------------
                       Guess.
    1     4.550e+00  
    2     6.203e+00  
    3     1.135e+00  
    4     2.950e-01  
    5     7.676e-02  
    6     3.179e-02  
    7     9.615e-03  
    8     1.726e-03  
    9     6.423e-04  
   10     1.084e-04  
   11     3.468e-05  
   12     5.379e-06  
   13     1.779e-06  
   14     5.600e-07  Converged.
   ... Converged in 14 steps (norm: 5.5998e-07)
------------------------------------
  Starting TPA DIIS iterations ... 
------------------------------------ 
   It     Res. Norm  Remark
------------------------------------
                       Guess.
    1     7.054e-01  
    2     5.071e-01  
    3     1.837e-01  
    4     7.134e-02  
    5     2.032e-02  
    6     7.506e-03  
    7     1.231e-03  
    8     5.598e-04  
    9     1.603e-04  
   10     3.354e-05  
   11     6.985e-06  
   12     2.250e-06  
   13     1.512e-06  
   14     5.981e-07  Converged.
   ... Converged in 14 steps (norm: 5.98061e-07)
------------------------------------
  Starting TPA DIIS iterations ... 
------------------------------------ 
   It     Res. Norm  Remark
------------------------------------
                       Guess.
    1     5.541e+00  
    2     7.931e+00  
    3     1.394e+00  
    4     3.758e-01  
    5     1.007e-01  
    6     4.206e-02  
    7     1.285e-02  
    8     2.232e-03  
    9     8.523e-04  
   10     1.457e-04  
   11     4.747e-05  
   12     7.601e-06  
   13     2.574e-06  
   14     8.395e-07  Converged.
   ... Converged in 14 steps (norm: 8.39457e-07)
------------------------------------
  Starting TPA DIIS iterations ... 
------------------------------------ 
   It     Res. Norm  Remark
------------------------------------
                       Guess.
    1     5.255e+00  
    2     7.518e+00  
    3     1.334e+00  
    4     3.746e-01  
    5     1.002e-01  
    6     4.231e-02  
    7     1.270e-02  
    8     2.272e-03  
    9     8.590e-04  
   10     1.465e-04  
   11     4.793e-05  
   12     7.570e-06  
   13     2.550e-06  
   14     8.245e-07  Converged.
   ... Converged in 14 steps (norm: 8.24509e-07)
------------------------------------
  Starting TPA DIIS iterations ... 
------------------------------------ 
   It     Res. Norm  Remark
------------------------------------
                       Guess.
    1     7.326e-01  
    2     5.488e-01  
    3     2.083e-01  
    4     9.482e-02  
    5     2.391e-02  
    6     9.261e-03  
    7     1.634e-03  
    8     7.981e-04  
    9     2.354e-04  
   10     3.902e-05  
   11     9.333e-06  
   12     3.271e-06  
   13     2.503e-06  
   14     9.680e-07  Converged.
   ... Converged in 14 steps (norm: 9.68029e-07)
------------------------------------
  Starting TPA DIIS iterations ... 
------------------------------------ 
   It     Res. Norm  Remark
------------------------------------
                       Guess.
    1     6.046e+00  
    2     8.904e+00  
    3     1.535e+00  
    4     4.344e-01  
    5     1.178e-01  
    6     4.973e-02  
    7     1.512e-02  
    8     2.620e-03  
    9     1.011e-03  
   10     1.737e-04  
   11     5.741e-05  
   12     9.267e-06  
   13     3.194e-06  
   14     1.057e-06  
   15     4.038e-07  Converged.
   ... Converged in 15 steps (norm: 4.03832e-07)
------------------------------------
  Starting TPA DIIS iterations ... 
------------------------------------ 
   It     Res. Norm  Remark
------------------------------------
                       Guess.
    1     5.732e+00  
    2     8.441e+00  
    3     1.468e+00  
    4     4.325e-01  
    5     1.172e-01  
    6     5.008e-02  
    7     1.495e-02  
    8     2.669e-03  
    9     1.019e-03  
   10     1.746e-04  
   11     5.789e-05  
   12     9.231e-06  
   13     3.146e-06  
   14     1.041e-06  
   15     3.166e-07  Converged.
   ... Converged in 15 steps (norm: 3.16621e-07)
------------------------------------
  Starting TPA DIIS iterations ... 
------------------------------------ 
   It     Res. Norm  Remark
------------------------------------
                       Guess.
    1     7.488e-01  
    2     5.752e-01  
    3     2.244e-01  
    4     1.125e-01  
    5     2.637e-02  
    6     1.055e-02  
    7     1.943e-03  
    8     9.679e-04  
    9     2.881e-04  
   10     4.050e-05  
   11     1.111e-05  
   12     4.074e-06  
   13     3.354e-06  
   14     1.285e-06  
   15     4.471e-07  Converged.
   ... Converged in 15 steps (norm: 4.47129e-07)
------------------------------------
  Starting TPA DIIS iterations ... 
------------------------------------ 
   It     Res. Norm  Remark
------------------------------------
                       Guess.
    1     6.545e+00  
    2     9.891e+00  
    3     1.673e+00  
    4     4.953e-01  
    5     1.356e-01  
    6     5.776e-02  
    7     1.748e-02  
    8     3.022e-03  
    9     1.177e-03  
   10     2.030e-04  
   11     6.793e-05  
   12     1.104e-05  
   13     3.867e-06  
   14     1.302e-06  
   15     5.111e-07  Converged.
   ... Converged in 15 steps (norm: 5.111e-07)
------------------------------------
  Starting TPA DIIS iterations ... 
------------------------------------ 
   It     Res. Norm  Remark
------------------------------------
                       Guess.
    1     6.204e+00  
    2     9.376e+00  
    3     1.600e+00  
    4     4.927e-01  
    5     1.349e-01  
    6     5.822e-02  
    7     1.729e-02  
    8     3.081e-03  
    9     1.186e-03  
   10     2.040e-04  
   11     6.840e-05  
   12     1.100e-05  
   13     3.786e-06  
   14     1.289e-06  
   15     3.910e-07  Converged.
   ... Converged in 15 steps (norm: 3.91018e-07)
------------------------------------
  Starting TPA DIIS iterations ... 
------------------------------------ 
   It     Res. Norm  Remark
------------------------------------
                       Guess.
    1     7.634e-01  
    2     6.000e-01  
    3     2.399e-01  
    4     1.313e-01  
    5     2.886e-02  
    6     1.190e-02  
    7     2.278e-03  
    8     1.131e-03  
    9     3.395e-04  
   10     4.148e-05  
   11     1.303e-05  
   12     4.950e-06  
   13     4.333e-06  
   14     1.652e-06  
   15     5.655e-07  Converged.
   ... Converged in 15 steps (norm: 5.65463e-07)
------------------------------------
  Starting TPA DIIS iterations ... 
------------------------------------ 
   It     Res. Norm  Remark
------------------------------------
                       Guess.
    1     8.646e+00  
    2     1.429e+01  
    3     2.244e+00  
    4     7.789e-01  
    5     2.185e-01  
    6     9.601e-02  
    7     2.849e-02  
    8     4.887e-03  
    9     1.965e-03  
   10     3.414e-04  
   11     1.177e-04  
   12     1.958e-05  
   13     7.231e-06  
   14     2.727e-06  
   15     1.131e-06  
   16     5.243e-07  Converged.
   ... Converged in 16 steps (norm: 5.24285e-07)
------------------------------------
  Starting TPA DIIS iterations ... 
------------------------------------ 
   It     Res. Norm  Remark
------------------------------------
                       Guess.
    1     8.194e+00  
    2     1.354e+01  
    3     2.144e+00  
    4     7.722e-01  
    5     2.177e-01  
    6     9.708e-02  
    7     2.822e-02  
    8     4.991e-03  
    9     1.977e-03  
   10     3.431e-04  
   11     1.179e-04  
   12     1.965e-05  
   13     6.875e-06  
   14     2.778e-06  
   15     8.341e-07  Converged.
   ... Converged in 15 steps (norm: 8.34081e-07)
------------------------------------
  Starting TPA DIIS iterations ... 
------------------------------------ 
   It     Res. Norm  Remark
------------------------------------
                       Guess.
    1     8.137e-01  
    2     6.937e-01  
    3     3.015e-01  
    4     2.202e-01  
    5     4.021e-02  
    6     1.815e-02  
    7     3.950e-03  
    8     1.657e-03  
    9     5.394e-04  
   10     5.358e-05  
   11     2.299e-05  
   12     9.373e-06  
   13     9.820e-06  
   14     3.802e-06  
   15     1.392e-06  
   16     8.440e-07  Converged.
   ... Converged in 16 steps (norm: 8.43965e-07)
------------------------------------
  Starting TPA DIIS iterations ... 
------------------------------------ 
   It     Res. Norm  Remark
------------------------------------
                       Guess.
    1     1.050e+01  
    2     1.844e+01  
    3     2.734e+00  
    4     1.057e+00  
    5     3.005e-01  
    6     1.347e-01  
    7     3.937e-02  
    8     6.721e-03  
    9     2.760e-03  
   10     4.796e-04  
   11     1.658e-04  
   12     2.837e-05  
   13     1.075e-05  
   14     4.576e-06  
   15     1.929e-06  
   16     9.696e-07  Converged.
   ... Converged in 16 steps (norm: 9.69578e-07)
------------------------------------
  Starting TPA DIIS iterations ... 
------------------------------------ 
   It     Res. Norm  Remark
------------------------------------
                       Guess.
    1     9.945e+00  
    2     1.748e+01  
    3     2.611e+00  
    4     1.045e+00  
    5     2.995e-01  
    6     1.365e-01  
    7     3.903e-02  
    8     6.867e-03  
    9     2.774e-03  
   10     4.819e-04  
   11     1.657e-04  
   12     2.884e-05  
   13     9.947e-06  
   14     4.786e-06  
   15     1.530e-06  
   16     1.258e-06  
   17     5.418e-07  Converged.
   ... Converged in 17 steps (norm: 5.41786e-07)
------------------------------------
  Starting TPA DIIS iterations ... 
------------------------------------ 
   It     Res. Norm  Remark
------------------------------------
                       Guess.
    1     8.479e-01  
    2     7.659e-01  
    3     3.515e-01  
    4     3.034e-01  
    5     5.112e-02  
    6     2.398e-02  
    7     5.672e-03  
    8     1.881e-03  
    9     6.966e-04  
   10     7.492e-05  
   11     3.404e-05  
   12     1.404e-05  
   13     1.619e-05  
   14     6.511e-06  
   15     2.788e-06  
   16     1.597e-06  
   17     4.845e-07  Converged.
   ... Converged in 17 steps (norm: 4.84529e-07)
------------------------------------
  Starting TPA DIIS iterations ... 
------------------------------------ 
   It     Res. Norm  Remark
------------------------------------
                       Guess.
    1     1.143e+01  
    2     2.064e+01  
    3     2.977e+00  
    4     1.205e+00  
    5     3.447e-01  
    6     1.559e-01  
    7     4.525e-02  
    8     7.707e-03  
    9     3.194e-03  
   10     5.544e-04  
   11     1.911e-04  
   12     3.329e-05  
   13     1.276e-05  
   14     5.744e-06  
   15     2.448e-06  
   16     1.264e-06  
   17     3.350e-07  Converged.
   ... Converged in 17 steps (norm: 3.35027e-07)
------------------------------------
  Starting TPA DIIS iterations ... 
------------------------------------ 
   It     Res. Norm  Remark
------------------------------------
                       Guess.
    1     1.083e+01  
    2     1.956e+01  
    3     2.843e+00  
    4     1.190e+00  
    5     3.437e-01  
    6     1.581e-01  
    7     4.486e-02  
    8     7.876e-03  
    9     3.208e-03  
   10     5.570e-04  
   11     1.908e-04  
   12     3.412e-05  
   13     1.166e-05  
   14     6.071e-06  
   15     2.055e-06  
   16     1.698e-06  
   17     7.181e-07  Converged.
   ... Converged in 17 steps (norm: 7.18068e-07)
------------------------------------
  Starting TPA DIIS iterations ... 
------------------------------------ 
   It     Res. Norm  Remark
------------------------------------
                       Guess.
    1     8.628e-01  
    2     7.998e-01  
    3     3.756e-01  
    4     3.444e-01  
    5     5.687e-02  
    6     2.691e-02  
    7     6.598e-03  
    8     1.942e-03  
    9     7.722e-04  
   10     8.728e-05  
   11     4.038e-05  
   12     1.668e-05  
   13     1.996e-05  
   14     8.178e-06  
   15     3.772e-06  
   16     2.082e-06  
   17     6.704e-07  Converged.
   ... Converged in 17 steps (norm: 6.70402e-07)
------------------------------------
  Starting TPA DIIS iterations ... 
------------------------------------ 
   It     Res. Norm  Remark
------------------------------------
                       Guess.
    1     1.238e+01  
    2     2.292e+01  
    3     3.221e+00  
    4     1.359e+00  
    5     3.911e-01  
    6     1.783e-01  
    7     5.141e-02  
    8     8.741e-03  
    9     3.651e-03  
   10     6.329e-04  
   11     2.171e-04  
   12     3.861e-05  
   13     1.499e-05  
   14     7.088e-06  
   15     3.067e-06  
   16     1.607e-06  
   17     4.207e-07  Converged.
   ... Converged in 17 steps (norm: 4.20675e-07)
------------------------------------
  Starting TPA DIIS iterations ... 
------------------------------------ 
   It     Res. Norm  Remark
------------------------------------
                       Guess.
    1     1.173e+01  
    2     2.172e+01  
    3     3.075e+00  
    4     1.341e+00  
    5     3.901e-01  
    6     1.809e-01  
    7     5.098e-02  
    8     8.933e-03  
    9     3.666e-03  
   10     6.359e-04  
   11     2.167e-04  
   12     3.991e-05  
   13     1.354e-05  
   14     7.555e-06  
   15     2.727e-06  
   16     2.234e-06  
   17     9.119e-07  Converged.
   ... Converged in 17 steps (norm: 9.11941e-07)
------------------------------------
  Starting TPA DIIS iterations ... 
------------------------------------ 
   It     Res. Norm  Remark
------------------------------------
                       Guess.
    1     8.766e-01  
    2     8.328e-01  
    3     3.993e-01  
    4     3.840e-01  
    5     6.281e-02  
    6     2.977e-02  
    7     7.556e-03  
    8     1.987e-03  
    9     8.466e-04  
   10     1.002e-04  
   11     4.728e-05  
   12     1.957e-05  
   13     2.421e-05  
   14     1.007e-05  
   15     4.956e-06  
   16     2.634e-06  
   17     8.968e-07  Converged.
   ... Converged in 17 steps (norm: 8.96776e-07)
------------------------------------
  Two-photon absorbption ...  CPU 125.86 s  wall 31.42 s
  Transition density matrix of state singlet_A_1 printed to ASCII file 'State_singlet_A_1_Transition.txt'
  Transition density matrix of state singlet_A_2 printed to ASCII file 'State_singlet_A_2_Transition.txt'
  Transition density matrix of state singlet_A_3 printed to ASCII file 'State_singlet_A_3_Transition.txt'
  Transition density matrix of state singlet_A_4 printed to ASCII file 'State_singlet_A_4_Transition.txt'
  Transition density matrix of state singlet_A_5 printed to ASCII file 'State_singlet_A_5_Transition.txt'
  Transition density matrix of state singlet_A_6 printed to ASCII file 'State_singlet_A_6_Transition.txt'
  Transition density matrix of state singlet_A_7 printed to ASCII file 'State_singlet_A_7_Transition.txt'
  Transition density matrix of state singlet_A_8 printed to ASCII file 'State_singlet_A_8_Transition.txt'
  Transition density matrix of state singlet_A_9 printed to ASCII file 'State_singlet_A_9_Transition.txt'
  Transition density matrix of state singlet_A_10 printed to ASCII file 'State_singlet_A_10_Transition.txt'
  Transition properties ...  CPU 0.28 s  wall 0.46 s
  Difference density matrix of state singlet_A_1 printed to ASCII file 'State_singlet_A_1_Difference.txt'
  Total density matrix of state singlet_A_1 printed to ASCII file 'State_singlet_A_1_Total.txt'
  Difference density matrix of state singlet_A_2 printed to ASCII file 'State_singlet_A_2_Difference.txt'
  Total density matrix of state singlet_A_2 printed to ASCII file 'State_singlet_A_2_Total.txt'
  Difference density matrix of state singlet_A_3 printed to ASCII file 'State_singlet_A_3_Difference.txt'
  Total density matrix of state singlet_A_3 printed to ASCII file 'State_singlet_A_3_Total.txt'
  Difference density matrix of state singlet_A_4 printed to ASCII file 'State_singlet_A_4_Difference.txt'
  Total density matrix of state singlet_A_4 printed to ASCII file 'State_singlet_A_4_Total.txt'
  Difference density matrix of state singlet_A_5 printed to ASCII file 'State_singlet_A_5_Difference.txt'
  Total density matrix of state singlet_A_5 printed to ASCII file 'State_singlet_A_5_Total.txt'
  Difference density matrix of state singlet_A_6 printed to ASCII file 'State_singlet_A_6_Difference.txt'
  Total density matrix of state singlet_A_6 printed to ASCII file 'State_singlet_A_6_Total.txt'
  Difference density matrix of state singlet_A_7 printed to ASCII file 'State_singlet_A_7_Difference.txt'
  Total density matrix of state singlet_A_7 printed to ASCII file 'State_singlet_A_7_Total.txt'
  Difference density matrix of state singlet_A_8 printed to ASCII file 'State_singlet_A_8_Difference.txt'
  Total density matrix of state singlet_A_8 printed to ASCII file 'State_singlet_A_8_Total.txt'
  Difference density matrix of state singlet_A_9 printed to ASCII file 'State_singlet_A_9_Difference.txt'
  Total density matrix of state singlet_A_9 printed to ASCII file 'State_singlet_A_9_Total.txt'
  Difference density matrix of state singlet_A_10 printed to ASCII file 'State_singlet_A_10_Difference.txt'
  Total density matrix of state singlet_A_10 printed to ASCII file 'State_singlet_A_10_Total.txt'
  Properties ...  CPU 0.51 s  wall 0.80 s
  ISR TDMS ...  CPU 18.34 s  wall 6.07 s
  ISR transition properties ...  CPU 0.37 s  wall 0.18 s
  Sum-over-states TPA ...  CPU 0.00 s  wall 0.00 s

--------------------------------------------------------------------------------
                   State-averaged natural transition orbitals
--------------------------------------------------------------------------------
--------------------------------------------------------------------------------
  SA-NTO decomposition ...  CPU 0.01 s  wall 0.03 s

--------------------------------------------------------------------------------
                             Excited State Summary
--------------------------------------------------------------------------------
--------------------------------------------------------------------------------

  Excited state 1 (singlet, A)                                     [converged]
  ----------------------------------------------------------------------------
  Term symbol:  2 (1) A                                     R^2 =  5.34333e-14

  Total energy:                                            -77.9985204923 a.u.
  Excitation energy:                                               8.737880 eV

  Osc. strength:                                                      0.445745
  Trans. dip. moment [a.u.]:           [  -1.044707,    0.995338,    0.009407]
  <i|r^2|0> [a.u.]:                    [  -6.163176,    0.251358,    0.000355]
  Two-photon absorption cross-section (SoS) [a.u.]:                   0.002429
  Two-photon absorption matrix (SoS) [a.u.]:
                                       |   -0.013021    0.005254    0.000684 |
                                       |    0.005254    0.001090    0.000670 |
                                       |    0.000684    0.000670   -0.010900 |
  Two-photon absorption cross-section [a.u.]:                         0.001999
  Two-photon absorption matrix [a.u.]:
                                       |   -0.004179    0.006785   -0.000808 |
                                       |    0.006785    0.017104   -0.001615 |
                                       |   -0.000808   -0.001615   -0.009171 |

  Dip. moment [a.u.]:                  [  -0.001379,    0.000911,    0.000702]
  Total dipole [Debye]:                                               0.004564
  <r^2> [a.u.]:                        [ 176.207937,   35.658601,   11.869676]
  Total <r^2> [a.u.]:                                               223.736214

  V1^2 = 0.9715, V2^2 = 0.0285

  Important amplitudes:
      occ i     occ j     vir a      vir b          v   
    -----------------------------------------------------
     8 (A) A              9 (A) A                -0.6811
     6 (A) A             14 (A) A                 0.0624
     4 (A) A             10 (A) A                 0.0609
     7 (A) A             16 (A) A                -0.0567
     5 (A) A             13 (A) A                 0.0513
     6 (A) A             23 (A) A                 0.0487
     8 (A) A             20 (A) A                -0.0350
     6 (A) A             19 (A) A                 0.0308
     3 (A) A             12 (A) A                -0.0281
     5 (A) A             22 (A) A                -0.0215
     7 (A) A             11 (A) A                -0.0213
     4 (A) A             24 (A) A                 0.0188
     3 (A) A             26 (A) A                 0.0185
     8 (A) A   8 (A) B   17 (A) A   20 (A) B      0.0184
     8 (A) A   8 (A) B    9 (A) A   28 (A) B      0.0168
     6 (A) A             26 (A) A                 0.0163
     7 (A) A             21 (A) A                -0.0149
     3 (A) A             14 (A) A                 0.0139
     6 (A) A             12 (A) A                 0.0133
     3 (A) A   4 (A) B    9 (A) A    9 (A) B     -0.0129
     3 (A) A             19 (A) A                 0.0119
     8 (A) A   8 (A) B   18 (A) A   19 (A) B     -0.0113
     7 (A) A             32 (A) A                -0.0094
     7 (A) A             36 (A) A                -0.0085
     3 (A) A             23 (A) A                 0.0081
     8 (A) A   8 (A) B   25 (A) A   29 (A) B     -0.0076
     6 (A) A             35 (A) A                 0.0069
     6 (A) A             40 (A) A                 0.0068
     3 (A) A   6 (A) B    9 (A) A   28 (A) B      0.0065
     6 (A) A   8 (A) A   19 (A) A   28 (A) A      0.0061
     5 (A) A   7 (A) B    9 (A) A    9 (A) B      0.0060
     5 (A) A   8 (A) B   11 (A) A   20 (A) B      0.0059
     7 (A) A   8 (A) B   13 (A) A   20 (A) B     -0.0059
     5 (A) A   8 (A) B   16 (A) A    9 (A) B      0.0059
     5 (A) A   8 (A) B   11 (A) A    9 (A) B     -0.0058
     3 (A) A   5 (A) B    9 (A) A   25 (A) B      0.0058
     3 (A) A             40 (A) A                 0.0057
     7 (A) A   8 (A) B   22 (A) A   20 (A) B      0.0057
     6 (A) A   8 (A) A    9 (A) A   18 (A) A      0.0057
     8 (A) A   8 (A) B   19 (A) A   30 (A) B     -0.0056
    -----------------------------------------------------

  Density matrix analysis:
  ------------------------
  NOs
    Occupation of frontier NOs:
       0.9494   1.0218
    Number of electrons: 16.000000
    Number of unpaired electrons: n_u =  2.31352, n_u,nl =  2.03268
    NO participation ratio (PR_NO):  2.864646
  
  
  Mulliken Population Analysis
  Atom      Charge (e)              h+              e-           Del q
  --------------------------------------------------------------------
   1 H        0.059042        0.020255       -0.012558        0.007696
   2 C       -0.116099        0.490991       -0.505930       -0.014939
   3 H        0.058536        0.020116       -0.012664        0.007453
   4 C       -0.117281        0.490636       -0.506265       -0.015629
   5 H        0.057532        0.020168       -0.012567        0.007601
   6 H        0.058271        0.020341       -0.012522        0.007818
  --------------------------------------------------------------------
  Sum:        0.000000        1.062506       -1.062506       -0.000000
  
  Multipole moment analysis of the density matrix
    Molecular charge:                      0.000000
    Number of electrons:                   16.000000
      Center of electronic charge [Ang]: [ -1.561156,  -0.065632,   0.001955]
    Total nuclear charge:                  16.000000
      Center of nuclear charge [Ang]:    [ -1.561201,  -0.065602,   0.001978]
    Dipole moment [D]:                     0.004564
      Cartesian components [D]:          [ -0.003505,   0.002315,   0.001785]
    RMS size of the density [Ang]:         1.214193
      Cartesian components [Ang]:        [  0.804205,   0.787262,   0.455781]
  
  Exciton analysis of the difference density matrix
    <r_h> [Ang]:                  [ -1.560403,  -0.065889,   0.001684]
    <r_e> [Ang]:                  [ -1.560462,  -0.065655,   0.001627]
    |<r_e - r_h>| [Ang]:            0.000247
    Hole size [Ang]:                1.285418
      Cartesian components [Ang]: [  0.728347,   0.712690,   0.783507]
    Electron size [Ang]:            1.463197
      Cartesian components [Ang]: [  0.854034,   0.830506,   0.849607]

  Transition density matrix analysis:
  -----------------------------------
  
  CT numbers (Mulliken)
    omega =     0.9535
    <Phe> =    -0.1606
  
  Exciton analysis of the transition density matrix
    Trans. dipole moment [D]:             1.833848
      Cartesian components [D]:         [ -1.327690,   1.264948,   0.011956]
    <r_h> [Ang]:                        [ -1.560090,  -0.066094,   0.001746]
    <r_e> [Ang]:                        [ -1.560508,  -0.065648,   0.001582]
    |<r_e - r_h>| [Ang]:                  0.000633
    Hole size [Ang]:                      1.214172
      Cartesian components [Ang]:       [  0.649558,   0.636507,   0.804455]
    Electron size [Ang]:                  1.486013
      Cartesian components [Ang]:       [  0.864437,   0.839406,   0.869701]
    RMS electron-hole separation [Ang]:   1.936539
      Cartesian components [Ang]:       [  1.106651,   1.074980,   1.170437]
    Covariance(r_h, r_e) [Ang^2]:        -0.033867
    Correlation coefficient:             -0.018770
    Center-of-mass size [Ang]:            0.950620
      Cartesian components [Ang]:       [  0.527655,   0.515729,   0.599402]

  Decomposition into state-averaged NTOs
    H- 0 -> L+ 0:  0.6699 ( 89.7%)
    H- 2 -> L+ 5:  0.0837 (  1.4%)
                   omega =  95.4%
  ----------------------------------------------------------------------------


  Excited state 2 (singlet, A)                                     [converged]
  ----------------------------------------------------------------------------
  Term symbol:  3 (1) A                                     R^2 =  7.39939e-14

  Total energy:                                            -77.9867243078 a.u.
  Excitation energy:                                               9.058870 eV

  Osc. strength:                                                      0.000037
  Trans. dip. moment [a.u.]:           [  -0.004359,    0.005833,   -0.010611]
  <i|r^2|0> [a.u.]:                    [   0.037591,    0.088560,   -0.150344]
  Two-photon absorption cross-section (SoS) [a.u.]:                   4.996941
  Two-photon absorption matrix (SoS) [a.u.]:
                                       |    0.052921    0.059218   -0.545265 |
                                       |    0.059218    0.065687   -0.559649 |
                                       |   -0.545265   -0.559649   -0.118589 |
  Two-photon absorption cross-section [a.u.]:                         0.076954
  Two-photon absorption matrix [a.u.]:
                                       |   -0.002552   -0.006791    0.049410 |
                                       |   -0.006791   -0.012002    0.083358 |
                                       |    0.049410    0.083358    0.014690 |

  Dip. moment [a.u.]:                  [  -0.000205,    0.025581,    0.002828]
  Total dipole [Debye]:                                               0.065418
  <r^2> [a.u.]:                        [ 174.680978,   33.964500,   13.170605]
  Total <r^2> [a.u.]:                                               221.816083

  V1^2 = 0.9542, V2^2 = 0.0458

  Important amplitudes:
      occ i     occ j     vir a      vir b          v   
    -----------------------------------------------------
     7 (A) A              9 (A) A                -0.6686
     8 (A) A             11 (A) A                -0.1495
     7 (A) A             20 (A) A                -0.0758
     5 (A) A   8 (A) B    9 (A) A    9 (A) B      0.0316
     8 (A) A             16 (A) A                 0.0274
     8 (A) A             10 (A) A                 0.0215
     8 (A) A             21 (A) A                -0.0177
     5 (A) A             28 (A) A                 0.0150
     4 (A) A   7 (A) B    9 (A) A   19 (A) B      0.0135
     5 (A) A   7 (A) B    9 (A) A   16 (A) B     -0.0133
     7 (A) A   8 (A) B   20 (A) A   17 (A) B      0.0105
     7 (A) A   8 (A) A    9 (A) A   28 (A) A     -0.0098
     5 (A) A   8 (A) B    9 (A) A   20 (A) B      0.0095
     4 (A) A   6 (A) B    9 (A) A   16 (A) B     -0.0091
     5 (A) A   6 (A) A    9 (A) A   23 (A) A      0.0091
     5 (A) A   6 (A) A    9 (A) A   14 (A) A      0.0089
     5 (A) A   6 (A) B    9 (A) A   19 (A) B      0.0086
     8 (A) A   7 (A) B    9 (A) A   28 (A) B      0.0085
     4 (A) A   5 (A) A    9 (A) A   10 (A) A     -0.0085
     6 (A) A   7 (A) B    9 (A) A   18 (A) B      0.0083
     5 (A) A   6 (A) B    9 (A) A   23 (A) B      0.0080
     3 (A) A   7 (A) B    9 (A) A   18 (A) B     -0.0079
     5 (A) A   7 (A) A    9 (A) A   16 (A) A     -0.0079
     4 (A) A   8 (A) B    9 (A) A   25 (A) B     -0.0077
     7 (A) A   8 (A) B   17 (A) A   20 (A) B      0.0074
     4 (A) A   7 (A) B   19 (A) A    9 (A) B      0.0074
     5 (A) A   5 (A) B    9 (A) A   13 (A) B      0.0072
     7 (A) A   8 (A) B   19 (A) A   18 (A) B     -0.0072
     5 (A) A   8 (A) A    9 (A) A   20 (A) A      0.0069
     4 (A) A   5 (A) B    9 (A) A   18 (A) B      0.0067
     7 (A) A   7 (A) B   20 (A) A   22 (A) B      0.0065
     8 (A) A             12 (A) A                -0.0065
     7 (A) A   8 (A) B   17 (A) A    9 (A) B      0.0065
     5 (A) A   6 (A) B    9 (A) A   14 (A) B      0.0063
     4 (A) A   7 (A) A    9 (A) A   19 (A) A      0.0061
     4 (A) A   5 (A) B   10 (A) A    9 (A) B      0.0061
     4 (A) A   7 (A) B    9 (A) A   14 (A) B     -0.0060
     5 (A) A   7 (A) B   11 (A) A   20 (A) B      0.0060
     5 (A) A             37 (A) A                 0.0057
     4 (A) A   8 (A) A    9 (A) A   25 (A) A     -0.0057
    -----------------------------------------------------

  Density matrix analysis:
  ------------------------
  NOs
    Occupation of frontier NOs:
       0.9562   1.0554
    Number of electrons: 16.000000
    Number of unpaired electrons: n_u =  2.35543, n_u,nl =  2.06398
    NO participation ratio (PR_NO):  3.037803
  
  
  Mulliken Population Analysis
  Atom      Charge (e)              h+              e-           Del q
  --------------------------------------------------------------------
   1 H        0.148694        0.118373       -0.021025        0.097348
   2 C       -0.301012        0.269935       -0.469786       -0.199851
   3 H        0.150794        0.128824       -0.029114        0.099710
   4 C       -0.301570        0.273950       -0.473868       -0.199918
   5 H        0.157858        0.129156       -0.021229        0.107927
   6 H        0.145237        0.122950       -0.028166        0.094784
  --------------------------------------------------------------------
  Sum:        0.000000        1.043189       -1.043189       -0.000000
  
  Multipole moment analysis of the density matrix
    Molecular charge:                      0.000000
    Number of electrons:                   16.000000
      Center of electronic charge [Ang]: [ -1.561194,  -0.066448,   0.001885]
    Total nuclear charge:                  16.000000
      Center of nuclear charge [Ang]:    [ -1.561201,  -0.065602,   0.001978]
    Dipole moment [D]:                     0.065418
      Cartesian components [D]:          [ -0.000521,   0.065020,   0.007187]
    RMS size of the density [Ang]:         1.200179
      Cartesian components [Ang]:        [  0.787338,   0.768130,   0.480110]
  
  Exciton analysis of the difference density matrix
    <r_h> [Ang]:                  [ -1.571032,  -0.062719,   0.001761]
    <r_e> [Ang]:                  [ -1.571687,  -0.074995,   0.000625]
    |<r_e - r_h>| [Ang]:            0.012346
    Hole size [Ang]:                1.486039
      Cartesian components [Ang]: [  0.993490,   1.006892,   0.455475]
    Electron size [Ang]:            1.478846
      Cartesian components [Ang]: [  0.881945,   0.861704,   0.816470]

  Transition density matrix analysis:
  -----------------------------------
  
  CT numbers (Mulliken)
    omega =     0.9218
    <Phe> =    -0.0121
  
  Exciton analysis of the transition density matrix
    Trans. dipole moment [D]:             0.016355
      Cartesian components [D]:         [ -0.005539,   0.007412,  -0.013485]
    <r_h> [Ang]:                        [ -1.572204,  -0.061589,   0.001849]
    <r_e> [Ang]:                        [ -1.571241,  -0.076436,   0.000473]
    |<r_e - r_h>| [Ang]:                  0.014941
    Hole size [Ang]:                      1.514106
      Cartesian components [Ang]:       [  1.015108,   1.031505,   0.445049]
    Electron size [Ang]:                  1.476003
      Cartesian components [Ang]:       [  0.872890,   0.851047,   0.832087]
    RMS electron-hole separation [Ang]:   2.094834
      Cartesian components [Ang]:       [  1.323110,   1.322380,   0.942880]
    Covariance(r_h, r_e) [Ang^2]:         0.041498
    Correlation coefficient:              0.018569
    Center-of-mass size [Ang]:            1.067017
      Cartesian components [Ang]:       [  0.677153,   0.676036,   0.472190]

  Decomposition into state-averaged NTOs
    H- 1 -> L+ 0:  0.6609 ( 87.4%)
    H- 0 -> L+ 2:  0.1492 (  4.5%)
                   omega =  92.2%
  ----------------------------------------------------------------------------


  Excited state 3 (singlet, A)                                     [converged]
  ----------------------------------------------------------------------------
  Term symbol:  4 (1) A                                     R^2 =  8.61593e-14

  Total energy:                                            -77.9829398183 a.u.
  Excitation energy:                                               9.161851 eV

  Osc. strength:                                                      0.024915
  Trans. dip. moment [a.u.]:           [  -0.015592,   -0.019805,    0.332208]
  <i|r^2|0> [a.u.]:                    [  -0.092449,    0.000606,   -0.006882]
  Two-photon absorption cross-section (SoS) [a.u.]:                   0.014950
  Two-photon absorption matrix (SoS) [a.u.]:
                                       |   -0.021183   -0.003742    0.030964 |
                                       |   -0.003742    0.014410    0.023610 |
                                       |    0.030964    0.023610    0.000367 |
  Two-photon absorption cross-section [a.u.]:                         0.019889
  Two-photon absorption matrix [a.u.]:
                                       |   -0.019223   -0.003353    0.041529 |
                                       |   -0.003353    0.007784    0.022653 |
                                       |    0.041529    0.022653    0.003331 |

  Dip. moment [a.u.]:                  [   0.009968,    0.039291,    0.002023]
  Total dipole [Debye]:                                               0.103160
  <r^2> [a.u.]:                        [ 180.989824,   40.605401,   11.028084]
  Total <r^2> [a.u.]:                                               232.623309

  V1^2 = 0.9587, V2^2 = 0.0413

  Important amplitudes:
      occ i     occ j     vir a      vir b          v   
    -----------------------------------------------------
     8 (A) A             10 (A) A                -0.6887
     8 (A) A             24 (A) A                -0.0507
     8 (A) A             18 (A) A                 0.0313
     4 (A) A              9 (A) A                 0.0239
     7 (A) A              9 (A) A                -0.0220
     8 (A) A   8 (A) B    9 (A) A   12 (A) B     -0.0219
     8 (A) A             15 (A) A                -0.0173
     8 (A) A   8 (A) B   10 (A) A   17 (A) B     -0.0172
     5 (A) A   8 (A) B   11 (A) A   10 (A) B     -0.0165
     7 (A) A   8 (A) B   13 (A) A   10 (A) B      0.0141
     4 (A) A   8 (A) B   12 (A) A   10 (A) B      0.0111
     6 (A) A   8 (A) A   10 (A) A   15 (A) A      0.0109
     7 (A) A   8 (A) B   22 (A) A   10 (A) B     -0.0108
     6 (A) A   8 (A) B   15 (A) A   10 (A) B     -0.0107
     4 (A) A   8 (A) A   10 (A) A   12 (A) A     -0.0106
     7 (A) A   8 (A) A   10 (A) A   22 (A) A      0.0099
     7 (A) A   8 (A) A   10 (A) A   13 (A) A     -0.0097
     5 (A) A   8 (A) B   21 (A) A   10 (A) B     -0.0094
     5 (A) A   8 (A) A   10 (A) A   11 (A) A      0.0094
     6 (A) A   8 (A) A   10 (A) A   18 (A) A      0.0088
     6 (A) A   8 (A) B   10 (A) A   10 (A) B      0.0087
     7 (A) A   8 (A) A   12 (A) A   16 (A) A     -0.0081
     3 (A) A   4 (A) B   10 (A) A    9 (A) B     -0.0079
     5 (A) A   8 (A) A   10 (A) A   21 (A) A      0.0079
     4 (A) A   8 (A) B   19 (A) A   10 (A) B     -0.0075
     8 (A) A   8 (A) B    9 (A) A   23 (A) B     -0.0075
     8 (A) A   8 (A) B   10 (A) A   28 (A) B      0.0073
     3 (A) A   8 (A) B   10 (A) A   10 (A) B     -0.0072
     5 (A) A   8 (A) B   10 (A) A   11 (A) B     -0.0072
     3 (A) A   8 (A) A   10 (A) A   24 (A) A      0.0071
     7 (A) A   8 (A) B   16 (A) A   12 (A) B      0.0070
     3 (A) A   8 (A) B   10 (A) A   18 (A) B      0.0069
     8 (A) A   8 (A) B    9 (A) A   19 (A) B      0.0068
     6 (A) A   8 (A) B   18 (A) A   10 (A) B     -0.0067
     3 (A) A   6 (A) B   10 (A) A   28 (A) B      0.0062
     7 (A) A   8 (A) B   12 (A) A   11 (A) B     -0.0058
     6 (A) A             28 (A) A                -0.0057
     3 (A) A   5 (A) B   10 (A) A   25 (A) B      0.0056
     5 (A) A   8 (A) A   10 (A) A   16 (A) A     -0.0056
     3 (A) A   8 (A) A   10 (A) A   18 (A) A      0.0056
    -----------------------------------------------------

  Density matrix analysis:
  ------------------------
  NOs
    Occupation of frontier NOs:
       0.9824   0.9840
    Number of electrons: 16.000000
    Number of unpaired electrons: n_u =  2.28739, n_u,nl =  2.02487
    NO participation ratio (PR_NO):  2.696847
  
  
  Mulliken Population Analysis
  Atom      Charge (e)              h+              e-           Del q
  --------------------------------------------------------------------
   1 H       -0.159619        0.054072       -0.265037       -0.210965
   2 C        0.325366        0.538727       -0.112201        0.426526
   3 H       -0.168891        0.053489       -0.273463       -0.219974
   4 C        0.323949        0.535456       -0.109855        0.425601
   5 H       -0.157573        0.054315       -0.261819       -0.207504
   6 H       -0.163232        0.053731       -0.267415       -0.213684
  --------------------------------------------------------------------
  Sum:        0.000000        1.289790       -1.289790        0.000000
  
  Multipole moment analysis of the density matrix
    Molecular charge:                      0.000000
    Number of electrons:                   16.000000
      Center of electronic charge [Ang]: [ -1.561531,  -0.066902,   0.001911]
    Total nuclear charge:                  16.000000
      Center of nuclear charge [Ang]:    [ -1.561201,  -0.065602,   0.001978]
    Dipole moment [D]:                     0.103160
      Cartesian components [D]:          [  0.025337,   0.099868,   0.005142]
    RMS size of the density [Ang]:         1.276113
      Cartesian components [Ang]:        [  0.853971,   0.840352,   0.439326]
  
  Exciton analysis of the difference density matrix
    <r_h> [Ang]:                  [ -1.559858,  -0.066631,   0.001801]
    <r_e> [Ang]:                  [ -1.564563,  -0.082186,   0.001213]
    |<r_e - r_h>| [Ang]:            0.016261
    Hole size [Ang]:                1.410210
      Cartesian components [Ang]: [  0.833862,   0.819964,   0.788050]
    Electron size [Ang]:            2.074569
      Cartesian components [Ang]: [  1.372159,   1.376148,   0.726108]

  Transition density matrix analysis:
  -----------------------------------
  
  CT numbers (Mulliken)
    omega =     0.9259
    <Phe> =    -0.0109
  
  Exciton analysis of the transition density matrix
    Trans. dipole moment [D]:             0.423408
      Cartesian components [D]:         [ -0.019816,  -0.025170,   0.422194]
    <r_h> [Ang]:                        [ -1.558842,  -0.065033,   0.001786]
    <r_e> [Ang]:                        [ -1.565419,  -0.087688,   0.000992]
    |<r_e - r_h>| [Ang]:                  0.023604
    Hole size [Ang]:                      1.213289
      Cartesian components [Ang]:       [  0.637022,   0.624002,   0.822736]
    Electron size [Ang]:                  2.293413
      Cartesian components [Ang]:       [  1.515644,   1.522659,   0.802545]
    RMS electron-hole separation [Ang]:   2.584754
      Cartesian components [Ang]:       [  1.636574,   1.638710,   1.147696]
    Covariance(r_h, r_e) [Ang^2]:         0.025710
    Correlation coefficient:              0.009239
    Center-of-mass size [Ang]:            1.302232
      Cartesian components [Ang]:       [  0.825774,   0.826269,   0.575487]

  Decomposition into state-averaged NTOs
    H- 0 -> L+ 1: -0.6793 ( 92.3%)
                   omega =  92.6%
  ----------------------------------------------------------------------------


  Excited state 4 (singlet, A)                                     [converged]
  ----------------------------------------------------------------------------
  Term symbol:  5 (1) A                                     R^2 =  7.89442e-14

  Total energy:                                            -77.9583733629 a.u.
  Excitation energy:                                               9.830339 eV

  Osc. strength:                                                      0.000009
  Trans. dip. moment [a.u.]:           [   0.001643,   -0.002226,    0.005478]
  <i|r^2|0> [a.u.]:                    [   0.027785,    0.017432,   -0.036110]
  Two-photon absorption cross-section (SoS) [a.u.]:                 149.089492
  Two-photon absorption matrix (SoS) [a.u.]:
                                       |    0.289927    0.323766   -3.025700 |
                                       |    0.323766    0.357321   -3.010178 |
                                       |   -3.025700   -3.010178   -0.647242 |
  Two-photon absorption cross-section [a.u.]:                        91.819933
  Two-photon absorption matrix [a.u.]:
                                       |    0.227699    0.254034   -2.362695 |
                                       |    0.254034    0.280461   -2.374076 |
                                       |   -2.362695   -2.374076   -0.508208 |

  Dip. moment [a.u.]:                  [  -0.049414,   -0.034362,   -0.005210]
  Total dipole [Debye]:                                               0.153553
  <r^2> [a.u.]:                        [ 181.126095,   40.500235,   10.771634]
  Total <r^2> [a.u.]:                                               232.397964

  V1^2 = 0.9635, V2^2 = 0.0365

  Important amplitudes:
      occ i     occ j     vir a      vir b          v   
    -----------------------------------------------------
     8 (A) A             11 (A) A                -0.6693
     7 (A) A              9 (A) A                 0.1515
     8 (A) A             21 (A) A                -0.0780
     8 (A) A             16 (A) A                 0.0643
     8 (A) A   8 (A) B    9 (A) A   13 (A) B      0.0167
     5 (A) A   8 (A) B   11 (A) A   11 (A) B     -0.0155
     8 (A) A   8 (A) B   11 (A) A   17 (A) B     -0.0140
     7 (A) A             20 (A) A                 0.0139
     8 (A) A             12 (A) A                -0.0127
     7 (A) A   8 (A) B   13 (A) A   11 (A) B      0.0127
     5 (A) A   8 (A) A   11 (A) A   21 (A) A      0.0110
     4 (A) A   8 (A) B   12 (A) A   11 (A) B      0.0110
     8 (A) A   8 (A) B    9 (A) A   22 (A) B     -0.0107
     6 (A) A              9 (A) A                -0.0107
     7 (A) A   8 (A) A   11 (A) A   22 (A) A      0.0096
     6 (A) A   8 (A) B   10 (A) A   11 (A) B      0.0090
     6 (A) A   8 (A) B   15 (A) A   11 (A) B     -0.0090
     7 (A) A   8 (A) B   22 (A) A   11 (A) B     -0.0089
     3 (A) A   4 (A) B   11 (A) A    9 (A) B     -0.0083
     3 (A) A   8 (A) B   11 (A) A   18 (A) B      0.0081
     6 (A) A   8 (A) A   11 (A) A   15 (A) A      0.0080
     7 (A) A   8 (A) A   13 (A) A   16 (A) A      0.0078
     7 (A) A   8 (A) A   11 (A) A   13 (A) A     -0.0077
     5 (A) A   8 (A) B   21 (A) A   11 (A) B     -0.0071
     4 (A) A   8 (A) B   19 (A) A   11 (A) B     -0.0070
     5 (A) A   8 (A) B    9 (A) A    9 (A) B     -0.0068
     4 (A) A   8 (A) A   11 (A) A   12 (A) A     -0.0063
     6 (A) A   8 (A) A   11 (A) A   18 (A) A      0.0063
     3 (A) A   6 (A) B   11 (A) A   28 (A) B      0.0060
     6 (A) A   8 (A) B   18 (A) A   11 (A) B     -0.0060
     7 (A) A   8 (A) B   16 (A) A   13 (A) B     -0.0057
     3 (A) A   8 (A) A   11 (A) A   18 (A) A      0.0056
     5 (A) A   8 (A) B   10 (A) A   10 (A) B     -0.0056
     3 (A) A   8 (A) B   11 (A) A   30 (A) B      0.0055
     3 (A) A   5 (A) B   11 (A) A   25 (A) B      0.0054
     6 (A) A   8 (A) B   11 (A) A   10 (A) B      0.0054
     7 (A) A   8 (A) B   12 (A) A   10 (A) B     -0.0054
     8 (A) A   8 (A) B   20 (A) A   22 (A) B     -0.0053
     3 (A) A   8 (A) A   11 (A) A   24 (A) A      0.0053
     5 (A) A   8 (A) A   11 (A) A   16 (A) A     -0.0049
    -----------------------------------------------------

  Density matrix analysis:
  ------------------------
  NOs
    Occupation of frontier NOs:
       0.9398   1.0287
    Number of electrons: 16.000000
    Number of unpaired electrons: n_u =  2.31936, n_u,nl =  2.04975
    NO participation ratio (PR_NO):  2.919862
  
  
  Mulliken Population Analysis
  Atom      Charge (e)              h+              e-           Del q
  --------------------------------------------------------------------
   1 H       -0.154431        0.045661       -0.251438       -0.205776
   2 C        0.275247        0.497085       -0.120678        0.376407
   3 H       -0.122013        0.047262       -0.220359       -0.173096
   4 C        0.272279        0.496026       -0.122094        0.373931
   5 H       -0.134919        0.047581       -0.232431       -0.184850
   6 H       -0.136164        0.045723       -0.232339       -0.186616
  --------------------------------------------------------------------
  Sum:        0.000000        1.179339       -1.179339       -0.000000
  
  Multipole moment analysis of the density matrix
    Molecular charge:                      0.000000
    Number of electrons:                   16.000000
      Center of electronic charge [Ang]: [ -1.559567,  -0.064466,   0.002150]
    Total nuclear charge:                  16.000000
      Center of nuclear charge [Ang]:    [ -1.561201,  -0.065602,   0.001978]
    Dipole moment [D]:                     0.153553
      Cartesian components [D]:          [ -0.125599,  -0.087339,  -0.013242]
    RMS size of the density [Ang]:         1.277094
      Cartesian components [Ang]:        [  0.858942,   0.839447,   0.434187]
  
  Exciton analysis of the difference density matrix
    <r_h> [Ang]:                  [ -1.559385,  -0.064713,   0.001912]
    <r_e> [Ang]:                  [ -1.537884,  -0.048675,   0.004514]
    |<r_e - r_h>| [Ang]:            0.026949
    Hole size [Ang]:                1.395245
      Cartesian components [Ang]: [  0.817845,   0.808118,   0.790433]
    Electron size [Ang]:            2.124188
      Cartesian components [Ang]: [  1.443123,   1.402951,   0.679189]

  Transition density matrix analysis:
  -----------------------------------
  
  CT numbers (Mulliken)
    omega =     0.9298
    <Phe> =    -0.0135
  
  Exciton analysis of the transition density matrix
    Trans. dipole moment [D]:             0.007799
      Cartesian components [D]:         [  0.002088,  -0.002828,   0.006962]
    <r_h> [Ang]:                        [ -1.560805,  -0.065662,   0.001680]
    <r_e> [Ang]:                        [ -1.533730,  -0.045244,   0.005001]
    |<r_e - r_h>| [Ang]:                  0.034073
    Hole size [Ang]:                      1.228204
      Cartesian components [Ang]:       [  0.657037,   0.651891,   0.807357]
    Electron size [Ang]:                  2.261964
      Cartesian components [Ang]:       [  1.537413,   1.494094,   0.721475]
    RMS electron-hole separation [Ang]:   2.563458
      Cartesian components [Ang]:       [  1.663609,   1.622459,   1.082288]
    Covariance(r_h, r_e) [Ang^2]:         0.027406
    Correlation coefficient:              0.009865
    Center-of-mass size [Ang]:            1.292264
      Cartesian components [Ang]:       [  0.840210,   0.818933,   0.541611]

  Decomposition into state-averaged NTOs
    H- 0 -> L+ 2:  0.6647 ( 88.4%)
    H- 1 -> L+ 0: -0.1494 (  4.5%)
                   omega =  93.0%
  ----------------------------------------------------------------------------


  Excited state 5 (singlet, A)                                     [converged]
  ----------------------------------------------------------------------------
  Term symbol:  6 (1) A                                     R^2 =  5.48180e-14

  Total energy:                                            -77.9445753950 a.u.
  Excitation energy:                                              10.205800 eV

  Osc. strength:                                                      0.000000
  Trans. dip. moment [a.u.]:           [  -0.000233,   -0.000280,   -0.000091]
  <i|r^2|0> [a.u.]:                    [  -0.089944,    0.103683,   -0.015298]
  Two-photon absorption cross-section (SoS) [a.u.]:                 166.911786
  Two-photon absorption matrix (SoS) [a.u.]:
                                       |   -0.307387   -0.038389    3.228507 |
[...]
    16   -1.486561977614e-03
    17   -1.725464292426e-03
    18   -3.091727931341e-04
    19   -3.468097427355e-03
    20    1.204060759249e-02
    21    9.380252236006e-01
    22   -2.525720975668e-04
    23    1.397588161972e-02
    24    8.084934703402e-04
    25    7.012120386116e-02
    26   -5.224565560833e-02
    27   -1.393490593222e+00
    28    9.859508000183e-02
    29   -9.170586470735e-02
    30   -9.264208107956e-04
    31    3.887608795938e-01
    32   -3.595221001447e-01
    33   -3.539830101767e-03
    34    1.556824497070e-02
    35   -1.462150383541e-03
    36   -1.778083578641e-03
    37   -7.185618338739e-05
    38   -3.044660196882e-03
    39    9.400325753740e-03
    40    9.233691079396e-01
    41    2.793936443201e-04
    42   -1.378980281490e-02
    43   -8.192872098103e-04
    44    1.049898994480e-02
    45    9.444847361551e-01
    46    1.416097737684e-02
    47    3.828477532885e-04
    48    6.887610586554e-04
Sym=X
Ene= 0.232772
Spin=Alpha
Occup=0
     1    2.587936821504e-02
     2    1.248310692620e+00
     3   -1.447010091610e-02
     4   -3.927979882510e-03
     5   -9.081350462876e-04
     6    3.811917593113e-03
     7   -4.383440005965e-03
     8   -6.303052959198e-02
     9   -1.560344265358e-01
    10   -1.576811545239e-01
    11   -1.657595855204e-02
    12   -5.674282720627e-01
    13   -5.551539382905e-01
    14   -5.911562808959e-02
    15    6.123287241012e-04
    16   -8.009580513479e-05
    17   -7.848081500278e-05
    18   -2.189650535003e-04
    19   -4.199915733274e-04
    20   -2.491717039017e-02
    21   -1.152038301592e+00
    22   -2.468637707935e-03
    23   -1.344314881835e-02
    24   -9.058089346082e-04
    25   -2.701719569606e-03
    26    3.476427050832e-03
    27    3.320218975802e-02
    28   -1.529587633686e-01
    29   -1.592846806577e-01
    30   -1.684549234515e-02
    31   -5.447031329144e-01
    32   -5.533749142696e-01
    33   -5.926163778237e-02
    34   -4.090789968777e-04
    35    7.267322065582e-05
    36    5.468128915918e-06
    37    5.299995822297e-04
    38    3.445195625633e-04
    39    2.484616158054e-02
    40    1.156447094699e+00
    41   -2.425798034537e-03
    42   -1.370322754125e-02
    43   -9.391566555132e-04
    44   -2.609942586876e-02
    45   -1.215018552738e+00
    46   -1.414917266355e-02
    47   -3.778442367617e-03
    48   -9.000082118693e-04
Sym=X
Ene= 0.239560
Spin=Alpha
Occup=0
     1   -1.643375962562e-02
     2   -1.049259624058e+00
     3    1.658980943388e-02
     4    8.871018166652e-03
     5    1.322109373368e-03
     6   -8.651195909198e-02
     7    7.988188557323e-02
     8    1.591466440802e+00
     9    5.236895788649e-02
    10   -6.109232446019e-02
    11   -9.333193821367e-04
    12    2.066353451661e-01
    13   -2.311839656414e-01
    14   -3.012825089675e-03
    15   -2.245839218643e-02
    16    2.632792592291e-03
    17    2.924235335406e-03
    18   -2.010126260839e-04
    19    1.300965567978e-02
    20   -1.735092945033e-02
    21   -1.120859103029e+00
    22   -8.488222229452e-03
    23   -1.762994954381e-02
    24   -1.430752444644e-03
    25    8.653719012844e-02
    26   -7.911392691228e-02
    27   -1.602968291542e+00
    28    5.284216562145e-02
    29   -6.245545063683e-02
    30   -1.479539185249e-03
    31    2.049123460916e-01
    32   -2.460050868648e-01
    33   -6.021904595380e-03
    34    2.268395760969e-02
    35   -2.579220288854e-03
    36   -3.040801724796e-03
    37    8.917972196804e-04
    38   -1.287383531605e-02
    39    1.694986324027e-02
    40    1.141516046644e+00
    41   -8.626249995461e-03
    42   -1.810264900743e-02
    43   -1.504364365422e-03
    44    1.540745935133e-02
    45    1.042178370601e+00
    46    1.634803912464e-02
    47    9.275998790246e-03
    48    1.308188351687e-03
Sym=X
Ene= 0.303204
Spin=Alpha
Occup=0
     1   -2.139248468113e-02
     2    1.686778966954e+00
     3   -2.271412203164e-02
     4    1.382223312208e-04
     5   -1.072400464695e-03
     6   -5.420773506513e-04
     7    1.810425155676e-04
     8    9.673069929120e-03
     9   -1.336633000452e-01
    10   -1.388212563130e-01
    11   -1.446287793306e-02
    12   -1.151267210328e+00
    13   -1.187713621772e+00
    14   -1.246033443328e-01
    15   -2.927326434268e-04
    16   -1.626392476285e-03
    17    1.843950473409e-03
    18   -3.242364449975e-02
    19   -1.456792722257e-03
    20    1.967823097905e-02
    21   -1.686171299478e+00
    22    1.194142436614e-03
    23   -2.289372418548e-02
    24   -1.281290612202e-03
    25    3.881775646905e-04
    26    4.263067466239e-04
    27   -2.312594902010e-02
    28    1.355149150133e-01
    29    1.402157273813e-01
    30    1.482731944336e-02
    31    1.138328730786e+00
    32    1.201207259902e+00
    33    1.254460743570e-01
    34    2.757209993496e-04
    35   -1.609261798825e-03
    36    1.850330369584e-03
    37   -3.218239609825e-02
    38   -1.779485974233e-03
    39    1.925080877834e-02
    40   -1.691253190384e+00
    41   -1.646401146757e-03
    42    2.266409768300e-02
    43    1.284595718321e-03
    44   -1.999708478639e-02
    45    1.706330284088e+00
    46    2.311167010120e-02
    47   -2.802537943294e-04
    48    1.072949018007e-03
Sym=X
Ene= 0.461465
Spin=Alpha
Occup=0
     1   -1.176704243606e-01
     2   -7.127749439062e-01
     3   -1.583859762377e-02
     4   -1.071447005864e-02
     5   -1.369234112692e-03
     6    6.047036920483e-02
     7    1.846636226945e-02
     8   -3.585359234937e+00
     9    1.014519874162e-01
    10   -9.871052245135e-02
    11   -9.690846911928e-04
    12    2.420414331361e+00
    13   -2.298457616913e+00
    14   -2.083600414048e-02
    15    5.440914062068e-02
    16   -3.444364476790e-03
    17   -4.735157478929e-03
    18   -7.254379031644e-04
    19    1.729695929397e-02
    20   -1.273788687734e-01
    21   -6.884177730994e-01
    22    8.532223137674e-03
    23    1.657027125491e-02
    24    1.380114913272e-03
    25   -6.072459613227e-02
    26   -1.621095795135e-02
    27    3.582362146476e+00
    28    1.061661790935e-01
    29   -1.012174403661e-01
    30   -1.181551058212e-03
    31    2.413987840703e+00
    32   -2.289111206821e+00
    33   -2.188752088606e-02
    34   -5.239943982150e-02
    35    3.223315844072e-03
    36    4.487807668446e-03
    37    3.507213524270e-04
    38   -1.941284936523e-02
    39    1.140670584703e-01
    40    7.069005865883e-01
    41    8.357739977649e-03
    42    1.635863095554e-02
    43    1.369958856191e-03
    44    1.084328342055e-01
    45    7.183002980958e-01
    46   -1.534653133698e-02
    47   -9.776451611751e-03
    48   -1.323578533224e-03
Sym=X
Ene= 0.577024
Spin=Alpha
Occup=0
     1    2.457017374925e-01
     2    3.361166560567e-02
     3   -1.819401608766e-02
     4    2.569891361250e-02
     5    6.501713374439e-04
     6   -3.667711358432e-03
     7   -1.549066673599e-01
     8   -4.942715514038e-01
     9    2.971107707915e-01
    10   -2.896091506974e-01
    11   -3.097283525998e-03
    12   -6.917334601842e-01
    13    6.771390246026e-01
    14    7.348888047879e-03
    15   -6.823764605038e-03
    16    3.911510220811e-03
    17    3.903176283229e-03
    18   -5.415069784441e-03
    19    6.050441752862e-02
    20    2.628670036990e-01
    21    9.649505961828e-03
    22   -2.595543918996e-02
    23    1.556574932151e-02
    24   -3.142265968376e-04
    25   -6.066843272283e-03
    26   -1.562797452104e-01
    27   -3.784040650102e-01
    28   -2.948949801274e-01
    29    2.833525683144e-01
    30    2.789922931929e-03
    31    7.821867800481e-01
    32   -7.523779662812e-01
    33   -7.819410035102e-03
    34   -6.798328864033e-03
    35    3.981842836495e-03
    36    3.805096521938e-03
    37   -3.740380190228e-03
    38    6.037229470693e-02
    39    2.506556744468e-01
    40    5.647279185729e-02
    41    2.777551941852e-02
    42   -1.683326307716e-02
    43    3.024733572543e-04
    44    2.530490170478e-01
    45    6.232125727426e-02
    46    1.780212746252e-02
    47   -2.574738419051e-02
    48   -7.027960489273e-04
Sym=X
Ene= 0.616201
Spin=Alpha
Occup=0
     1   -5.265441502480e-01
     2    1.958513302108e-01
     3   -6.181445587681e-02
     4    3.755889307819e-02
     5   -7.407570696004e-04
     6   -1.058460856667e-03
     7   -1.250828688581e-03
     8   -1.575794121239e-02
     9   -4.091373735486e-02
    10   -3.549292579118e-02
    11   -4.089980218116e-03
    12    3.157636235744e-01
    13    2.602285791295e-01
    14    2.998017754873e-02
    15    2.961901983097e-03
    16   -7.673910439413e-03
    17    8.105183816829e-03
    18   -1.480651731435e-01
    19   -5.825048504864e-03
    20    5.010453319749e-01
    21   -2.076248526534e-01
    22    4.286777706529e-02
    23   -5.856658611629e-02
    24   -1.423018169293e-03
    25    4.846038943033e-04
    26   -2.180333495882e-03
    27    4.158536512419e-02
    28   -3.970023270717e-02
    29   -4.025756111085e-02
    30   -4.223202892600e-03
    31    3.100177495157e-01
    32    2.903466471703e-01
    33    3.230645062182e-02
    34   -1.655695837003e-03
    35    7.451942983518e-03
    36   -8.631727776289e-03
    37    1.502868829564e-01
    38    5.498368938642e-03
    39   -5.178236331558e-01
    40    2.080515306079e-01
    41    4.062983528790e-02
    42   -5.878520909914e-02
    43   -1.594454820925e-03
    44    5.224019612794e-01
    45   -2.034404898491e-01
    46   -6.200630741771e-02
    47    3.790505964346e-02
    48   -6.343612475917e-04
Sym=X
Ene= 0.689155
Spin=Alpha
Occup=0
     1    3.874500422814e-04
     2    9.149593369376e-06
     3    1.089825788458e-03
     4    1.260406797842e-03
     5   -2.100047000682e-02
     6    3.020644897607e-05
     7    4.379608121507e-04
     8   -1.941010669793e-04
     9    3.145602307027e-02
    10    3.969618693253e-02
    11   -6.705688313865e-01
    12   -2.895151869569e-02
    13   -3.601994858874e-02
    14    6.136986957567e-01
    15   -1.416551244773e-03
    16    8.260238785367e-02
    17   -7.821212360402e-02
    18   -8.613797791508e-03
    19   -1.102208258036e-03
    20    4.684231075107e-04
    21   -3.245409239147e-04
    22    9.022700515108e-04
    23    1.084829711072e-03
    24   -2.052581397458e-02
    25    1.909106914247e-05
    26    5.326970914825e-04
    27   -3.972641434116e-04
    28    3.197903984592e-02
    29    3.982886262260e-02
    30   -6.700095782437e-01
    31   -2.957883595445e-02
    32   -3.628928523788e-02
    33    6.130503374857e-01
    34    1.102621350888e-03
    35   -8.279292486737e-02
    36    7.851278030161e-02
    37    8.515261693274e-03
    38    1.216795878876e-03
    39    2.972041296682e-04
    40   -5.754821965943e-04
    41    1.043488575408e-03
    42    1.401838001187e-03
    43   -2.106240884617e-02
    44    2.302138048008e-04
    45   -2.527800979853e-04
    46    8.794120362521e-04
    47    1.254610020957e-03
    48   -2.105436352907e-02
Sym=X
Ene= 0.708235
Spin=Alpha
Occup=0
     1   -4.739598792484e-01
     2    1.680992836782e-01
     3   -8.118113400435e-02
     4   -4.394240770607e-02
     5   -6.458289629867e-03
     6   -4.849985266615e-02
     7   -3.185445250794e-01
     8    5.270278477498e-01
     9    2.047212809087e-01
    10   -1.950945781666e-01
    11   -2.461434845462e-03
    12   -1.243047203270e-01
    13    1.038658323620e-01
    14    7.662752459174e-04
    15    1.943368978767e-01
    16   -2.048279396683e-02
    17   -2.393487711626e-02
    18    3.372431877872e-03
    19   -7.844506163504e-02
    20   -4.828706364361e-01
    21    1.636961205734e-01
    22    4.115892486077e-02
    23    8.207278489595e-02
    24    6.756785461880e-03
    25   -4.597097359829e-02
    26   -3.220171656530e-01
    27    4.293387886205e-01
    28   -2.071100335360e-01
    29    1.931829211885e-01
    30    1.078282269218e-03
    31    5.428929597252e-02
    32   -3.922437081529e-02
    33    1.113004435647e-03
    34    1.928327738413e-01
    35   -2.034169397622e-02
    36   -2.361190615865e-02
    37    1.241337700313e-03
    38   -7.446578807122e-02
    39   -4.657335023485e-01
    40    1.262163830237e-01
    41   -4.040944383901e-02
    42   -8.004092796866e-02
    43   -6.697096598589e-03
    44   -4.717504494924e-01
    45    1.427951360390e-01
    46    8.070905952236e-02
    47    4.343162708015e-02
    48    6.406915566583e-03
Sym=X
Ene= 0.784457
Spin=Alpha
Occup=0
     1    5.205904370266e-01
     2   -4.749716708066e-01
     3    1.099521449902e-01
     4    2.535926411252e-02
     5    6.696455680430e-03
     6    9.065551821057e-02
     7   -2.192764343555e-01
     8   -6.484129210911e-01
     9    1.103760129019e-01
    10   -1.046277481255e-01
    11    3.805157377980e-05
    12    3.353906045616e-01
    13   -3.118010583052e-01
    14   -4.497883659565e-03
    15   -2.046407174089e-01
    16    1.745205412429e-02
    17    2.149088660682e-02
    18   -1.303836811907e-03
    19    1.081093071204e-02
    20    5.347777224354e-01
    21   -4.802051903606e-01
    22   -2.051674714126e-02
    23   -1.122511051419e-01
    24   -7.558494191363e-03
    25   -9.177732136848e-02
    26    2.102493961274e-01
    27    6.835824155525e-01
    28    1.119239747787e-01
    29   -1.031488028494e-01
    30   -1.743745629156e-03
    31    3.202208179792e-01
    32   -3.003068653528e-01
    33   -7.226364626446e-04
    34    2.084573303072e-01
    35   -1.759777543087e-02
    36   -2.252387695568e-02
    37    3.558125622551e-03
    38   -1.027488631356e-02
    39   -5.476652615634e-01
    40    4.748360051283e-01
    41   -2.077386928382e-02
    42   -1.141418360207e-01
    43   -7.819312173431e-03
    44   -5.326024760690e-01
    45    4.664190454193e-01
    46    1.094633648153e-01
    47    2.742884462906e-02
    48    6.823233961807e-03
Sym=X
Ene= 0.807986
Spin=Alpha
Occup=0
     1    6.171745295457e-04
     2   -1.175729139266e-03
     3    1.841481797440e-03
     4    2.012588089006e-03
     5   -3.374949725022e-02
     6    1.202146309843e-04
     7   -3.279974636392e-04
     8   -1.731772561841e-04
     9    3.620230530566e-02
    10    4.455960128223e-02
    11   -7.629236300072e-01
    12   -5.269136812334e-02
    13   -6.645753476164e-02
    14    1.126919979496e+00
    15    6.483129446041e-04
    16   -6.525951469281e-02
    17    6.190760569540e-02
    18    6.882288023400e-03
    19    8.595924693462e-04
    20    6.133915725781e-04
    21   -2.810375963664e-04
    22    1.700222661929e-03
    23    1.894453303076e-03
    24   -3.461612212462e-02
    25   -1.132787179092e-04
    26    1.684367867868e-04
    27    2.877412884339e-04
    28   -3.606758471058e-02
    29   -4.592736900406e-02
    30    7.633625652335e-01
    31    5.407226913564e-02
    32    6.716877227764e-02
    33   -1.127107324850e+00
    34    1.357385976853e-03
    35   -6.524109743014e-02
    36    6.184321876756e-02
    37    6.639664719678e-03
    38    9.904657176385e-04
    39   -6.216845436067e-04
    40    3.118897558469e-04
    41   -1.546282780422e-03
    42   -2.226508150443e-03
    43    3.426007688779e-02
    44   -6.106145589889e-04
    45    1.206507265550e-03
    46   -1.319740059029e-03
    47   -2.002059246779e-03
    48    3.376529605430e-02
Sym=X
Ene= 0.862216
Spin=Alpha
Occup=0
     1    1.563621450553e-02
     2   -1.096143002331e+00
     3    1.485456930290e-01
     4    5.693847717457e-02
     5    1.038888569588e-02
     6    6.882430906940e-04
     7    1.476272682384e-03
     8    1.980662311873e-03
     9   -4.074131538735e-01
    10   -4.307677573227e-01
    11   -4.432815122360e-02
    12    9.511397468431e-01
    13    9.998486865169e-01
    14    1.031871677796e-01
    15   -2.286283815779e-03
    16    1.167583241106e-02
    17   -1.331984181854e-02
    18    2.340256659506e-01
    19    7.131712381945e-03
    20   -1.317084040598e-02
    21    1.105423100917e+00
    22    5.245029060677e-02
    23    1.510374509919e-01
    24    1.138376942020e-02
    25   -3.019194511532e-04
    26    5.063115420379e-03
    27   -5.419133469929e-03
    28   -4.046246473262e-01
    29   -4.304736580969e-01
    30   -4.518336258261e-02
    31    9.435848226345e-01
    32    1.006694117609e+00
    33    1.054918088452e-01
    34    6.862879101098e-04
    35   -1.173855568277e-02
    36    1.354017680355e-02
    37   -2.360617172006e-01
    38   -9.399312080025e-03
    39    8.791654784961e-03
    40   -1.100824122401e+00
    41    4.916030561441e-02
    42    1.509972916976e-01
    43    1.137754062869e-02
    44   -9.692515959990e-03
    45    1.091361515683e+00
    46    1.486334151584e-01
    47    5.578830321482e-02
    48    1.032195697503e-02
Sym=X
Ene= 0.935769
Spin=Alpha
Occup=0
     1   -1.107549100355e-01
     2    1.264253571700e+00
     3   -1.788947596116e-01
     4    6.551672772530e-03
     5   -8.105963789390e-03
     6   -3.841123422348e-04
     7   -1.035073432387e-02
     8    8.115957041252e-04
     9    4.675341195545e-01
    10    5.036531571160e-01
    11    5.182904032882e-02
    12   -1.454862065635e+00
    13   -1.554197645346e+00
    14   -1.605506715219e-01
    15   -6.033798050413e-04
    16   -5.408685586188e-03
    17    7.038924235306e-03
    18   -1.184142194933e-01
    19    3.481325395155e-03
    20    1.179731355572e-01
    21   -1.296724121703e+00
    22    8.340050058213e-03
    23   -1.841506803082e-01
    24   -1.039475645691e-02
    25    2.480449663937e-04
    26   -3.085505004528e-03
    27    1.278436000681e-02
    28   -4.797680131650e-01
    29   -4.937608358341e-01
    30   -5.215308093040e-02
    31    1.488376976119e+00
    32    1.520577508854e+00
    33    1.610876384203e-01
    34   -9.581140911994e-04
    35   -6.004760889368e-03
    36    7.093192958579e-03
    37   -1.203550097232e-01
    38   -7.378080306875e-03
    39    1.162557461396e-01
    40   -1.277020939656e+00
    41   -1.396009513948e-02
    42    1.815681266298e-01
    43    1.021063010651e-02
    44   -1.159534266523e-01
    45    1.298061802944e+00
    46    1.824250521064e-01
    47   -4.700428733451e-03
    48    8.352767911462e-03
Sym=X
Ene= 0.972093
Spin=Alpha
Occup=0
     1   -6.320678107309e-02
     2    9.521795158772e-01
     3   -9.414209446766e-02
     4   -9.855958199947e-02
     5   -1.033646087753e-02
     6    2.565979616701e-02
     7    2.627692392967e-01
     8    5.042220715060e-01
     9    4.884121094016e-01
    10   -4.499277054289e-01
    11   -3.225377435149e-03
    12   -1.519603750830e+00
    13    1.381743152193e+00
    14    9.041111556973e-03
    15   -5.576434103985e-02
    16   -1.301593797828e-02
    17   -9.376326875496e-03
    18    1.027768487942e-02
    19   -3.041409842846e-01
    20   -6.166201332047e-02
    21    8.899706728312e-01
    22    9.642221387828e-02
    23    8.986308806757e-02
    24    9.833525200031e-03
    25   -2.520549177498e-02
    26   -2.232739658324e-01
    27   -5.698832917557e-01
    28    4.718203119322e-01
    29   -4.593964799572e-01
    30   -5.282650719405e-03
    31   -1.458135108093e+00
    32    1.435070802442e+00
    33    1.707082919072e-02
    34    5.327517684258e-02
    35    1.261343694955e-02
    36    9.617040089635e-03
    37   -1.439196717185e-02
    38    2.981321727741e-01
    39    5.977018879623e-02
    40   -9.144309422205e-01
    41    9.358528517418e-02
    42    9.264403618645e-02
    43    1.002693545005e-02
    44    6.684833457411e-02
    45   -8.865917579153e-01
    46   -8.543910532834e-02
    47   -9.713374705146e-02
    48   -9.721200976935e-03
[5D]

======= END OF MOLDEN-FORMATTED INPUT FILE =======


        *************************************************************
        *                                                           *
        *  Thank you very much for using Q-Chem.  Have a nice day.  *
        *                                                           *
        *************************************************************


