                  Welcome to Q-Chem
     A Quantum Leap Into The Future Of Chemistry


 Q-Chem 5.4 (devel), Q-Chem, Inc., Pleasanton, CA (2021)

 E. Epifanovsky,  A. T. B. Gilbert,  Xintian Feng,  Joonho Lee,  Yuezhi Mao,  
 N. Mardirossian,  P. Pokhilko,  A. White,  M. Wormit,  M. P. Coons,  
 A. L. Dempwolff,  Zhengting Gan,  D. Hait,  P. R. Horn,  L. D. Jacobson,  
 I. Kaliman,  J. Kussmann,  A. W. Lange,  Ka Un Lao,  D. S. Levine,  Jie Liu,  
 S. C. McKenzie,  A. F. Morrison,  K. Nanda,  F. Plasser,  D. R. Rehn,  
 M. L. Vidal,  Zhi-Qiang You,  Ying Zhu,  B. Alam,  B. Albrecht,  
 A. Aldossary,  E. Alguire,  J. H. Andersen,  D. Barton,  K. Begam,  A. Behn,  
 Y. A. Bernard,  E. J. Berquist,  H. Burton,  A. Carreras,  K. Carter-Fenk,  
 R. Chakraborty,  A. D. Chien,  K. D. Closser,  V. Cofer-Shabica,  
 S. Dasgupta,  Jia Deng,  M. de Wergifosse,  M. Diedenhofen,  Hainam Do,  
 S. Ehlert,  Po-Tung Fang,  S. Fatehi,  Qingguo Feng,  T. Friedhoff,  
 J. Gayvert,  Qinghui Ge,  G. Gidofalvi,  M. Goldey,  J. Gomes,  
 C. Gonzalez-Espinoza,  S. Gulania,  A. Gunina,  M. W. D. Hanson-Heine,  
 P. H. P. Harbach,  A. W. Hauser,  M. F. Herbst,  M. Hernandez Vera,  
 M. Hodecker,  Z. C. Holden,  S. Houck,  Xunkun Huang,  Kerwin Hui,  
 B. C. Huynh,  M. Ivanov,  Hyunjun Ji,  Hanjie Jiang,  B. Kaduk,  S. Kaehler,  
 K. Khistyaev,  Jaehoon Kim,  P. Klunzinger,  Z. Koczor-Benda,  
 Joong Hoon Koh,  D. Kosenkov,  L. Koulias,  T. Kowalczyk,  C. M. Krauter,  
 K. Kue,  A. Kunitsa,  T. Kus,  A. Landau,  K. V. Lawler,  D. Lefrancois,  
 S. Lehtola,  Rain Li,  Yi-Pei Li,  Jiashu Liang,  M. Liebenthal,  
 Hung-Hsuan Lin,  You-Sheng Lin,  Fenglai Liu,  Kuan-Yu Liu,  
 M. Loipersberger,  A. Luenser,  A. Manjanath,  P. Manohar,  E. Mansoor,  
 S. F. Manzer,  Shan-Ping Mao,  A. V. Marenich,  T. Markovich,  S. Mason,  
 S. A. Maurer,  P. F. McLaughlin,  M. F. S. J. Menger,  J.-M. Mewes,  
 S. A. Mewes,  P. Morgante,  J. W. Mullinax,  K. J. Oosterbaan,  G. Paran,  
 Alexander C. Paul,  Suranjan K. Paul,  F. Pavosevic,  Zheng Pei,  S. Prager,  
 E. I. Proynov,  E. Ramos,  B. Rana,  A. E. Rask,  A. Rettig,  R. M. Richard,  
 F. Rob,  E. Rossomme,  T. Scheele,  M. Scheurer,  M. Schneider,  
 N. Sergueev,  S. M. Sharada,  W. Skomorowski,  D. W. Small,  C. J. Stein,  
 Yu-Chuan Su,  E. J. Sundstrom,  Zhen Tao,  J. Thirman,  T. Tsuchimochi,  
 N. M. Tubman,  S. P. Veccham,  O. Vydrov,  J. Wenzel,  J. Witte,  A. Yamada,  
 Kun Yao,  S. Yeganeh,  S. R. Yost,  A. Zech,  Igor Ying Zhang,  Xing Zhang,  
 Yu Zhang,  D. Zuev,  A. Aspuru-Guzik,  A. T. Bell,  N. A. Besley,  
 K. B. Bravaya,  B. R. Brooks,  D. Casanova,  Jeng-Da Chai,  S. Coriani,  
 C. J. Cramer,  A. E. DePrince, III,  R. A. DiStasio Jr.,  A. Dreuw,  
 B. D. Dunietz,  T. R. Furlani,  W. A. Goddard III,  S. Grimme,  
 S. Hammes-Schiffer,  T. Head-Gordon,  W. J. Hehre,  Chao-Ping Hsu,  
 T.-C. Jagau,  Yousung Jung,  A. Klamt,  Jing Kong,  D. S. Lambrecht,  
 WanZhen Liang,  N. J. Mayhall,  C. W. McCurdy,  J. B. Neaton,  
 C. Ochsenfeld,  J. A. Parkhill,  R. Peverati,  V. A. Rassolov,  Yihan Shao,  
 L. V. Slipchenko,  T. Stauch,  R. P. Steele,  J. E. Subotnik,  
 A. J. W. Thom,  A. Tkatchenko,  D. G. Truhlar,  T. Van Voorhis,  
 T. A. Wesolowski,  K. B. Whaley,  H. L. Woodcock III,  P. M. Zimmerman,  
 S. Faraji,  P. M. W. Gill,  M. Head-Gordon,  J. M. Herbert,  A. I. Krylov

 Additional authors for Version 5.4.1: 
 S. Kotaru,  Shaozhi Li,  Xiangyuan Li,  F. Matz,  A. Molle,  Haisheng Ren,  
 Yingli Su,  Hung-Yi Tsai,  C. Utku,  Fang Wang

 Contributors to earlier versions of Q-Chem not listed above: 
 R. D. Adamson,  B. Austin,  R. Baer,  J. Baker,  G. J. O. Beran,  
 K. Brandhorst,  S. T. Brown,  E. F. C. Byrd,  A. K. Chakraborty,  
 G. K. L. Chan,  Chun-Min Chang,  Yunqing Chen,  C.-L. Cheng,  
 Siu Hung Chien,  D. M. Chipman,  D. L. Crittenden,  H. Dachsel,  
 R. J. Doerksen,  A. D. Dutoi,  R. G. Edgar,  J. Fosso-Tande,  
 L. Fusti-Molnar,  D. Ghosh,  A. Ghysels,  A. Golubeva-Zadorozhnaya,  
 J. Gonthier,  M. S. Gordon,  S. R. Gwaltney,  G. Hawkins,  J. E. Herr,  
 A. Heyden,  S. Hirata,  E. G. Hohenstein,  G. Kedziora,  F. J. Keil,  
 C. Kelley,  Jihan Kim,  R. A. King,  R. Z. Khaliullin,  P. P. Korambath,  
 W. Kurlancheek,  A. Laurent,  A. M. Lee,  M. S. Lee,  S. V. Levchenko,  
 Ching Yeh Lin,  D. Liotard,  E. Livshits,  R. C. Lochan,  I. Lotan,  
 L. A. Martinez-Martinez,  P. E. Maslen,  N. Nair,  D. P. O'Neill,  
 D. Neuhauser,  E. Neuscamman,  C. M. Oana,  R. Olivares-Amaya,  R. Olson,  
 T. M. Perrine,  B. Peters,  P. A. Pieniazek,  A. Prociuk,  Y. M. Rhee,  
 J. Ritchie,  M. A. Rohrdanz,  E. Rosta,  N. J. Russ,  H. F. Schaefer III,  
 M. W. Schmidt,  N. E. Schultz,  S. Sharma,  N. Shenvi,  C. D. Sherrill,  
 A. C. Simmonett,  A. Sodt,  T. Stein,  D. Stuck,  K. S. Thanthiriwatte,  
 V. Vanovschi,  L. Vogt,  Tao Wang,  A. Warshel,  M. A. Watson,  
 C. F. Williams,  Q. Wu,  X. Xu,  Jun Yang,  W. Zhang,  Yan Zhao

 Please cite Q-Chem as follows:
 Y. Shao et al., Mol. Phys. 113, 184-215 (2015)
 DOI: 10.1080/00268976.2014.952696

 Q-Chem 5.4.1 for Intel X86 EM64T Linux

 Parts of Q-Chem use Armadillo 9.800.1 (Horizon Scraper).
 http://arma.sourceforge.net/

 Q-Chem begins on Thu Nov 17 15:43:00 2022  

 Host: cpu197.baobab
0

     Scratch files written to /scratch/fum/qchem4973//
 Processing $rem in /home/share/wesolowski/qc5.aug2021.FDE/config/preferences:
 Processing $rem in /home/fum/.qchemrc:

 Checking the input file for inconsistencies... 	...done.

--------------------------------------------------------------
User input:
--------------------------------------------------------------
$comment
generated from CCJob.Templates
$end

$rem
sym_ignore = true
method = adc(2)
ee_states = 10
basis = cc-pVDZ
mem_static = 1024
mem_total = 40000
adc_davidson_maxiter = 900
adc_davidson_conv = 6
adc_print = 3
adc_prop_es = true
adc_prop_es2es = true
adc_prop_tpa = true
molden_format = True
state_analysis = true
print_orbitals = 15
gen_scfman = false
fde_export_density = true
fde_details = 3
$end

$molecule
0 1
H -0.0348278765 -0.2442097827 0.0636489606
C -1.0765972949 -0.5242748755 -0.0023551776
H -1.313264467 -1.5767591607 -0.0757276926
C -2.043634118 0.3926884087 0.0061254933
H -1.8137616575 1.4459188338 0.0704456828
H -3.085977293 0.114931858 -0.0593381042                     
$end
--------------------------------------------------------------
 ----------------------------------------------------------------
             Standard Nuclear Orientation (Angstroms)
    I     Atom           X                Y                Z
 ----------------------------------------------------------------
    1      H      -0.0348278765    -0.2442097827     0.0636489606
    2      C      -1.0765972949    -0.5242748755    -0.0023551776
    3      H      -1.3132644670    -1.5767591607    -0.0757276926
    4      C      -2.0436341180     0.3926884087     0.0061254933
    5      H      -1.8137616575     1.4459188338     0.0704456828
    6      H      -3.0859772930     0.1149318580    -0.0593381042
 ----------------------------------------------------------------
 Nuclear Repulsion Energy =          33.42580716 hartrees
 There are        8 alpha and        8 beta electrons
 Requested basis set is cc-pVDZ
 There are 24 shells and 48 basis functions
 Total memory of 40000 MB is distributed as follows: 
   MEM_STATIC is set to 1024 MB
   QALLOC/CCMAN JOB total memory use is  38976 MB
 Warning: actual memory use might exceed 40000 MB

 Total QAlloc Memory Limit  40000 MB
 Mega-Array Size      1001 MB
 MEM_STATIC part      1024 MB

                       Distance Matrix (Angstroms)
             H (  1)   C (  2)   H (  3)   C (  4)   H (  5)
   C (  2)  1.080776
   H (  3)  1.851895  1.081258
   C (  4)  2.108139  1.332687  2.102109
   H (  5)  2.453811  2.104845  3.067319  1.079941
   H (  6)  3.074674  2.109370  2.450428  1.080700  1.845780

 A cutoff of  1.0D-11 yielded    300 shell pairs
 There are      1220 function pairs (      1329 Cartesian)
 Smallest overlap matrix eigenvalue = 4.80E-03

 Scale SEOQF with 1.000000e-01/1.000000e-01/1.000000e+00

 Standard Electronic Orientation quadrupole field applied
 Nucleus-field energy     =     0.0000000022 hartrees
 Guess from superposition of atomic densities
 Warning:  Energy on first SCF cycle will be non-variational
 SAD guess density has 16.000000 electrons
 A restricted Hartree-Fock SCF calculation will be
 performed using Pulay DIIS extrapolation
 SCF converges when DIIS error is below 1.0E-08
 using 10 threads for integral computing
 -------------------------------------------------------
 OpenMP Integral computing Module                
 Release: version 1.0, May 2013, Q-Chem Inc. Pittsburgh 
 -------------------------------------------------------
 ---------------------------------------
  Cycle       Energy         DIIS Error
 ---------------------------------------
    1     -78.4392771077      1.01E-01
    2     -78.0176803792      7.21E-03
    3     -78.0383142087      1.84E-03
    4     -78.0397972129      5.73E-04
    5     -78.0399188722      5.80E-05
    6     -78.0399207489      9.42E-06
    7     -78.0399208098      2.42E-06
    8     -78.0399208128      1.03E-06
    9     -78.0399208132      9.20E-08
   10     -78.0399208132      1.28E-08
   11     -78.0399208132      3.59E-09 Convergence criterion met
 ---------------------------------------
 SCF time:  CPU 1.51 s  wall 1.72 s
 SCF   energy in the final basis set = -78.03992081
 Total energy in the final basis set = -78.03992081
Exporting Density Matrix to file 'Densmat_SCF.txt'.
Export successful
================================================================================
|                                                                              |
|                                 A D C  M A N                                 |
|                                                                              |
 ------------------------------------------------------------------------------ 
|                                                                              |
| Components:                                                                  |
|                                                                              |
| - libvmm - 1.3-trunk                                                         |
|   Authors:                                                                   |
|   Evgeny Epifanovsky, Ilya Kaliman                                           |
|                                                                              |
| - libtensor - 2.5-trunk                                                      |
|   Authors:                                                                   |
|   Evgeny Epifanovsky, Michael Wormit, Dmitry Zuev, Sam Manzer,               |
|   Ilya Kaliman                                                               |
|                                                                              |
| - libwfa - 1.1-trunk                                                         |
|   Authors:                                                                   |
|   Felix Plasser, Stefanie Mewes (Baeppler), Benjamin Thomitzni,              |
|   Michael Wormit, Feng Chen, Anna I. Krylov, Pavel Pokhilko                  |
|                                                                              |
| - libadc - 1.1-trunk                                                         |
|   Authors:                                                                   |
|   Michael Wormit, Adrian L. Dempwolff, Philipp H. P. Harbach,                |
|   Caroline Krauter, Dirk Rehn, Matthias Schneider, Jan Wenzel                |
|                                                                              |
| - adcman - 2.6-trunk                                                         |
|   Authors:                                                                   |
|   Michael Wormit, Adrian L. Dempwolff, Philipp H. P. Harbach,                |
|   Caroline Krauter, Daniel Lefrancois, Jan-Michael Mewes, Dirk Rehn,         |
|   Matthias Schneider, Jan Wenzel, Andreas Dreuw                              |
|                                                                              |
| Authors of earlier versions of ADCMAN:                                       |
| Andreas Dreuw, Jan Hendrik Starcke, Dirk Rehn, Michael Wormit                |
|                                                                              |
================================================================================

 Created directory /scratch/fum/qchem4973/plots
  Import QC data ...  CPU 0.00 s  wall 0.00 s

 Alpha MOs, Restricted
 -- Occupied --                  
-11.235 -11.233  -1.032  -0.790  -0.641  -0.582  -0.505  -0.374
  1 A     2 A     3 A     4 A     5 A     6 A     7 A     8 A                  
 -- Virtual --                   
  0.168   0.204   0.233   0.239   0.303   0.462   0.578   0.615
  9 A    10 A    11 A    12 A    13 A    14 A    15 A    16 A                  
  0.689   0.709   0.785   0.808   0.862   0.936   0.972   1.010
 17 A    18 A    19 A    20 A    21 A    22 A    23 A    24 A                  
  1.130   1.235   1.254   1.266   1.294   1.601   1.727   1.751
 25 A    26 A    27 A    28 A    29 A    30 A    31 A    32 A                  
  1.819   1.859   1.867   1.922   1.977   1.979   2.222   2.258
 33 A    34 A    35 A    36 A    37 A    38 A    39 A    40 A                  
  2.376   2.454   2.506   2.634   2.721   2.822   3.140   3.399
 41 A    42 A    43 A    44 A    45 A    46 A    47 A    48 A                  

 Beta MOs, Restricted
 -- Occupied --                  
-11.235 -11.233  -1.032  -0.790  -0.641  -0.582  -0.505  -0.374
  1 A     2 A     3 A     4 A     5 A     6 A     7 A     8 A                  
 -- Virtual --                   
  0.168   0.204   0.233   0.239   0.303   0.462   0.578   0.615
  9 A    10 A    11 A    12 A    13 A    14 A    15 A    16 A                  
  0.689   0.709   0.785   0.808   0.862   0.936   0.972   1.010
 17 A    18 A    19 A    20 A    21 A    22 A    23 A    24 A                  
  1.130   1.235   1.254   1.266   1.294   1.601   1.727   1.751
 25 A    26 A    27 A    28 A    29 A    30 A    31 A    32 A                  
  1.819   1.859   1.867   1.922   1.977   1.979   2.222   2.258
 33 A    34 A    35 A    36 A    37 A    38 A    39 A    40 A                  
  2.376   2.454   2.506   2.634   2.721   2.822   3.140   3.399
 41 A    42 A    43 A    44 A    45 A    46 A    47 A    48 A                  
  Import AO data ...  CPU 0.00 s  wall 0.00 s
  Using point group: C1
  Irreducible representations in point group: A
  Molecular orbitals: 
  Occupied MOs:
  Block   0:   1 (  A) A   2 (  A) A   3 (  A) A   4 (  A) A   5 (  A) A
                  -11.24      -11.23      -1.032     -0.7899     -0.6412
               6 (  A) A   7 (  A) A   8 (  A) A
                  -0.582     -0.5046      -0.374
  Block   1:   1 (  A) B   2 (  A) B   3 (  A) B   4 (  A) B   5 (  A) B
                  -11.24      -11.23      -1.032     -0.7899     -0.6412
               6 (  A) B   7 (  A) B   8 (  A) B
                  -0.582     -0.5046      -0.374
  Virtual MOs:
  Block   0:   9 (  A) A  10 (  A) A  11 (  A) A  12 (  A) A  13 (  A) A
                  0.1684      0.2037       0.233      0.2394      0.3033
              14 (  A) A  15 (  A) A  16 (  A) A  17 (  A) A  18 (  A) A
                  0.4621      0.5775      0.6151      0.6892       0.709
              19 (  A) A  20 (  A) A  21 (  A) A  22 (  A) A
                  0.7846       0.808      0.8623       0.936
  Block   1:  23 (  A) A  24 (  A) A  25 (  A) A  26 (  A) A  27 (  A) A
                  0.9725        1.01        1.13       1.235       1.254
              28 (  A) A  29 (  A) A  30 (  A) A  31 (  A) A  32 (  A) A
                   1.266       1.294       1.601       1.727       1.751
              33 (  A) A  34 (  A) A  35 (  A) A  36 (  A) A
                   1.819       1.859       1.867       1.922
  Block   2:  37 (  A) A  38 (  A) A  39 (  A) A  40 (  A) A  41 (  A) A
                   1.977       1.979       2.222       2.258       2.376
              42 (  A) A  43 (  A) A  44 (  A) A  45 (  A) A  46 (  A) A
                   2.454       2.506       2.634       2.721       2.822
              47 (  A) A  48 (  A) A
                    3.14       3.399
  Block   3:   9 (  A) B  10 (  A) B  11 (  A) B  12 (  A) B  13 (  A) B
                  0.1684      0.2037       0.233      0.2394      0.3033
              14 (  A) B  15 (  A) B  16 (  A) B  17 (  A) B  18 (  A) B
                  0.4621      0.5775      0.6151      0.6892       0.709
              19 (  A) B  20 (  A) B  21 (  A) B  22 (  A) B
                  0.7846       0.808      0.8623       0.936
  Block   4:  23 (  A) B  24 (  A) B  25 (  A) B  26 (  A) B  27 (  A) B
                  0.9725        1.01        1.13       1.235       1.254
              28 (  A) B  29 (  A) B  30 (  A) B  31 (  A) B  32 (  A) B
                   1.266       1.294       1.601       1.727       1.751
              33 (  A) B  34 (  A) B  35 (  A) B  36 (  A) B
                   1.819       1.859       1.867       1.922
  Block   5:  37 (  A) B  38 (  A) B  39 (  A) B  40 (  A) B  41 (  A) B
                   1.977       1.979       2.222       2.258       2.376
              42 (  A) B  43 (  A) B  44 (  A) B  45 (  A) B  46 (  A) B
                   2.454       2.506       2.634       2.721       2.822
              47 (  A) B  48 (  A) B
                    3.14       3.399
  Import MO data ...  CPU 0.01 s  wall 0.00 s
  Import HF data ...  CPU 0.08 s  wall 0.04 s
  Import 2e integrals ...  CPU 0.71 s  wall 0.14 s

--------------------------------------------------------------------------------
                                   HF Summary                                   
--------------------------------------------------------------------------------
  Energy:                                                  -78.0399208132 a.u.
  Dip. moment [a.u.]:                  [  -0.000597,    0.000965,   -0.002266]
  Total dipole [Debye]:                                               0.006440
  <r^2> [a.u.]:                        [ 175.320746,   34.917343,   11.620983]
  Total <r^2> [a.u.]:                                               221.859071
--------------------------------------------------------------------------------
  HF properties ...  CPU 0.01 s  wall 0.01 s
  MP(1) calculation ...  CPU 0.01 s  wall 0.00 s
  N^6 prerequesite intermediates ...  CPU 0.51 s  wall 0.07 s
  Difference density matrix of state mp2_gs printed to ASCII file 'State_mp2_gs_Difference.txt'
Exporting MP density matrix to file 'Densmat_MP.txt'.
Export successful
  Total density matrix of state mp2_gs printed to ASCII file 'State_mp2_gs_Total.txt'
Exporting MP density matrix to file 'Densmat_MP.txt'.
Export successful

--------------------------------------------------------------------------------
                                 MP(2) Summary                                  
--------------------------------------------------------------------------------
  MP energy contribution:                                   -0.2796954716 a.u.
  Total energy:                                            -78.3196162848 a.u.
  Dip. moment [a.u.]:                  [  -0.000596,    0.000843,   -0.002243]
  Total dipole [Debye]:                                               0.006277
  <r^2> [a.u.]:                        [ 175.367403,   34.958088,   11.452799]
  Total <r^2> [a.u.]:                                               221.778291

  Density matrix analysis:
  ------------------------
  NOs
    Occupation of frontier NOs:
       0.0453   1.9383
    Number of electrons: 16.000000
    Number of unpaired electrons: n_u =  0.40338, n_u,nl =  0.04507
    NO participation ratio (PR_NO): 13.856931
  
  
  Mulliken Population Analysis
  Atom      Charge (e)              h+              e-           Del q
  --------------------------------------------------------------------
   1 H        0.050948        0.014031       -0.011202        0.002829
   2 C       -0.100825        0.093233       -0.098846       -0.005613
   3 H        0.050543        0.014073       -0.011191        0.002882
   4 C       -0.101149        0.092936       -0.098882       -0.005946
   5 H        0.049963        0.014132       -0.011181        0.002951
   6 H        0.050520        0.014087       -0.011189        0.002897
  --------------------------------------------------------------------
  Sum:        0.000000        0.242491       -0.242491       -0.000000
  
  Multipole moment analysis of the density matrix
    Molecular charge:                      0.000000
    Number of electrons:                   16.000000
      Center of electronic charge [Ang]: [ -1.560557,  -0.065630,   0.001427]
    Total nuclear charge:                  16.000000
      Center of nuclear charge [Ang]:    [ -1.560576,  -0.065602,   0.001353]
    Dipole moment [D]:                     0.006277
      Cartesian components [D]:          [ -0.001516,   0.002144,  -0.005702]
    RMS size of the density [Ang]:         1.200779
      Cartesian components [Ang]:        [  0.796182,   0.779437,   0.447708]
  
  Exciton analysis of the difference density matrix
    <r_h> [Ang]:                  [ -1.560410,  -0.066018,   0.001779]
    <r_e> [Ang]:                  [ -1.560412,  -0.065753,   0.001731]
    |<r_e - r_h>| [Ang]:            0.000269
    Hole size [Ang]:                1.393626
      Cartesian components [Ang]: [  0.846660,   0.834024,   0.727849]
    Electron size [Ang]:            1.359757
      Cartesian components [Ang]: [  0.877900,   0.861791,   0.579264]
--------------------------------------------------------------------------------
  MP(2) calculation ...  CPU 0.13 s  wall 0.20 s
  Start ADC(2)-s ...  CPU 0.01 s  wall 0.00 s
  ADC(2) intermediates ...  CPU 0.02 s  wall 0.01 s
  Starting Davidson for singlet states of irrep A ... 
--------------------------------------------------------------------------------
   It NVec Conv  Avg. Norm  Max. Norm  Conv. states           Remark
--------------------------------------------------------------------------------
        10    0  1.330e-01  4.687e-01  0.4119 n n n n n n n n Guess.
    1   20    0  2.304e-02  1.109e-01  0.3262 n n n n n n n n 
    2   30    0  5.866e-03  2.531e-02  0.3215 n n n n n n n n 
    3   40    0  2.013e-03  1.267e-02  0.3211 n n n n n n n n 
    4   50    0  5.556e-04  3.515e-03  0.3211 n n n n n n n n 
    5   20    0  2.635e-04  1.774e-03  0.3211 n n n n n n n n Subspace collapsed.
    6   30    0  1.524e-04  1.216e-03  0.3211 n n n n n n n n 
    7   40    0  1.339e-04  1.048e-03  0.3211 n n n n n n n n 
    8   50    0  1.137e-04  1.057e-03  0.3211 n n n n n n n n 
    9   20    1  5.787e-05  4.945e-04  0.3211 n y n n n n n n Subspace collapsed.
   10   30    3  4.449e-05  3.817e-04  0.3211 n y y y n n n n 
   11   40    4  2.531e-05  2.323e-04  0.3211 n y y y y n n n 
   12   50    6  3.113e-05  3.064e-04  0.3211 y y y y y y n n 
   13   20    6  1.780e-05  1.756e-04  0.3211 y y y y y y n n Subspace collapsed.
   14   30    6  2.125e-05  2.103e-04  0.3211 y y y y y y n n 
   15   40    6  2.057e-05  2.045e-04  0.3211 y y y y y y n n 
   16   50    6  2.239e-05  2.233e-04  0.3211 y y y y y y n n 
   17   20    6  1.119e-05  1.116e-04  0.3211 y y y y y y n n Subspace collapsed.
   18   30    6  1.017e-05  1.015e-04  0.3211 y y y y y y n n 
   19   40    6  7.114e-06  7.101e-05  0.3211 y y y y y y n n 
   20   50    8  6.537e-06  6.529e-05  0.3211 y y y y y y y y 
   21   20    8  3.914e-06  3.909e-05  0.3211 y y y y y y y y Subspace collapsed.
   22   30    8  6.434e-06  6.429e-05  0.3211 y y y y y y y y 
   23   32    8  6.308e-06  6.303e-05  0.3211 y y y y y y y y 
   24   34    8  6.040e-06  6.035e-05  0.3211 y y y y y y y y 
   25   35    8  6.034e-06  6.029e-05  0.3211 y y y y y y y y 
   26   36    8  6.074e-06  6.069e-05  0.3211 y y y y y y y y 
   27   36    8  6.074e-06  6.069e-05  0.3211 y y y y y y y y 
   28   46    8  5.461e-06  5.458e-05  0.3211 y y y y y y y y 
   29   50    8  6.793e-06  6.791e-05  0.3211 y y y y y y y y 
   30   16    9  2.798e-06  2.797e-05  0.3211 y y y y y y y y Subspace collapsed.
   31   22    9  2.054e-06  2.054e-05  0.3211 y y y y y y y y 
   32   28    9  1.396e-06  1.396e-05  0.3211 y y y y y y y y 
   33   28    9  1.396e-06  1.396e-05  0.3211 y y y y y y y y 
   34   38    9  1.351e-06  1.351e-05  0.3211 y y y y y y y y 
   35   38    9  1.351e-06  1.351e-05  0.3211 y y y y y y y y 
   36   46    9  1.874e-06  1.873e-05  0.3211 y y y y y y y y 
   37   50    9  1.416e-06  1.415e-05  0.3211 y y y y y y y y 
   38   14    9  6.838e-07  6.837e-06  0.3211 y y y y y y y y Subspace collapsed.
   39   18    9  5.049e-07  5.049e-06  0.3211 y y y y y y y y 
   40   22    9  3.183e-07  3.183e-06  0.3211 y y y y y y y y 
   41   26    9  2.628e-07  2.628e-06  0.3211 y y y y y y y y 
   42   30    9  3.312e-07  3.312e-06  0.3211 y y y y y y y y 
   43   34    9  2.970e-07  2.970e-06  0.3211 y y y y y y y y 
   44   38    9  2.059e-07  2.059e-06  0.3211 y y y y y y y y 
   45   42    9  1.249e-07  1.249e-06  0.3211 y y y y y y y y 
   46   46   10  8.467e-08  8.467e-07  0.3211 y y y y y y y y Converged.
--------------------------------------------------------------------------------
  Davidson Summary: 
 ------------------------------------------------------------
  State  0: excitation energy =   0.3211 a.u.   (converged)
  State  1: excitation energy =   0.3328 a.u.   (converged)
  State  2: excitation energy =   0.3370 a.u.   (converged)
  State  3: excitation energy =   0.3614 a.u.   (converged)
  State  4: excitation energy =   0.3753 a.u.   (converged)
  State  5: excitation energy =   0.3872 a.u.   (converged)
  State  6: excitation energy =   0.4248 a.u.   (converged)
  State  7: excitation energy =   0.4471 a.u.   (converged)
  State  8: excitation energy =   0.4563 a.u.   (converged)
  State  9: excitation energy =   0.4648 a.u.   (converged)
 ------------------------------------------------------------

  Singlet states of irrep A ...  CPU 110.38 s  wall 37.44 s
  TDMs ...  CPU 0.67 s  wall 0.28 s
  SDMs ...  CPU 1.48 s  wall 0.52 s
  Starting TPA DIIS iterations ... 
------------------------------------ 
   It     Res. Norm  Remark
------------------------------------
                       Guess.
    1     4.406e+00  
    2     5.842e+00  
    3     1.077e+00  
    4     2.567e-01  
    5     6.576e-02  
    6     2.675e-02  
    7     8.237e-03  
    8     1.440e-03  
    9     5.329e-04  
   10     9.172e-05  
   11     2.868e-05  
   12     5.708e-06  
   13     2.181e-06  
   14     1.084e-06  
   15     2.648e-07  Converged.
   ... Converged in 15 steps (norm: 2.64767e-07)
------------------------------------
  Starting TPA DIIS iterations ... 
------------------------------------ 
   It     Res. Norm  Remark
------------------------------------
                       Guess.
    1     4.184e+00  
    2     5.540e+00  
    3     1.029e+00  
    4     2.553e-01  
    5     6.534e-02  
    6     2.671e-02  
    7     8.114e-03  
    8     1.457e-03  
    9     5.373e-04  
   10     9.244e-05  
   11     2.898e-05  
   12     5.972e-06  
   13     2.025e-06  
   14     1.217e-06  
   15     2.603e-07  Converged.
   ... Converged in 15 steps (norm: 2.60332e-07)
------------------------------------
  Starting TPA DIIS iterations ... 
------------------------------------ 
   It     Res. Norm  Remark
------------------------------------
                       Guess.
    1     6.884e-01  
    2     4.848e-01  
    3     1.712e-01  
    4     7.239e-02  
    5     1.803e-02  
    6     6.430e-03  
    7     1.034e-03  
    8     4.472e-04  
    9     1.235e-04  
   10     2.968e-05  
   11     5.066e-06  
   12     1.574e-06  
   13     9.241e-07  Converged.
   ... Converged in 13 steps (norm: 9.24144e-07)
------------------------------------
  Starting TPA DIIS iterations ... 
------------------------------------ 
   It     Res. Norm  Remark
------------------------------------
                       Guess.
    1     4.695e+00  
    2     6.360e+00  
    3     1.159e+00  
    4     2.854e-01  
    5     7.413e-02  
    6     3.042e-02  
    7     9.348e-03  
    8     1.631e-03  
    9     6.083e-04  
   10     1.055e-04  
   11     3.333e-05  
   12     6.875e-06  
   13     2.664e-06  
   14     1.358e-06  
   15     3.178e-07  Converged.
   ... Converged in 15 steps (norm: 3.17841e-07)
------------------------------------
  Starting TPA DIIS iterations ... 
------------------------------------ 
   It     Res. Norm  Remark
------------------------------------
                       Guess.
    1     4.457e+00  
    2     6.031e+00  
    3     1.107e+00  
    4     2.837e-01  
    5     7.367e-02  
    6     3.039e-02  
    7     9.210e-03  
    8     1.653e-03  
    9     6.136e-04  
   10     1.065e-04  
   11     3.373e-05  
   12     7.239e-06  
   13     2.490e-06  
   14     1.548e-06  
   15     3.261e-07  Converged.
   ... Converged in 15 steps (norm: 3.26068e-07)
------------------------------------
  Starting TPA DIIS iterations ... 
------------------------------------ 
   It     Res. Norm  Remark
------------------------------------
                       Guess.
    1     7.006e-01  
    2     5.025e-01  
    3     1.812e-01  
    4     8.214e-02  
    5     1.939e-02  
    6     7.062e-03  
    7     1.168e-03  
    8     5.274e-04  
    9     1.494e-04  
   10     3.400e-05  
   11     5.733e-06  
   12     1.854e-06  
   13     1.148e-06  
   14     3.660e-07  Converged.
   ... Converged in 14 steps (norm: 3.66004e-07)
------------------------------------
  Starting TPA DIIS iterations ... 
------------------------------------ 
   It     Res. Norm  Remark
------------------------------------
                       Guess.
    1     4.808e+00  
    2     6.566e+00  
    3     1.191e+00  
    4     2.970e-01  
    5     7.750e-02  
    6     3.190e-02  
    7     9.796e-03  
    8     1.708e-03  
    9     6.389e-04  
   10     1.111e-04  
   11     3.525e-05  
   12     7.369e-06  
   13     2.870e-06  
   14     1.476e-06  
   15     3.399e-07  Converged.
   ... Converged in 15 steps (norm: 3.39921e-07)
------------------------------------
  Starting TPA DIIS iterations ... 
------------------------------------ 
   It     Res. Norm  Remark
------------------------------------
                       Guess.
    1     4.564e+00  
    2     6.226e+00  
    3     1.137e+00  
    4     2.951e-01  
    5     7.704e-02  
    6     3.189e-02  
    7     9.653e-03  
    8     1.732e-03  
    9     6.446e-04  
   10     1.122e-04  
   11     3.568e-05  
   12     7.780e-06  
   13     2.692e-06  
   14     1.694e-06  
   15     3.550e-07  Converged.
   ... Converged in 15 steps (norm: 3.55043e-07)
------------------------------------
  Starting TPA DIIS iterations ... 
------------------------------------ 
   It     Res. Norm  Remark
------------------------------------
                       Guess.
    1     7.051e-01  
    2     5.093e-01  
    3     1.851e-01  
    4     8.611e-02  
    5     1.992e-02  
    6     7.316e-03  
    7     1.223e-03  
    8     5.608e-04  
    9     1.601e-04  
   10     3.542e-05  
   11     5.997e-06  
   12     1.970e-06  
   13     1.245e-06  
   14     3.937e-07  Converged.
   ... Converged in 14 steps (norm: 3.93686e-07)
------------------------------------
  Starting TPA DIIS iterations ... 
------------------------------------ 
   It     Res. Norm  Remark
------------------------------------
                       Guess.
    1     5.549e+00  
    2     7.948e+00  
    3     1.398e+00  
    4     3.772e-01  
    5     1.009e-01  
    6     4.229e-02  
    7     1.290e-02  
    8     2.241e-03  
    9     8.523e-04  
   10     1.507e-04  
   11     4.902e-05  
   12     1.115e-05  
   13     4.463e-06  
   14     2.426e-06  
   15     5.036e-07  Converged.
   ... Converged in 15 steps (norm: 5.0358e-07)
------------------------------------
  Starting TPA DIIS iterations ... 
------------------------------------ 
   It     Res. Norm  Remark
------------------------------------
                       Guess.
    1     5.265e+00  
    2     7.536e+00  
    3     1.334e+00  
    4     3.741e-01  
    5     1.003e-01  
    6     4.234e-02  
    7     1.272e-02  
    8     2.277e-03  
    9     8.611e-04  
   10     1.526e-04  
   11     4.984e-05  
   12     1.197e-05  
   13     4.325e-06  
   14     2.886e-06  
   15     5.970e-07  Converged.
   ... Converged in 15 steps (norm: 5.97034e-07)
------------------------------------
  Starting TPA DIIS iterations ... 
------------------------------------ 
   It     Res. Norm  Remark
------------------------------------
                       Guess.
    1     7.323e-01  
    2     5.515e-01  
    3     2.099e-01  
    4     1.141e-01  
    5     2.347e-02  
    6     9.086e-03  
    7     1.620e-03  
    8     7.979e-04  
    9     2.353e-04  
   10     4.085e-05  
   11     7.774e-06  
   12     2.814e-06  
   13     1.985e-06  
   14     6.031e-07  Converged.
   ... Converged in 14 steps (norm: 6.03143e-07)
------------------------------------
  Starting TPA DIIS iterations ... 
------------------------------------ 
   It     Res. Norm  Remark
------------------------------------
                       Guess.
    1     6.060e+00  
    2     8.934e+00  
    3     1.540e+00  
    4     4.366e-01  
    5     1.182e-01  
    6     5.008e-02  
    7     1.521e-02  
    8     2.634e-03  
    9     1.012e-03  
   10     1.807e-04  
   11     5.969e-05  
   12     1.434e-05  
   13     5.812e-06  
   14     3.275e-06  
   15     6.393e-07  Converged.
   ... Converged in 15 steps (norm: 6.39275e-07)
------------------------------------
  Starting TPA DIIS iterations ... 
------------------------------------ 
   It     Res. Norm  Remark
------------------------------------
                       Guess.
    1     5.749e+00  
    2     8.470e+00  
    3     1.470e+00  
    4     4.325e-01  
    5     1.176e-01  
    6     5.019e-02  
    7     1.500e-02  
    8     2.681e-03  
    9     1.024e-03  
   10     1.834e-04  
   11     6.093e-05  
   12     1.557e-05  
   13     5.817e-06  
   14     3.977e-06  
   15     8.261e-07  Converged.
   ... Converged in 15 steps (norm: 8.26079e-07)
------------------------------------
  Starting TPA DIIS iterations ... 
------------------------------------ 
   It     Res. Norm  Remark
------------------------------------
                       Guess.
    1     7.488e-01  
    2     5.787e-01  
    3     2.264e-01  
    4     1.350e-01  
    5     2.600e-02  
    6     1.040e-02  
    7     1.930e-03  
    8     9.687e-04  
    9     2.884e-04  
   10     4.191e-05  
   11     9.087e-06  
   12     3.464e-06  
   13     2.597e-06  
   14     7.760e-07  Converged.
   ... Converged in 14 steps (norm: 7.75957e-07)
------------------------------------
  Starting TPA DIIS iterations ... 
------------------------------------ 
   It     Res. Norm  Remark
------------------------------------
                       Guess.
    1     6.559e+00  
    2     9.923e+00  
    3     1.679e+00  
    4     4.978e-01  
    5     1.360e-01  
    6     5.816e-02  
    7     1.758e-02  
    8     3.037e-03  
    9     1.178e-03  
   10     2.120e-04  
   11     7.102e-05  
   12     1.795e-05  
   13     7.335e-06  
   14     4.281e-06  
   15     7.955e-07  Converged.
   ... Converged in 15 steps (norm: 7.95494e-07)
------------------------------------
  Starting TPA DIIS iterations ... 
------------------------------------ 
   It     Res. Norm  Remark
------------------------------------
                       Guess.
    1     6.222e+00  
    2     9.407e+00  
    3     1.601e+00  
    4     4.926e-01  
    5     1.353e-01  
    6     5.834e-02  
    7     1.734e-02  
    8     3.096e-03  
    9     1.192e-03  
   10     2.157e-04  
   11     7.280e-05  
   12     1.971e-05  
   13     7.620e-06  
   14     5.284e-06  
   15     1.109e-06  
   16     8.168e-07  Converged.
   ... Converged in 16 steps (norm: 8.16835e-07)
------------------------------------
  Starting TPA DIIS iterations ... 
------------------------------------ 
   It     Res. Norm  Remark
------------------------------------
                       Guess.
    1     7.635e-01  
    2     6.041e-01  
    3     2.422e-01  
    4     1.564e-01  
    5     2.855e-02  
    6     1.176e-02  
    7     2.262e-03  
    8     1.131e-03  
    9     3.396e-04  
   10     4.229e-05  
   11     1.046e-05  
   12     4.141e-06  
   13     3.266e-06  
   14     9.675e-07  Converged.
   ... Converged in 14 steps (norm: 9.67523e-07)
------------------------------------
  Starting TPA DIIS iterations ... 
------------------------------------ 
   It     Res. Norm  Remark
------------------------------------
                       Guess.
    1     8.670e+00  
    2     1.434e+01  
    3     2.253e+00  
    4     7.834e-01  
    5     2.193e-01  
    6     9.675e-02  
    7     2.866e-02  
    8     4.913e-03  
    9     1.966e-03  
   10     3.640e-04  
   11     1.270e-04  
   12     3.908e-05  
   13     1.596e-05  
   14     1.087e-05  
   15     1.807e-06  
   16     1.613e-06  
   17     3.509e-07  Converged.
   ... Converged in 17 steps (norm: 3.50861e-07)
------------------------------------
  Starting TPA DIIS iterations ... 
------------------------------------ 
   It     Res. Norm  Remark
------------------------------------
                       Guess.
    1     8.220e+00  
    2     1.359e+01  
    3     2.147e+00  
    4     7.723e-01  
    5     2.184e-01  
    6     9.731e-02  
    7     2.831e-02  
    8     5.035e-03  
    9     1.999e-03  
   10     3.737e-04  
   11     1.333e-04  
   12     4.454e-05  
   13     2.011e-05  
   14     1.383e-05  
   15     3.145e-06  
   16     1.921e-06  
   17     4.680e-07  Converged.
   ... Converged in 17 steps (norm: 4.67977e-07)
------------------------------------
  Starting TPA DIIS iterations ... 
------------------------------------ 
   It     Res. Norm  Remark
------------------------------------
                       Guess.
    1     8.147e-01  
    2     7.012e-01  
    3     3.054e-01  
    4     2.516e-01  
    5     4.012e-02  
    6     1.805e-02  
    7     3.923e-03  
    8     1.645e-03  
    9     5.369e-04  
   10     5.118e-05  
   11     1.734e-05  
   12     7.266e-06  
   13     6.649e-06  
   14     2.020e-06  
   15     6.880e-07  Converged.
   ... Converged in 15 steps (norm: 6.8798e-07)
------------------------------------
  Starting TPA DIIS iterations ... 
------------------------------------ 
   It     Res. Norm  Remark
------------------------------------
                       Guess.
    1     1.049e+01  
    2     1.844e+01  
    3     2.735e+00  
    4     1.058e+00  
    5     3.001e-01  
    6     1.350e-01  
    7     3.940e-02  
    8     6.720e-03  
    9     2.744e-03  
   10     5.179e-04  
   11     1.839e-04  
   12     6.586e-05  
   13     2.645e-05  
   14     2.046e-05  
   15     3.254e-06  
   16     3.125e-06  
   17     5.817e-07  Converged.
   ... Converged in 17 steps (norm: 5.81718e-07)
------------------------------------
  Starting TPA DIIS iterations ... 
------------------------------------ 
   It     Res. Norm  Remark
------------------------------------
                       Guess.
    1     9.946e+00  
    2     1.748e+01  
    3     2.606e+00  
    4     1.040e+00  
    5     2.990e-01  
    6     1.360e-01  
    7     3.893e-02  
    8     6.914e-03  
    9     2.802e-03  
   10     5.361e-04  
   11     1.983e-04  
   12     7.665e-05  
   13     3.914e-05  
   14     2.569e-05  
   15     6.235e-06  
   16     3.160e-06  
   17     8.335e-07  Converged.
   ... Converged in 17 steps (norm: 8.33549e-07)
------------------------------------
  Starting TPA DIIS iterations ... 
------------------------------------ 
   It     Res. Norm  Remark
------------------------------------
                       Guess.
    1     8.492e-01  
    2     7.757e-01  
    3     3.560e-01  
    4     3.302e-01  
    5     5.088e-02  
    6     2.378e-02  
    7     5.595e-03  
    8     1.856e-03  
    9     6.881e-04  
   10     6.958e-05  
   11     2.449e-05  
   12     1.019e-05  
   13     1.012e-05  
   14     3.248e-06  
   15     1.282e-06  
   16     9.627e-07  Converged.
   ... Converged in 16 steps (norm: 9.6271e-07)
------------------------------------
  Starting TPA DIIS iterations ... 
------------------------------------ 
   It     Res. Norm  Remark
------------------------------------
                       Guess.
    1     1.143e+01  
    2     2.064e+01  
    3     2.980e+00  
    4     1.207e+00  
    5     3.444e-01  
    6     1.563e-01  
    7     4.529e-02  
    8     7.707e-03  
    9     3.176e-03  
   10     6.046e-04  
   11     2.162e-04  
   12     8.304e-05  
   13     3.323e-05  
   14     2.705e-05  
   15     4.293e-06  
   16     4.149e-06  
   17     7.346e-07  Converged.
   ... Converged in 17 steps (norm: 7.34555e-07)
------------------------------------
  Starting TPA DIIS iterations ... 
------------------------------------ 
   It     Res. Norm  Remark
------------------------------------
                       Guess.
    1     1.084e+01  
    2     1.956e+01  
    3     2.838e+00  
    4     1.185e+00  
    5     3.432e-01  
    6     1.576e-01  
    7     4.475e-02  
    8     7.947e-03  
    9     3.251e-03  
   10     6.284e-04  
   11     2.366e-04  
   12     9.733e-05  
   13     5.233e-05  
   14     3.348e-05  
   15     8.245e-06  
   16     3.886e-06  
   17     1.031e-06  
   18     3.942e-07  Converged.
   ... Converged in 18 steps (norm: 3.94232e-07)
------------------------------------
  Starting TPA DIIS iterations ... 
------------------------------------ 
   It     Res. Norm  Remark
------------------------------------
                       Guess.
    1     8.646e-01  
    2     8.118e-01  
    3     3.810e-01  
    4     3.669e-01  
    5     5.662e-02  
    6     2.668e-02  
    7     6.507e-03  
    8     1.913e-03  
    9     7.618e-04  
   10     8.067e-05  
   11     2.855e-05  
   12     1.181e-05  
   13     1.215e-05  
   14     4.000e-06  
   15     1.722e-06  
   16     1.256e-06  
   17     6.824e-07  Converged.
   ... Converged in 17 steps (norm: 6.82417e-07)
------------------------------------
  Starting TPA DIIS iterations ... 
------------------------------------ 
   It     Res. Norm  Remark
------------------------------------
                       Guess.
    1     1.241e+01  
    2     2.299e+01  
    3     3.231e+00  
    4     1.366e+00  
    5     3.922e-01  
    6     1.795e-01  
    7     5.166e-02  
    8     8.774e-03  
    9     3.646e-03  
   10     7.001e-04  
   11     2.519e-04  
   12     1.035e-04  
   13     4.155e-05  
   14     3.514e-05  
   15     5.661e-06  
   16     5.426e-06  
   17     9.262e-07  Converged.
   ... Converged in 17 steps (norm: 9.26178e-07)
------------------------------------
  Starting TPA DIIS iterations ... 
------------------------------------ 
   It     Res. Norm  Remark
------------------------------------
                       Guess.
    1     1.176e+01  
    2     2.179e+01  
    3     3.077e+00  
    4     1.340e+00  
    5     3.909e-01  
    6     1.811e-01  
    7     5.105e-02  
    8     9.066e-03  
    9     3.742e-03  
   10     7.306e-04  
   11     2.802e-04  
   12     1.220e-04  
   13     6.838e-05  
   14     4.275e-05  
   15     1.053e-05  
   16     4.727e-06  
   17     1.230e-06  
   18     4.930e-07  Converged.
   ... Converged in 18 steps (norm: 4.93041e-07)
------------------------------------
  Starting TPA DIIS iterations ... 
------------------------------------ 
   It     Res. Norm  Remark
------------------------------------
                       Guess.
    1     8.794e-01  
    2     8.480e-01  
    3     4.062e-01  
    4     4.018e-01  
    5     6.272e-02  
    6     2.961e-02  
    7     7.480e-03  
    8     1.957e-03  
    9     8.364e-04  
   10     9.263e-05  
   11     3.303e-05  
   12     1.363e-05  
   13     1.454e-05  
   14     4.874e-06  
   15     2.284e-06  
   16     1.603e-06  
   17     9.034e-07  Converged.
   ... Converged in 17 steps (norm: 9.0336e-07)
------------------------------------
  Two-photon absorbption ...  CPU 74.42 s  wall 18.75 s
  Transition density matrix of state singlet_A_1 printed to ASCII file 'State_singlet_A_1_Transition.txt'
  Transition density matrix of state singlet_A_2 printed to ASCII file 'State_singlet_A_2_Transition.txt'
  Transition density matrix of state singlet_A_3 printed to ASCII file 'State_singlet_A_3_Transition.txt'
  Transition density matrix of state singlet_A_4 printed to ASCII file 'State_singlet_A_4_Transition.txt'
  Transition density matrix of state singlet_A_5 printed to ASCII file 'State_singlet_A_5_Transition.txt'
  Transition density matrix of state singlet_A_6 printed to ASCII file 'State_singlet_A_6_Transition.txt'
  Transition density matrix of state singlet_A_7 printed to ASCII file 'State_singlet_A_7_Transition.txt'
  Transition density matrix of state singlet_A_8 printed to ASCII file 'State_singlet_A_8_Transition.txt'
  Transition density matrix of state singlet_A_9 printed to ASCII file 'State_singlet_A_9_Transition.txt'
  Transition density matrix of state singlet_A_10 printed to ASCII file 'State_singlet_A_10_Transition.txt'
  Transition properties ...  CPU 0.16 s  wall 0.38 s
  Difference density matrix of state singlet_A_1 printed to ASCII file 'State_singlet_A_1_Difference.txt'
  Total density matrix of state singlet_A_1 printed to ASCII file 'State_singlet_A_1_Total.txt'
  Difference density matrix of state singlet_A_2 printed to ASCII file 'State_singlet_A_2_Difference.txt'
  Total density matrix of state singlet_A_2 printed to ASCII file 'State_singlet_A_2_Total.txt'
  Difference density matrix of state singlet_A_3 printed to ASCII file 'State_singlet_A_3_Difference.txt'
  Total density matrix of state singlet_A_3 printed to ASCII file 'State_singlet_A_3_Total.txt'
  Difference density matrix of state singlet_A_4 printed to ASCII file 'State_singlet_A_4_Difference.txt'
  Total density matrix of state singlet_A_4 printed to ASCII file 'State_singlet_A_4_Total.txt'
  Difference density matrix of state singlet_A_5 printed to ASCII file 'State_singlet_A_5_Difference.txt'
  Total density matrix of state singlet_A_5 printed to ASCII file 'State_singlet_A_5_Total.txt'
  Difference density matrix of state singlet_A_6 printed to ASCII file 'State_singlet_A_6_Difference.txt'
  Total density matrix of state singlet_A_6 printed to ASCII file 'State_singlet_A_6_Total.txt'
  Difference density matrix of state singlet_A_7 printed to ASCII file 'State_singlet_A_7_Difference.txt'
  Total density matrix of state singlet_A_7 printed to ASCII file 'State_singlet_A_7_Total.txt'
  Difference density matrix of state singlet_A_8 printed to ASCII file 'State_singlet_A_8_Difference.txt'
  Total density matrix of state singlet_A_8 printed to ASCII file 'State_singlet_A_8_Total.txt'
  Difference density matrix of state singlet_A_9 printed to ASCII file 'State_singlet_A_9_Difference.txt'
  Total density matrix of state singlet_A_9 printed to ASCII file 'State_singlet_A_9_Total.txt'
  Difference density matrix of state singlet_A_10 printed to ASCII file 'State_singlet_A_10_Difference.txt'
  Total density matrix of state singlet_A_10 printed to ASCII file 'State_singlet_A_10_Total.txt'
  Properties ...  CPU 0.31 s  wall 0.60 s
  ISR TDMS ...  CPU 8.92 s  wall 3.17 s
  ISR transition properties ...  CPU 0.17 s  wall 0.08 s
  Sum-over-states TPA ...  CPU 0.00 s  wall 0.00 s

--------------------------------------------------------------------------------
                   State-averaged natural transition orbitals
--------------------------------------------------------------------------------
--------------------------------------------------------------------------------
  SA-NTO decomposition ...  CPU 0.01 s  wall 0.03 s

--------------------------------------------------------------------------------
                             Excited State Summary
--------------------------------------------------------------------------------
--------------------------------------------------------------------------------

  Excited state 1 (singlet, A)                                     [converged]
  ----------------------------------------------------------------------------
  Term symbol:  2 (1) A                                     R^2 =  3.25731e-14

  Total energy:                                            -77.9985550941 a.u.
  Excitation energy:                                               8.736519 eV

  Osc. strength:                                                      0.444968
  Trans. dip. moment [a.u.]:           [  -1.045001,    0.993363,    0.009781]
  <i|r^2|0> [a.u.]:                    [  -6.161269,    0.252261,   -0.005351]
  Two-photon absorption cross-section (SoS) [a.u.]:                   0.000654
  Two-photon absorption matrix (SoS) [a.u.]:
                                       |   -0.006001    0.002533   -0.001844 |
                                       |    0.002533   -0.000481    0.001567 |
                                       |   -0.001844    0.001567   -0.005529 |
  Two-photon absorption cross-section [a.u.]:                         0.005699
  Two-photon absorption matrix [a.u.]:
                                       |   -0.002653    0.001376    0.013871 |
                                       |    0.001376    0.004682    0.022425 |
                                       |    0.013871    0.022425   -0.000576 |

  Dip. moment [a.u.]:                  [  -0.000500,    0.000620,   -0.002809]
  Total dipole [Debye]:                                               0.007422
  <r^2> [a.u.]:                        [ 176.119600,   35.645311,   11.864668]
  Total <r^2> [a.u.]:                                               223.629579

  V1^2 = 0.9714, V2^2 = 0.0286

  Important amplitudes:
      occ i     occ j     vir a      vir b          v   
    -----------------------------------------------------
     8 (A) A              9 (A) A                -0.6808
     6 (A) A             14 (A) A                 0.0623
     4 (A) A             10 (A) A                 0.0606
     7 (A) A             16 (A) A                -0.0569
     5 (A) A             13 (A) A                 0.0513
     6 (A) A             23 (A) A                 0.0486
     8 (A) A             20 (A) A                -0.0349
     6 (A) A             19 (A) A                 0.0309
     3 (A) A             12 (A) A                -0.0281
     7 (A) A              9 (A) A                -0.0216
     5 (A) A             22 (A) A                -0.0215
     7 (A) A             11 (A) A                -0.0209
     4 (A) A             24 (A) A                 0.0187
     3 (A) A             26 (A) A                 0.0185
     8 (A) A   8 (A) B   17 (A) A   20 (A) B      0.0184
     8 (A) A   8 (A) B    9 (A) A   28 (A) B      0.0167
     6 (A) A             26 (A) A                 0.0163
     7 (A) A             21 (A) A                -0.0148
     3 (A) A             14 (A) A                 0.0139
     6 (A) A             12 (A) A                 0.0132
     3 (A) A   4 (A) B    9 (A) A    9 (A) B     -0.0129
     3 (A) A             19 (A) A                 0.0119
     8 (A) A   8 (A) B   18 (A) A   19 (A) B     -0.0113
     7 (A) A             32 (A) A                -0.0096
     7 (A) A             36 (A) A                -0.0086
     3 (A) A             23 (A) A                 0.0080
     8 (A) A   8 (A) B   25 (A) A   29 (A) B     -0.0076
     6 (A) A             35 (A) A                 0.0072
     6 (A) A             40 (A) A                 0.0068
     3 (A) A   6 (A) B    9 (A) A   28 (A) B      0.0064
     6 (A) A   8 (A) A   19 (A) A   28 (A) A      0.0060
     5 (A) A   7 (A) B    9 (A) A    9 (A) B      0.0060
     5 (A) A   8 (A) B   11 (A) A   20 (A) B      0.0059
     7 (A) A   8 (A) B   13 (A) A   20 (A) B     -0.0059
     5 (A) A   8 (A) B   16 (A) A    9 (A) B      0.0059
     5 (A) A   8 (A) B   11 (A) A    9 (A) B     -0.0059
     3 (A) A   5 (A) B    9 (A) A   25 (A) B      0.0058
     3 (A) A             40 (A) A                 0.0057
     7 (A) A   8 (A) B   22 (A) A   20 (A) B      0.0057
     6 (A) A   8 (A) A    9 (A) A   18 (A) A      0.0057
    -----------------------------------------------------

  Density matrix analysis:
  ------------------------
  NOs
    Occupation of frontier NOs:
       0.9496   1.0216
    Number of electrons: 16.000000
    Number of unpaired electrons: n_u =  2.31340, n_u,nl =  2.03263
    NO participation ratio (PR_NO):  2.863597
  
  
  Mulliken Population Analysis
  Atom      Charge (e)              h+              e-           Del q
  --------------------------------------------------------------------
   1 H        0.058804        0.020389       -0.012533        0.007856
   2 C       -0.116304        0.490579       -0.506058       -0.015479
   3 H        0.058273        0.020322       -0.012591        0.007731
   4 C       -0.116963        0.490408       -0.506222       -0.015814
   5 H        0.057732        0.020323       -0.012554        0.007769
   6 H        0.058458        0.020460       -0.012522        0.007938
  --------------------------------------------------------------------
  Sum:        0.000000        1.062481       -1.062481       -0.000000
  
  Multipole moment analysis of the density matrix
    Molecular charge:                      0.000000
    Number of electrons:                   16.000000
      Center of electronic charge [Ang]: [ -1.560560,  -0.065623,   0.001446]
    Total nuclear charge:                  16.000000
      Center of nuclear charge [Ang]:    [ -1.560576,  -0.065602,   0.001353]
    Dipole moment [D]:                     0.007422
      Cartesian components [D]:          [ -0.001271,   0.001576,  -0.007140]
    RMS size of the density [Ang]:         1.214192
      Cartesian components [Ang]:        [  0.804401,   0.787115,   0.455687]
  
  Exciton analysis of the difference density matrix
    <r_h> [Ang]:                  [ -1.560301,  -0.065871,   0.002572]
    <r_e> [Ang]:                  [ -1.560349,  -0.065759,   0.002854]
    |<r_e - r_h>| [Ang]:            0.000307
    Hole size [Ang]:                1.285703
      Cartesian components [Ang]: [  0.728815,   0.713024,   0.783236]
    Electron size [Ang]:            1.463156
      Cartesian components [Ang]: [  0.853974,   0.830388,   0.849711]

  Transition density matrix analysis:
  -----------------------------------
  
  CT numbers (Mulliken)
    omega =     0.9535
    <Phe> =    -0.1605
  
  Exciton analysis of the transition density matrix
    Trans. dipole moment [D]:             1.832392
      Cartesian components [D]:         [ -1.328064,   1.262439,   0.012430]
    <r_h> [Ang]:                        [ -1.560128,  -0.065958,   0.002338]
    <r_e> [Ang]:                        [ -1.560372,  -0.065755,   0.003027]
    |<r_e - r_h>| [Ang]:                  0.000759
    Hole size [Ang]:                      1.214584
      Cartesian components [Ang]:       [  0.650120,   0.637058,   0.804187]
    Electron size [Ang]:                  1.485953
      Cartesian components [Ang]:       [  0.864390,   0.839247,   0.869799]
    RMS electron-hole separation [Ang]:   1.936896
      Cartesian components [Ang]:       [  1.106979,   1.075364,   1.170366]
    Covariance(r_h, r_e) [Ang^2]:        -0.034147
    Correlation coefficient:             -0.018920
    Center-of-mass size [Ang]:            0.950655
      Cartesian components [Ang]:       [  0.527790,   0.515740,   0.599328]

  Decomposition into state-averaged NTOs
    H- 0 -> L+ 0:  0.6696 ( 89.7%)
    H- 2 -> L+ 5:  0.0836 (  1.4%)
                   omega =  95.3%
  ----------------------------------------------------------------------------


  Excited state 2 (singlet, A)                                     [converged]
  ----------------------------------------------------------------------------
  Term symbol:  3 (1) A                                     R^2 =  4.33386e-14

  Total energy:                                            -77.9868406256 a.u.
  Excitation energy:                                               9.055286 eV

  Osc. strength:                                                      0.000588
  Trans. dip. moment [a.u.]:           [  -0.036262,    0.036326,    0.003931]
  <i|r^2|0> [a.u.]:                    [  -0.271618,   -0.078160,    0.144965]
  Two-photon absorption cross-section (SoS) [a.u.]:                   4.898880
  Two-photon absorption matrix (SoS) [a.u.]:
                                       |   -0.041613   -0.056137    0.542690 |
                                       |   -0.056137   -0.071590    0.552109 |
                                       |    0.542690    0.552109    0.113520 |
  Two-photon absorption cross-section [a.u.]:                         0.078401
  Two-photon absorption matrix [a.u.]:
                                       |    0.027849    0.008074   -0.057882 |
                                       |    0.008074   -0.013706   -0.076180 |
                                       |   -0.057882   -0.076180   -0.014102 |

  Dip. moment [a.u.]:                  [  -0.002671,    0.010481,   -0.004703]
  Total dipole [Debye]:                                               0.029978
  <r^2> [a.u.]:                        [ 174.527498,   33.975456,   13.167511]
  Total <r^2> [a.u.]:                                               221.670464

  V1^2 = 0.9542, V2^2 = 0.0458

  Important amplitudes:
      occ i     occ j     vir a      vir b          v   
    -----------------------------------------------------
     7 (A) A              9 (A) A                 0.6689
     8 (A) A             11 (A) A                 0.1481
     7 (A) A             20 (A) A                 0.0758
     5 (A) A   8 (A) B    9 (A) A    9 (A) B     -0.0316
     8 (A) A             16 (A) A                -0.0273
     8 (A) A              9 (A) A                -0.0212
     8 (A) A             21 (A) A                 0.0176
     5 (A) A             28 (A) A                -0.0150
     4 (A) A   7 (A) B    9 (A) A   19 (A) B     -0.0135
     5 (A) A   7 (A) B    9 (A) A   16 (A) B      0.0134
     7 (A) A   8 (A) B   20 (A) A   17 (A) B     -0.0105
     7 (A) A   8 (A) A    9 (A) A   28 (A) A      0.0097
     5 (A) A   8 (A) B    9 (A) A   20 (A) B     -0.0096
     4 (A) A   6 (A) B    9 (A) A   16 (A) B      0.0091
     5 (A) A   6 (A) A    9 (A) A   23 (A) A     -0.0091
     5 (A) A   6 (A) A    9 (A) A   14 (A) A     -0.0089
     5 (A) A   6 (A) B    9 (A) A   19 (A) B     -0.0087
     4 (A) A   5 (A) A    9 (A) A   10 (A) A      0.0084
     8 (A) A   7 (A) B    9 (A) A   28 (A) B     -0.0084
     6 (A) A   7 (A) B    9 (A) A   18 (A) B     -0.0083
     5 (A) A   6 (A) B    9 (A) A   23 (A) B     -0.0080
     3 (A) A   7 (A) B    9 (A) A   18 (A) B      0.0080
     5 (A) A   7 (A) A    9 (A) A   16 (A) A      0.0079
     4 (A) A   8 (A) B    9 (A) A   25 (A) B      0.0077
     7 (A) A   8 (A) B   17 (A) A   20 (A) B     -0.0074
     4 (A) A   7 (A) B   19 (A) A    9 (A) B     -0.0074
     5 (A) A   5 (A) B    9 (A) A   13 (A) B     -0.0072
     7 (A) A   8 (A) B   19 (A) A   18 (A) B      0.0072
     5 (A) A   8 (A) A    9 (A) A   20 (A) A     -0.0069
     8 (A) A             10 (A) A                -0.0068
     4 (A) A   5 (A) B    9 (A) A   18 (A) B     -0.0068
     7 (A) A   7 (A) B   20 (A) A   22 (A) B     -0.0065
     7 (A) A   8 (A) B   17 (A) A    9 (A) B     -0.0065
     5 (A) A   6 (A) B    9 (A) A   14 (A) B     -0.0063
     4 (A) A   7 (A) A    9 (A) A   19 (A) A     -0.0061
     4 (A) A   5 (A) B   10 (A) A    9 (A) B     -0.0061
     5 (A) A   7 (A) B   11 (A) A   20 (A) B     -0.0060
     5 (A) A             38 (A) A                -0.0060
     4 (A) A   7 (A) B    9 (A) A   14 (A) B      0.0060
     4 (A) A   8 (A) A    9 (A) A   25 (A) A      0.0057
    -----------------------------------------------------

  Density matrix analysis:
  ------------------------
  NOs
    Occupation of frontier NOs:
       0.9580   1.0537
    Number of electrons: 16.000000
    Number of unpaired electrons: n_u =  2.35523, n_u,nl =  2.06271
    NO participation ratio (PR_NO):  3.027236
  
  
  Mulliken Population Analysis
  Atom      Charge (e)              h+              e-           Del q
  --------------------------------------------------------------------
   1 H        0.149198        0.121515       -0.023265        0.098249
   2 C       -0.301694        0.271117       -0.471987       -0.200870
   3 H        0.151698        0.126920       -0.025765        0.101155
   4 C       -0.301973        0.273250       -0.474074       -0.200824
   5 H        0.154186        0.127496       -0.023273        0.104223
   6 H        0.148586        0.123514       -0.025447        0.098066
  --------------------------------------------------------------------
  Sum:        0.000000        1.043812       -1.043812        0.000000
  
  Multipole moment analysis of the density matrix
    Molecular charge:                      0.000000
    Number of electrons:                   16.000000
      Center of electronic charge [Ang]: [ -1.560488,  -0.065949,   0.001509]
    Total nuclear charge:                  16.000000
      Center of nuclear charge [Ang]:    [ -1.560576,  -0.065602,   0.001353]
    Dipole moment [D]:                     0.029978
      Cartesian components [D]:          [ -0.006790,   0.026639,  -0.011955]
    RMS size of the density [Ang]:         1.200064
      Cartesian components [Ang]:        [  0.787032,   0.768298,   0.480055]
  
  Exciton analysis of the difference density matrix
    <r_h> [Ang]:                  [ -1.565136,  -0.063472,   0.000967]
    <r_e> [Ang]:                  [ -1.564084,  -0.068357,   0.002215]
    |<r_e - r_h>| [Ang]:            0.005151
    Hole size [Ang]:                1.486012
      Cartesian components [Ang]: [  0.999505,   1.001213,   0.454744]
    Electron size [Ang]:            1.477142
      Cartesian components [Ang]: [  0.881462,   0.859167,   0.816580]

  Transition density matrix analysis:
  -----------------------------------
  
  CT numbers (Mulliken)
    omega =     0.9218
    <Phe> =    -0.0123
  
  Exciton analysis of the transition density matrix
    Trans. dipole moment [D]:             0.065422
      Cartesian components [D]:         [ -0.046084,   0.046166,   0.004996]
    <r_h> [Ang]:                        [ -1.565762,  -0.062896,   0.000677]
    <r_e> [Ang]:                        [ -1.563747,  -0.068989,   0.002540]
    |<r_e - r_h>| [Ang]:                  0.006682
    Hole size [Ang]:                      1.514507
      Cartesian components [Ang]:       [  1.022066,   1.025495,   0.444380]
    Electron size [Ang]:                  1.474255
      Cartesian components [Ang]:       [  0.872134,   0.848525,   0.832356]
    RMS electron-hole separation [Ang]:   2.093790
      Cartesian components [Ang]:       [  1.327762,   1.316114,   0.942787]
    Covariance(r_h, r_e) [Ang^2]:         0.041625
    Correlation coefficient:              0.018643
    Center-of-mass size [Ang]:            1.066584
      Cartesian components [Ang]:       [  0.679618,   0.672894,   0.472159]

  Decomposition into state-averaged NTOs
    H- 1 -> L+ 0:  0.6613 ( 87.5%)
    H- 0 -> L+ 2:  0.1481 (  4.4%)
                   omega =  92.2%
  ----------------------------------------------------------------------------


  Excited state 3 (singlet, A)                                     [converged]
  ----------------------------------------------------------------------------
  Term symbol:  4 (1) A                                     R^2 =  7.43442e-14

  Total energy:                                            -77.9825689609 a.u.
  Excitation energy:                                               9.171524 eV

  Osc. strength:                                                      0.025223
  Trans. dip. moment [a.u.]:           [   0.018675,    0.015935,   -0.334140]
  <i|r^2|0> [a.u.]:                    [   0.092098,    0.024203,    0.002130]
  Two-photon absorption cross-section (SoS) [a.u.]:                   0.137193
  Two-photon absorption matrix (SoS) [a.u.]:
                                       |   -0.129075   -0.005207   -0.018210 |
                                       |   -0.005207    0.126763    0.000018 |
                                       |   -0.018210    0.000018   -0.023031 |
  Two-photon absorption cross-section [a.u.]:                         0.075405
  Two-photon absorption matrix [a.u.]:
                                       |   -0.100779   -0.000232   -0.020911 |
                                       |   -0.000232    0.084162   -0.000514 |
                                       |   -0.020911   -0.000514   -0.015186 |

  Dip. moment [a.u.]:                  [   0.002914,    0.017002,    0.004163]
  Total dipole [Debye]:                                               0.045104
  <r^2> [a.u.]:                        [ 180.882778,   40.609664,   11.020513]
  Total <r^2> [a.u.]:                                               232.512955

  V1^2 = 0.9587, V2^2 = 0.0413

  Important amplitudes:
      occ i     occ j     vir a      vir b          v   
    -----------------------------------------------------
     8 (A) A             10 (A) A                 0.6891
     8 (A) A             24 (A) A                 0.0507
     8 (A) A             18 (A) A                -0.0312
     4 (A) A              9 (A) A                -0.0238
     8 (A) A   8 (A) B    9 (A) A   12 (A) B      0.0219
     8 (A) A   8 (A) B   10 (A) A   17 (A) B      0.0173
     8 (A) A             15 (A) A                 0.0169
     5 (A) A   8 (A) B   11 (A) A   10 (A) B      0.0165
     7 (A) A   8 (A) B   13 (A) A   10 (A) B     -0.0141
     4 (A) A   8 (A) B   12 (A) A   10 (A) B     -0.0111
     6 (A) A   8 (A) A   10 (A) A   15 (A) A     -0.0110
     7 (A) A   8 (A) B   22 (A) A   10 (A) B      0.0108
     6 (A) A   8 (A) B   15 (A) A   10 (A) B      0.0108
     4 (A) A   8 (A) A   10 (A) A   12 (A) A      0.0106
     7 (A) A   8 (A) A   10 (A) A   22 (A) A     -0.0099
     7 (A) A   8 (A) A   10 (A) A   13 (A) A      0.0097
     5 (A) A   8 (A) B   21 (A) A   10 (A) B      0.0094
     5 (A) A   8 (A) A   10 (A) A   11 (A) A     -0.0094
     6 (A) A   8 (A) A   10 (A) A   18 (A) A     -0.0088
     6 (A) A   8 (A) B   10 (A) A   10 (A) B     -0.0087
     7 (A) A   8 (A) A   12 (A) A   16 (A) A      0.0082
     5 (A) A   8 (A) A   10 (A) A   21 (A) A     -0.0080
     3 (A) A   4 (A) B   10 (A) A    9 (A) B      0.0079
     4 (A) A   8 (A) B   19 (A) A   10 (A) B      0.0075
     8 (A) A   8 (A) B    9 (A) A   23 (A) B      0.0075
     8 (A) A   8 (A) B   10 (A) A   28 (A) B     -0.0072
     3 (A) A   8 (A) B   10 (A) A   10 (A) B      0.0072
     5 (A) A   8 (A) B   10 (A) A   11 (A) B      0.0071
     3 (A) A   8 (A) A   10 (A) A   24 (A) A     -0.0071
     7 (A) A              9 (A) A                 0.0071
     7 (A) A   8 (A) B   16 (A) A   12 (A) B     -0.0070
     3 (A) A   8 (A) B   10 (A) A   18 (A) B     -0.0069
     8 (A) A   8 (A) B    9 (A) A   19 (A) B     -0.0068
     6 (A) A   8 (A) B   18 (A) A   10 (A) B      0.0067
     3 (A) A   6 (A) B   10 (A) A   28 (A) B     -0.0062
     7 (A) A   8 (A) B   12 (A) A   11 (A) B      0.0057
     6 (A) A             28 (A) A                 0.0057
     3 (A) A   5 (A) B   10 (A) A   25 (A) B     -0.0056
     5 (A) A   8 (A) A   10 (A) A   16 (A) A      0.0056
     3 (A) A   8 (A) A   10 (A) A   18 (A) A     -0.0056
    -----------------------------------------------------

  Density matrix analysis:
  ------------------------
  NOs
    Occupation of frontier NOs:
       0.9815   0.9849
    Number of electrons: 16.000000
    Number of unpaired electrons: n_u =  2.28537, n_u,nl =  2.02443
    NO participation ratio (PR_NO):  2.692164
  
  
  Mulliken Population Analysis
  Atom      Charge (e)              h+              e-           Del q
  --------------------------------------------------------------------
   1 H       -0.162448        0.053929       -0.267325       -0.213396
   2 C        0.327889        0.538961       -0.110247        0.428714
   3 H       -0.166912        0.053703       -0.271158       -0.217455
   4 C        0.327090        0.537364       -0.109126        0.428239
   5 H       -0.161917        0.054004       -0.265883       -0.211880
   6 H       -0.163702        0.053863       -0.268084       -0.214222
  --------------------------------------------------------------------
  Sum:        0.000000        1.291823       -1.291823       -0.000000
  
  Multipole moment analysis of the density matrix
    Molecular charge:                      0.000000
    Number of electrons:                   16.000000
      Center of electronic charge [Ang]: [ -1.560673,  -0.066165,   0.001215]
    Total nuclear charge:                  16.000000
      Center of nuclear charge [Ang]:    [ -1.560576,  -0.065602,   0.001353]
    Dipole moment [D]:                     0.045104
      Cartesian components [D]:          [  0.007407,   0.043215,   0.010581]
    RMS size of the density [Ang]:         1.276445
      Cartesian components [Ang]:        [  0.854443,   0.840454,   0.439178]
  
  Exciton analysis of the difference density matrix
    <r_h> [Ang]:                  [ -1.560013,  -0.066211,   0.002047]
    <r_e> [Ang]:                  [ -1.561451,  -0.072830,  -0.000577]
    |<r_e - r_h>| [Ang]:            0.007264
    Hole size [Ang]:                1.410264
      Cartesian components [Ang]: [  0.834044,   0.819745,   0.788183]
    Electron size [Ang]:            2.076148
      Cartesian components [Ang]: [  1.373575,   1.377009,   0.726312]

  Transition density matrix analysis:
  -----------------------------------
  
  CT numbers (Mulliken)
    omega =     0.9259
    <Phe> =    -0.0109
  
  Exciton analysis of the transition density matrix
    Trans. dipole moment [D]:             0.425794
      Cartesian components [D]:         [  0.023734,   0.020251,  -0.424649]
    <r_h> [Ang]:                        [ -1.559678,  -0.065654,   0.002711]
    <r_e> [Ang]:                        [ -1.561642,  -0.075288,  -0.001303]
    |<r_e - r_h>| [Ang]:                  0.010621
    Hole size [Ang]:                      1.212980
      Cartesian components [Ang]:       [  0.636536,   0.623408,   0.823106]
    Electron size [Ang]:                  2.296503
      Cartesian components [Ang]:       [  1.518224,   1.524513,   0.802982]
    RMS electron-hole separation [Ang]:   2.587275
      Cartesian components [Ang]:       [  1.638770,   1.640095,   1.148266]
    Covariance(r_h, r_e) [Ang^2]:         0.025682
    Correlation coefficient:              0.009220
    Center-of-mass size [Ang]:            1.303515
      Cartesian components [Ang]:       [  0.826862,   0.827003,   0.575776]

  Decomposition into state-averaged NTOs
    H- 0 -> L+ 1: -0.6797 ( 92.4%)
                   omega =  92.6%
  ----------------------------------------------------------------------------


  Excited state 4 (singlet, A)                                     [converged]
  ----------------------------------------------------------------------------
  Term symbol:  5 (1) A                                     R^2 =  6.95932e-14

  Total energy:                                            -77.9582084207 a.u.
  Excitation energy:                                               9.834408 eV

  Osc. strength:                                                      0.000093
  Trans. dip. moment [a.u.]:           [  -0.014075,    0.013446,    0.002288]
  <i|r^2|0> [a.u.]:                    [  -0.066531,    0.021864,   -0.035079]
  Two-photon absorption cross-section (SoS) [a.u.]:                 149.756026
  Two-photon absorption matrix (SoS) [a.u.]:
                                       |    0.254473    0.312631   -3.022942 |
                                       |    0.312631    0.371494   -3.030774 |
                                       |   -3.022942   -3.030774   -0.627073 |
  Two-photon absorption cross-section [a.u.]:                        91.998241
  Two-photon absorption matrix [a.u.]:
                                       |    0.182869    0.243938   -2.366202 |
                                       |    0.243938    0.307442   -2.378359 |
                                       |   -2.366202   -2.378359   -0.491510 |

  Dip. moment [a.u.]:                  [  -0.019468,   -0.012212,    0.001609]
  Total dipole [Debye]:                                               0.058556
  <r^2> [a.u.]:                        [ 181.215419,   40.504072,   10.757300]
  Total <r^2> [a.u.]:                                               232.476792

  V1^2 = 0.9635, V2^2 = 0.0365

  Important amplitudes:
      occ i     occ j     vir a      vir b          v   
    -----------------------------------------------------
     8 (A) A             11 (A) A                -0.6697
     7 (A) A              9 (A) A                 0.1501
     8 (A) A             21 (A) A                -0.0781
     8 (A) A             16 (A) A                 0.0645
     8 (A) A   8 (A) B    9 (A) A   13 (A) B      0.0167
     5 (A) A   8 (A) B   11 (A) A   11 (A) B     -0.0155
     8 (A) A   8 (A) B   11 (A) A   17 (A) B     -0.0140
     7 (A) A             20 (A) A                 0.0137
     7 (A) A   8 (A) B   13 (A) A   11 (A) B      0.0127
     8 (A) A             12 (A) A                -0.0124
     5 (A) A   8 (A) A   11 (A) A   21 (A) A      0.0110
     4 (A) A   8 (A) B   12 (A) A   11 (A) B      0.0110
     8 (A) A   8 (A) B    9 (A) A   22 (A) B     -0.0107
     7 (A) A   8 (A) A   11 (A) A   22 (A) A      0.0096
     6 (A) A   8 (A) B   15 (A) A   11 (A) B     -0.0090
     6 (A) A   8 (A) B   10 (A) A   11 (A) B      0.0090
     7 (A) A   8 (A) B   22 (A) A   11 (A) B     -0.0089
     3 (A) A   4 (A) B   11 (A) A    9 (A) B     -0.0083
     3 (A) A   8 (A) B   11 (A) A   18 (A) B      0.0081
     6 (A) A   8 (A) A   11 (A) A   15 (A) A      0.0080
     6 (A) A              9 (A) A                -0.0079
     7 (A) A   8 (A) A   13 (A) A   16 (A) A      0.0078
     7 (A) A   8 (A) A   11 (A) A   13 (A) A     -0.0077
     5 (A) A   8 (A) B   21 (A) A   11 (A) B     -0.0071
     4 (A) A   8 (A) B   19 (A) A   11 (A) B     -0.0070
     5 (A) A   8 (A) B    9 (A) A    9 (A) B     -0.0068
     4 (A) A   8 (A) A   11 (A) A   12 (A) A     -0.0062
     6 (A) A   8 (A) A   11 (A) A   18 (A) A      0.0062
     3 (A) A   6 (A) B   11 (A) A   28 (A) B      0.0060
     6 (A) A   8 (A) B   18 (A) A   11 (A) B     -0.0060
     7 (A) A   8 (A) B   16 (A) A   13 (A) B     -0.0057
     3 (A) A   8 (A) A   11 (A) A   18 (A) A      0.0056
     5 (A) A   8 (A) B   10 (A) A   10 (A) B     -0.0056
     3 (A) A   8 (A) B   11 (A) A   30 (A) B      0.0055
     3 (A) A   5 (A) B   11 (A) A   25 (A) B      0.0055
     6 (A) A   8 (A) B   11 (A) A   10 (A) B      0.0054
     7 (A) A   8 (A) B   12 (A) A   10 (A) B     -0.0054
     8 (A) A   8 (A) B   20 (A) A   22 (A) B     -0.0053
     3 (A) A   8 (A) A   11 (A) A   24 (A) A      0.0053
     5 (A) A   8 (A) A   11 (A) A   16 (A) A     -0.0048
    -----------------------------------------------------

  Density matrix analysis:
  ------------------------
  NOs
    Occupation of frontier NOs:
       0.9408   1.0277
    Number of electrons: 16.000000
    Number of unpaired electrons: n_u =  2.31910, n_u,nl =  2.04905
    NO participation ratio (PR_NO):  2.914016
  
  
  Mulliken Population Analysis
  Atom      Charge (e)              h+              e-           Del q
  --------------------------------------------------------------------
   1 H       -0.148959        0.045757       -0.245664       -0.199907
   2 C        0.275035        0.497266       -0.121406        0.375860
   3 H       -0.126610        0.046941       -0.224093       -0.177152
   4 C        0.273517        0.496777       -0.122111        0.374665
   5 H       -0.131206        0.047087       -0.228255       -0.181169
   6 H       -0.141777        0.045808       -0.238105       -0.192297
  --------------------------------------------------------------------
  Sum:        0.000000        1.179635       -1.179635       -0.000000
  
  Multipole moment analysis of the density matrix
    Molecular charge:                      0.000000
    Number of electrons:                   16.000000
      Center of electronic charge [Ang]: [ -1.559932,  -0.065198,   0.001300]
    Total nuclear charge:                  16.000000
      Center of nuclear charge [Ang]:    [ -1.560576,  -0.065602,   0.001353]
    Dipole moment [D]:                     0.058556
      Cartesian components [D]:          [ -0.049483,  -0.031040,   0.004090]
    RMS size of the density [Ang]:         1.277152
      Cartesian components [Ang]:        [  0.859188,   0.839430,   0.433901]
  
  Exciton analysis of the difference density matrix
    <r_h> [Ang]:                  [ -1.559901,  -0.065357,   0.002202]
    <r_e> [Ang]:                  [ -1.551435,  -0.059500,   0.000474]
    |<r_e - r_h>| [Ang]:            0.010438
    Hole size [Ang]:                1.394820
      Cartesian components [Ang]: [  0.818331,   0.806729,   0.790598]
    Electron size [Ang]:            2.124210
      Cartesian components [Ang]: [  1.443690,   1.402883,   0.678194]

  Transition density matrix analysis:
  -----------------------------------
  
  CT numbers (Mulliken)
    omega =     0.9298
    <Phe> =    -0.0135
  
  Exciton analysis of the transition density matrix
    Trans. dipole moment [D]:             0.024908
      Cartesian components [D]:         [ -0.017887,   0.017088,   0.002907]
    <r_h> [Ang]:                        [ -1.560472,  -0.065709,   0.002573]
    <r_e> [Ang]:                        [ -1.549832,  -0.058229,   0.000285]
    |<r_e - r_h>| [Ang]:                  0.013206
    Hole size [Ang]:                      1.227929
      Cartesian components [Ang]:       [  0.657794,   0.650159,   0.807719]
    Electron size [Ang]:                  2.262331
      Cartesian components [Ang]:       [  1.538284,   1.494240,   0.720466]
    RMS electron-hole separation [Ang]:   2.563436
      Cartesian components [Ang]:       [  1.664490,   1.621793,   1.081881]
    Covariance(r_h, r_e) [Ang^2]:         0.027461
    Correlation coefficient:              0.009885
    Center-of-mass size [Ang]:            1.292369
      Cartesian components [Ang]:       [  0.840775,   0.818652,   0.541410]

  Decomposition into state-averaged NTOs
    H- 0 -> L+ 2: -0.6650 ( 88.5%)
    H- 1 -> L+ 0:  0.1481 (  4.4%)
                   omega =  93.0%
  ----------------------------------------------------------------------------


  Excited state 5 (singlet, A)                                     [converged]
  ----------------------------------------------------------------------------
  Term symbol:  6 (1) A                                     R^2 =  2.10202e-13

  Total energy:                                            -77.9443017213 a.u.
  Excitation energy:                                              10.212829 eV

  Osc. strength:                                                      0.000002
  Trans. dip. moment [a.u.]:           [   0.001603,    0.002246,    0.000159]
  <i|r^2|0> [a.u.]:                    [  -0.075676,    0.099826,   -0.012590]
[...]
    16   -1.575767875709e-03
    17   -1.734648467723e-03
    18   -1.097288848667e-04
    19   -3.328376909990e-03
    20    1.089396784190e-02
    21    9.364051626041e-01
    22   -2.589907842135e-04
    23    1.400502632239e-02
    24    8.023245668796e-04
    25    7.019668375543e-02
    26   -5.217921491923e-02
    27   -1.398824827914e+00
    28    9.795489921324e-02
    29   -9.252568873049e-02
    30    5.041283830452e-04
    31    3.850190675443e-01
    32   -3.624576830136e-01
    33    2.148824981839e-03
    34    1.567096700010e-02
    35   -1.487821565856e-03
    36   -1.482318231387e-03
    37   -8.454588159873e-06
    38   -3.134659507871e-03
    39    9.744144302560e-03
    40    9.313318631225e-01
    41    2.360295696258e-04
    42   -1.394014793681e-02
    43   -6.729214918588e-04
    44    1.004114595989e-02
    45    9.401731655099e-01
    46    1.412218197790e-02
    47    3.857719294074e-04
    48    7.053720305129e-04
Sym=X
Ene= 0.232995
Spin=Alpha
Occup=0
     1    2.620264247517e-02
     2    1.238875074334e+00
     3   -1.439356564350e-02
     4   -3.848985491405e-03
     5   -9.707909839555e-04
     6    3.399135598511e-03
     7   -3.776878896848e-03
     8   -5.483982809113e-02
     9   -1.551214926746e-01
    10   -1.583093203946e-01
    11   -1.737528200038e-02
    12   -5.576875705845e-01
    13   -5.571527228375e-01
    14   -6.243470971983e-02
    15    6.097172234137e-04
    16   -1.860357020776e-04
    17   -6.264101539432e-05
    18   -2.201392669092e-04
    19   -3.935404816294e-04
    20   -2.495778407890e-02
    21   -1.156131833161e+00
    22   -2.463496575082e-03
    23   -1.350192391664e-02
    24   -9.304064411783e-04
    25   -2.993256728206e-03
    26    3.449422172916e-03
    27    4.383874879195e-02
    28   -1.540924183337e-01
    29   -1.589102864441e-01
    30   -1.496192407121e-02
    31   -5.484644902461e-01
    32   -5.553058563689e-01
    33   -5.195858094359e-02
    34   -5.094255187438e-04
    35    1.293727970899e-04
    36    2.093923321124e-04
    37    3.925975210781e-04
    38    3.551247563084e-04
    39    2.492221202520e-02
    40    1.155890686889e+00
    41   -2.443494158609e-03
    42   -1.360778080407e-02
    43   -7.934813184208e-04
    44   -2.631757556760e-02
    45   -1.224741966434e+00
    46   -1.427383124789e-02
    47   -3.788422270596e-03
    48   -8.346135479455e-04
Sym=X
Ene= 0.239427
Spin=Alpha
Occup=0
     1   -1.594438828692e-02
     2   -1.046445541240e+00
     3    1.646542219072e-02
     4    9.093830004081e-03
     5    1.268999206391e-03
     6   -8.645221780938e-02
     7    7.968644050436e-02
     8    1.592114978889e+00
     9    5.262226264220e-02
    10   -6.112083748392e-02
    11   -1.592683073221e-03
    12    2.091248117533e-01
    13   -2.373345431300e-01
    14   -6.541362815034e-03
    15   -2.254639909096e-02
    16    2.493054829167e-03
    17    2.982772430241e-03
    18   -5.187979814076e-04
    19    1.286230296682e-02
    20   -1.703801030936e-02
    21   -1.128329392357e+00
    22   -8.547199952026e-03
    23   -1.781144533913e-02
    24   -1.460047139570e-03
    25    8.644486567141e-02
    26   -7.928144610537e-02
    27   -1.597367936820e+00
    28    5.285678268103e-02
    29   -6.176643797127e-02
    30    3.220375207033e-04
    31    2.092731004865e-01
    32   -2.435309674999e-01
    33    1.295819425215e-03
    34    2.267521375348e-02
    35   -2.568807832023e-03
    36   -2.725550325343e-03
    37    7.680757789621e-04
    38   -1.280276209336e-02
    39    1.681133998502e-02
    40    1.135986671602e+00
    41   -8.645044601142e-03
    42   -1.799779285442e-02
    43   -1.297992846710e-03
    44    1.548282871898e-02
    45    1.044922210497e+00
    46    1.639001747361e-02
    47    9.272604843203e-03
    48    1.358039099182e-03
Sym=X
Ene= 0.303268
Spin=Alpha
Occup=0
     1   -2.072994178907e-02
     2    1.690983867291e+00
     3   -2.290824761919e-02
     4    2.760282822929e-04
     5   -1.044831386076e-03
     6   -2.173624464654e-04
     7    1.899888341137e-04
     8    2.444843893102e-03
     9   -1.338302222785e-01
    10   -1.395236503973e-01
    11   -1.481638936213e-02
    12   -1.144236682712e+00
    13   -1.193681281761e+00
    14   -1.230643143468e-01
    15   -1.190838608836e-04
    16   -1.533406912134e-03
    17    1.924987185239e-03
    18   -3.265392371567e-02
    19   -1.587869184202e-03
    20    1.995142550948e-02
    21   -1.689707710956e+00
    22    1.430008360141e-03
    23   -2.290183898089e-02
    24   -1.336350243975e-03
    25    8.663113566945e-05
    26    2.639060566397e-04
    27   -7.790878242473e-03
    28    1.347815407098e-01
    29    1.403518228762e-01
    30    1.349033046456e-02
    31    1.140194238040e+00
    32    1.198541355668e+00
    33    1.183747293780e-01
    34   -3.583329423030e-06
    35   -1.788516879331e-03
    36    1.500250625155e-03
    37   -3.253748713324e-02
    38   -1.647609585262e-03
    39    1.965330487813e-02
    40   -1.693699759373e+00
    41   -1.617154068859e-03
    42    2.285180531064e-02
    43    1.126354000609e-03
    44   -2.007030237246e-02
    45    1.699064248624e+00
    46    2.305144822719e-02
    47   -3.748429954467e-04
    48    1.037550325697e-03
Sym=X
Ene= 0.462077
Spin=Alpha
Occup=0
     1   -1.156560032083e-01
     2   -7.145910064654e-01
     3   -1.567331253056e-02
     4   -1.032908501659e-02
     5   -1.401312394704e-03
     6    6.081284233491e-02
     7    1.734756573216e-02
     8   -3.592344880346e+00
     9    1.029788470198e-01
    10   -9.902843399246e-02
    11   -6.456488410554e-04
    12    2.426754648048e+00
    13   -2.303282532497e+00
    14   -2.322733602173e-02
    15    5.365399362460e-02
    16   -3.644954941932e-03
    17   -4.563276898741e-03
    18   -7.619159820862e-04
    19    1.800097414588e-02
    20   -1.212110936983e-01
    21   -7.023677722446e-01
    22    8.728375894003e-03
    23    1.637525575064e-02
    24    1.402761241777e-03
    25   -6.094795501197e-02
    26   -1.621996774422e-02
    27    3.591091968645e+00
    28    1.051263797797e-01
    29   -1.005151552447e-01
    30    4.918537665336e-04
    31    2.422722373163e+00
    32   -2.299356806145e+00
    33   -1.808842276491e-02
    34   -5.273090684224e-02
    35    2.963650859953e-03
    36    4.069974906263e-03
    37    6.698506576576e-04
    38   -1.900875675852e-02
    39    1.148529168946e-01
    40    7.107919790161e-01
    41    8.585283717385e-03
    42    1.625152666634e-02
    43    1.274463326357e-03
    44    1.106994770677e-01
    45    7.179500268302e-01
    46   -1.546487160836e-02
    47   -9.932645306052e-03
    48   -1.167340201813e-03
Sym=X
Ene= 0.577517
Spin=Alpha
Occup=0
     1    2.470233929769e-01
     2    4.058050149674e-02
     3   -1.846539195033e-02
     4    2.570003533817e-02
     5    6.288098364799e-04
     6   -4.436143384697e-03
     7   -1.572271626939e-01
     8   -4.671954243867e-01
     9    2.988643313215e-01
    10   -2.879868591220e-01
    11   -2.712060119907e-03
    12   -7.190078771645e-01
    13    6.957537038272e-01
    14    5.637194503690e-03
    15   -5.879169102638e-03
    16    3.694944135246e-03
    17    3.675399849975e-03
    18   -4.310932799472e-03
    19    6.023871805749e-02
    20    2.552105820385e-01
    21    2.911716532426e-02
    22   -2.642068897505e-02
    23    1.648103392895e-02
    24   -2.866433437679e-04
    25   -5.654638223250e-03
    26   -1.579062892225e-01
    27   -4.091616790628e-01
    28   -2.973852187008e-01
    29    2.851824842442e-01
    30    2.794675620953e-03
    31    7.631233845343e-01
    32   -7.344482254616e-01
    33   -4.659899006026e-03
    34   -5.846800024450e-03
    35    3.698422166180e-03
    36    3.587144342001e-03
    37   -3.752147262504e-03
    38    6.019369156710e-02
    39    2.506942953881e-01
    40    5.116563624061e-02
    41    2.717006750722e-02
    42   -1.697769883803e-02
    43    3.717630149777e-04
    44    2.489409328662e-01
    45    5.628703944922e-02
    46    1.844166856176e-02
    47   -2.589609151921e-02
    48   -5.080922254990e-04
Sym=X
Ene= 0.615140
Spin=Alpha
Occup=0
     1   -5.220980477323e-01
     2    2.003964970361e-01
     3   -6.135063677521e-02
     4    3.763055378034e-02
     5   -5.548134088511e-04
     6   -5.912229739234e-04
     7    1.252499272118e-04
     8   -1.602563818929e-02
     9   -4.039237675501e-02
    10   -3.857173120716e-02
    11   -3.685278543009e-03
    12    3.039671294616e-01
    13    2.792793206513e-01
    14    3.289482292540e-02
    15    1.872534052651e-03
    16   -7.227131579678e-03
    17    8.188094948693e-03
    18   -1.479765733560e-01
    19   -6.445604328026e-03
    20    5.082350453705e-01
    21   -2.048572029789e-01
    22    4.177789913274e-02
    23   -5.847047708741e-02
    24   -1.369899873910e-03
    25    4.184985072604e-04
    26   -1.220653213187e-03
    27    2.485485356779e-02
    28   -4.011102552442e-02
    29   -4.050631299181e-02
    30   -4.477778026203e-03
    31    3.039990931756e-01
    32    2.916811164223e-01
    33    2.756492183867e-02
    34   -1.379954516728e-03
    35    7.949127931993e-03
    36   -7.301935996888e-03
    37    1.491177168147e-01
    38    6.314247050379e-03
    39   -5.145139298101e-01
    40    2.054937708332e-01
    41    4.088560404822e-02
    42   -5.856305818710e-02
    43   -1.292489513658e-03
    44    5.221447765141e-01
    45   -2.041837011544e-01
    46   -6.146128424339e-02
    47    3.759336915363e-02
    48   -1.009877863220e-03
Sym=X
Ene= 0.689157
Spin=Alpha
Occup=0
     1   -2.037355316994e-03
     2   -1.766064330933e-03
     3    7.486581473212e-04
     4    1.147584325437e-03
     5   -2.102952171267e-02
     6   -1.532563985724e-04
     7   -1.353378653338e-03
     8   -4.786505382074e-04
     9    3.290611495347e-02
    10    3.874485890881e-02
    11   -6.703699944681e-01
    12   -2.745220373657e-02
    13   -3.907922175114e-02
    14    6.135024886114e-01
    15   -6.157142782749e-04
    16    8.260898438519e-02
    17   -7.847057130489e-02
    18   -7.807884796797e-03
    19   -1.595924235402e-03
    20   -2.562738227427e-03
    21    6.475844103070e-04
    22    1.425093849049e-03
    23    1.679643960961e-03
    24   -2.088242382420e-02
    25   -3.966243032668e-05
    26   -2.455338394296e-03
    27    2.823910876939e-03
    28    2.960442150994e-02
    29    3.686162713588e-02
    30   -6.703599427423e-01
    31   -2.334257606677e-02
    32   -3.621382554643e-02
    33    6.135429741115e-01
    34    1.879016737251e-03
    35   -8.280634210289e-02
    36    7.839986271062e-02
    37    8.723133791222e-03
    38    1.177138359939e-03
    39   -6.767097269069e-04
    40    3.990317055557e-03
    41    7.955497775068e-04
    42    4.517749781887e-04
    43   -2.123815863637e-02
    44   -1.383465678813e-04
    45    1.585250991650e-03
    46    1.461267034537e-03
    47    9.839257793896e-04
    48   -2.103613520158e-02
Sym=X
Ene= 0.708993
Spin=Alpha
Occup=0
     1   -4.765192118821e-01
     2    1.592072826409e-01
     3   -8.087015799523e-02
     4   -4.429317695210e-02
     5   -6.223726876221e-03
     6   -4.792776773817e-02
     7   -3.198304704004e-01
     8    5.116950192913e-01
     9    2.033387982688e-01
    10   -1.923558643538e-01
    11    7.708843741766e-04
    12   -9.878218262075e-02
    13    8.238612040151e-02
    14   -2.084561220136e-04
    15    1.943393296473e-01
    16   -2.037311761053e-02
    17   -2.353460931397e-02
    18    3.106719374486e-03
    19   -7.753943977436e-02
    20   -4.787662922550e-01
    21    1.508799886848e-01
    22    4.101573847968e-02
    23    8.178432234331e-02
    24    6.930625212287e-03
    25   -4.662878517928e-02
    26   -3.215666988995e-01
    27    4.622774310752e-01
    28   -2.045773077181e-01
    29    1.914384410964e-01
    30    3.649754663656e-03
    31    6.445880107444e-02
    32   -4.886148977480e-02
    33   -4.828476761142e-03
    34    1.937164766838e-01
    35   -1.933877234371e-02
    36   -2.229727854200e-02
    37    2.459726022484e-03
    38   -7.564625066064e-02
    39   -4.716079565408e-01
    40    1.326807297671e-01
    41   -4.065894023029e-02
    42   -8.093475884117e-02
    43   -6.316611217476e-03
    44   -4.737923697131e-01
    45    1.458223553334e-01
    46    8.044877197885e-02
    47    4.405176564069e-02
    48    6.014289079336e-03
Sym=X
Ene= 0.784634
Spin=Alpha
Occup=0
     1    5.257817361705e-01
     2   -4.687522777484e-01
     3    1.102179634833e-01
     4    2.598349143358e-02
     5    6.757005374219e-03
     6    9.090603612303e-02
     7   -2.164169688644e-01
     8   -6.399103731935e-01
     9    1.109704287504e-01
    10   -1.061452236791e-01
    11   -5.221636396191e-03
    12    3.163697189528e-01
    13   -2.925518374915e-01
    14    5.401498202383e-03
    15   -2.060415468127e-01
    16    1.770192103627e-02
    17    2.201486914376e-02
    18   -9.999661360661e-04
    19    9.033138566568e-03
    20    5.357124990030e-01
    21   -4.677289844480e-01
    22   -2.015667297200e-02
    23   -1.121896525493e-01
    24   -7.688496720358e-03
    25   -9.147024169267e-02
    26    2.120266541696e-01
    27    6.574709055958e-01
    28    1.108501981901e-01
    29   -1.064260971664e-01
    30    2.326862608718e-03
    31    3.104506955826e-01
    32   -2.846854202416e-01
    33   -9.392484207415e-03
    34    2.083447335809e-01
    35   -1.715772879815e-02
    36   -1.936070142314e-02
    37    1.828110413197e-03
    38   -8.993587454017e-03
    39   -5.420415580160e-01
    40    4.640044987723e-01
    41   -2.050848158593e-02
    42   -1.129447867500e-01
    43   -6.964437642369e-03
    44   -5.321583064217e-01
    45    4.656227062398e-01
    46    1.102628511742e-01
    47    2.690840226359e-02
    48    6.441885754302e-03
Sym=X
Ene= 0.807970
Spin=Alpha
Occup=0
     1   -2.437240874185e-03
     2    5.950516326189e-03
     3    6.244550396882e-04
     4    1.722746348342e-03
     5   -3.387324516249e-02
     6   -4.961271191811e-04
     7    1.899383678779e-03
     8    2.806101345612e-04
     9    3.595854108918e-02
    10    4.705414604152e-02
    11   -7.628735744576e-01
    12   -5.618799383099e-02
    13   -6.745751292644e-02
    14    1.126754618232e+00
    15    2.289267991303e-03
    16   -6.537777223295e-02
    17    6.179681947875e-02
    18    5.636564567514e-03
    19    1.238953653528e-03
    20   -2.358613236789e-03
    21   -7.350043586363e-04
    22    1.299702954893e-03
    23    2.249930241828e-03
    24   -3.448342551952e-02
    25    4.120517067187e-04
    26   -1.797197760903e-05
    27   -1.349311408752e-03
    28   -3.456407269695e-02
    29   -3.968390176719e-02
    30    7.636227742844e-01
    31    4.762176729108e-02
    32    6.100694992165e-02
    33   -1.127666777886e+00
    34   -4.533480654080e-04
    35   -6.506748258639e-02
    36    6.192747752573e-02
    37    7.405917982525e-03
    38    7.310617448428e-04
    39    2.349591600954e-03
    40    2.172915533487e-04
    41   -2.044700552548e-03
    42   -1.196518483046e-03
    43    3.438758996781e-02
    44    2.425855545015e-03
    45   -6.419016966482e-03
    46   -2.961398056213e-03
    47   -1.970829826111e-03
    48    3.367726647398e-02
Sym=X
Ene= 0.862297
Spin=Alpha
Occup=0
     1    1.361924951689e-02
     2   -1.096507159330e+00
     3    1.484668534400e-01
     4    5.640154968799e-02
     5    1.044045609192e-02
     6    1.313979766685e-04
     7    2.993567347606e-04
     8    9.838881155944e-04
     9   -4.072869954382e-01
    10   -4.289432848266e-01
    11   -4.686066599910e-02
    12    9.483086435946e-01
    13    9.988565698220e-01
    14    1.087725551118e-01
    15   -5.174785938826e-04
    16    1.167896316163e-02
    17   -1.268394286600e-02
    18    2.355024737314e-01
    19    9.546576778370e-03
    20   -1.425088775764e-02
    21    1.104335846173e+00
    22    5.032871728940e-02
    23    1.516155833003e-01
    24    1.110035426305e-02
    25    1.568304355553e-05
    26    2.309808996275e-03
    27   -2.553747380393e-03
    28   -4.067138630930e-01
    29   -4.291589345149e-01
    30   -3.949042931233e-02
    31    9.470510283910e-01
    32    1.002307893237e+00
    33    9.246934486566e-02
    34   -1.290421873040e-04
    35   -1.185242970979e-02
    36    1.257977903646e-02
    37   -2.365454016188e-01
    38   -1.028889442392e-02
    39    1.206638307193e-02
    40   -1.102253090607e+00
    41    4.887808804825e-02
    42    1.516975067747e-01
    43    1.018960697661e-02
    44   -1.083035795675e-02
    45    1.094515818819e+00
    46    1.485714799174e-01
    47    5.565386553099e-02
    48    1.017384170314e-02
Sym=X
Ene= 0.936014
Spin=Alpha
Occup=0
     1   -1.131888148492e-01
     2    1.277545217219e+00
     3   -1.810780694534e-01
     4    5.569351928078e-03
     5   -8.044476240937e-03
     6   -1.025258077168e-04
     7   -2.034828560201e-03
     8   -3.653486691033e-03
     9    4.715532165268e-01
    10    5.002185092407e-01
    11    5.142134511722e-02
    12   -1.462664566718e+00
    13   -1.543283673029e+00
    14   -1.587096591815e-01
    15   -5.868878601799e-04
    16   -5.515797521759e-03
    17    7.980638104317e-03
    18   -1.200463559339e-01
    19   -1.730063249385e-03
    20    1.168856522997e-01
    21   -1.287362375266e+00
    22    1.144342859282e-02
    23   -1.828143275141e-01
    24   -1.059847041620e-02
    25    1.928149108491e-04
    26    5.864880603033e-04
    27    1.187137008495e-03
    28   -4.764127310497e-01
    29   -4.964644464910e-01
    30   -4.902286747755e-02
    31    1.475302553078e+00
    32    1.530293732737e+00
    33    1.517049909294e-01
    34   -1.158443633812e-03
    35   -5.677069592634e-03
    36    5.784549476082e-03
    37   -1.210666297121e-01
    38   -5.572313241529e-03
    39    1.167300856128e-01
    40   -1.280687029161e+00
    41   -1.369010715392e-02
    42    1.820052471460e-01
    43    9.191413733317e-03
    44   -1.150398518073e-01
    45    1.290141687587e+00
    46    1.823037249841e-01
    47   -5.180447084440e-03
    48    7.914042868634e-03
Sym=X
Ene= 0.972494
Spin=Alpha
Occup=0
     1   -6.458979551307e-02
     2    9.316746728944e-01
     3   -9.173090108597e-02
     4   -9.862604799271e-02
     5   -9.952382274123e-03
     6    2.531939260736e-02
     7    2.553359346632e-01
     8    5.146075122872e-01
     9    4.827832555392e-01
    10   -4.532196194660e-01
    11   -4.432132925813e-03
    12   -1.501209120405e+00
    13    1.402734510261e+00
    14    1.345750050601e-02
    15   -5.370723983121e-02
    16   -1.262277393721e-02
    17   -9.100107420903e-03
    18    1.326371274685e-02
    19   -3.018180530662e-01
    20   -6.280987604043e-02
    21    9.071290205118e-01
    22    9.542928135167e-02
    23    9.278905325320e-02
    24    9.761744114694e-03
    25   -2.509535345893e-02
    26   -2.356889618451e-01
    27   -5.472596613664e-01
    28    4.759450004785e-01
    29   -4.565066318254e-01
    30   -2.150346946802e-03
    31   -1.477430691754e+00
    32    1.422414215447e+00
    33    7.989658191157e-03
    34    5.249429779027e-02
    35    1.271186387279e-02
    36    9.071051146124e-03
    37   -1.476450627924e-02
    38    2.987920731484e-01
    39    6.228124188407e-02
    40   -9.137200208606e-01
    41    9.418132050657e-02
    42    9.348088517231e-02
    43    9.008396702181e-03
    44    6.595731152523e-02
    45   -9.046181026612e-01
    46   -8.810462399936e-02
    47   -9.776916901612e-02
    48   -1.010021385966e-02
[5D]

======= END OF MOLDEN-FORMATTED INPUT FILE =======


        *************************************************************
        *                                                           *
        *  Thank you very much for using Q-Chem.  Have a nice day.  *
        *                                                           *
        *************************************************************


