                  Welcome to Q-Chem
     A Quantum Leap Into The Future Of Chemistry


 Q-Chem 5.4 (devel), Q-Chem, Inc., Pleasanton, CA (2021)

 E. Epifanovsky,  A. T. B. Gilbert,  Xintian Feng,  Joonho Lee,  Yuezhi Mao,  
 N. Mardirossian,  P. Pokhilko,  A. White,  M. Wormit,  M. P. Coons,  
 A. L. Dempwolff,  Zhengting Gan,  D. Hait,  P. R. Horn,  L. D. Jacobson,  
 I. Kaliman,  J. Kussmann,  A. W. Lange,  Ka Un Lao,  D. S. Levine,  Jie Liu,  
 S. C. McKenzie,  A. F. Morrison,  K. Nanda,  F. Plasser,  D. R. Rehn,  
 M. L. Vidal,  Zhi-Qiang You,  Ying Zhu,  B. Alam,  B. Albrecht,  
 A. Aldossary,  E. Alguire,  J. H. Andersen,  D. Barton,  K. Begam,  A. Behn,  
 Y. A. Bernard,  E. J. Berquist,  H. Burton,  A. Carreras,  K. Carter-Fenk,  
 R. Chakraborty,  A. D. Chien,  K. D. Closser,  V. Cofer-Shabica,  
 S. Dasgupta,  Jia Deng,  M. de Wergifosse,  M. Diedenhofen,  Hainam Do,  
 S. Ehlert,  Po-Tung Fang,  S. Fatehi,  Qingguo Feng,  T. Friedhoff,  
 J. Gayvert,  Qinghui Ge,  G. Gidofalvi,  M. Goldey,  J. Gomes,  
 C. Gonzalez-Espinoza,  S. Gulania,  A. Gunina,  M. W. D. Hanson-Heine,  
 P. H. P. Harbach,  A. W. Hauser,  M. F. Herbst,  M. Hernandez Vera,  
 M. Hodecker,  Z. C. Holden,  S. Houck,  Xunkun Huang,  Kerwin Hui,  
 B. C. Huynh,  M. Ivanov,  Hyunjun Ji,  Hanjie Jiang,  B. Kaduk,  S. Kaehler,  
 K. Khistyaev,  Jaehoon Kim,  P. Klunzinger,  Z. Koczor-Benda,  
 Joong Hoon Koh,  D. Kosenkov,  L. Koulias,  T. Kowalczyk,  C. M. Krauter,  
 K. Kue,  A. Kunitsa,  T. Kus,  A. Landau,  K. V. Lawler,  D. Lefrancois,  
 S. Lehtola,  Rain Li,  Yi-Pei Li,  Jiashu Liang,  M. Liebenthal,  
 Hung-Hsuan Lin,  You-Sheng Lin,  Fenglai Liu,  Kuan-Yu Liu,  
 M. Loipersberger,  A. Luenser,  A. Manjanath,  P. Manohar,  E. Mansoor,  
 S. F. Manzer,  Shan-Ping Mao,  A. V. Marenich,  T. Markovich,  S. Mason,  
 S. A. Maurer,  P. F. McLaughlin,  M. F. S. J. Menger,  J.-M. Mewes,  
 S. A. Mewes,  P. Morgante,  J. W. Mullinax,  K. J. Oosterbaan,  G. Paran,  
 Alexander C. Paul,  Suranjan K. Paul,  F. Pavosevic,  Zheng Pei,  S. Prager,  
 E. I. Proynov,  E. Ramos,  B. Rana,  A. E. Rask,  A. Rettig,  R. M. Richard,  
 F. Rob,  E. Rossomme,  T. Scheele,  M. Scheurer,  M. Schneider,  
 N. Sergueev,  S. M. Sharada,  W. Skomorowski,  D. W. Small,  C. J. Stein,  
 Yu-Chuan Su,  E. J. Sundstrom,  Zhen Tao,  J. Thirman,  T. Tsuchimochi,  
 N. M. Tubman,  S. P. Veccham,  O. Vydrov,  J. Wenzel,  J. Witte,  A. Yamada,  
 Kun Yao,  S. Yeganeh,  S. R. Yost,  A. Zech,  Igor Ying Zhang,  Xing Zhang,  
 Yu Zhang,  D. Zuev,  A. Aspuru-Guzik,  A. T. Bell,  N. A. Besley,  
 K. B. Bravaya,  B. R. Brooks,  D. Casanova,  Jeng-Da Chai,  S. Coriani,  
 C. J. Cramer,  A. E. DePrince, III,  R. A. DiStasio Jr.,  A. Dreuw,  
 B. D. Dunietz,  T. R. Furlani,  W. A. Goddard III,  S. Grimme,  
 S. Hammes-Schiffer,  T. Head-Gordon,  W. J. Hehre,  Chao-Ping Hsu,  
 T.-C. Jagau,  Yousung Jung,  A. Klamt,  Jing Kong,  D. S. Lambrecht,  
 WanZhen Liang,  N. J. Mayhall,  C. W. McCurdy,  J. B. Neaton,  
 C. Ochsenfeld,  J. A. Parkhill,  R. Peverati,  V. A. Rassolov,  Yihan Shao,  
 L. V. Slipchenko,  T. Stauch,  R. P. Steele,  J. E. Subotnik,  
 A. J. W. Thom,  A. Tkatchenko,  D. G. Truhlar,  T. Van Voorhis,  
 T. A. Wesolowski,  K. B. Whaley,  H. L. Woodcock III,  P. M. Zimmerman,  
 S. Faraji,  P. M. W. Gill,  M. Head-Gordon,  J. M. Herbert,  A. I. Krylov

 Additional authors for Version 5.4.1: 
 S. Kotaru,  Shaozhi Li,  Xiangyuan Li,  F. Matz,  A. Molle,  Haisheng Ren,  
 Yingli Su,  Hung-Yi Tsai,  C. Utku,  Fang Wang

 Contributors to earlier versions of Q-Chem not listed above: 
 R. D. Adamson,  B. Austin,  R. Baer,  J. Baker,  G. J. O. Beran,  
 K. Brandhorst,  S. T. Brown,  E. F. C. Byrd,  A. K. Chakraborty,  
 G. K. L. Chan,  Chun-Min Chang,  Yunqing Chen,  C.-L. Cheng,  
 Siu Hung Chien,  D. M. Chipman,  D. L. Crittenden,  H. Dachsel,  
 R. J. Doerksen,  A. D. Dutoi,  R. G. Edgar,  J. Fosso-Tande,  
 L. Fusti-Molnar,  D. Ghosh,  A. Ghysels,  A. Golubeva-Zadorozhnaya,  
 J. Gonthier,  M. S. Gordon,  S. R. Gwaltney,  G. Hawkins,  J. E. Herr,  
 A. Heyden,  S. Hirata,  E. G. Hohenstein,  G. Kedziora,  F. J. Keil,  
 C. Kelley,  Jihan Kim,  R. A. King,  R. Z. Khaliullin,  P. P. Korambath,  
 W. Kurlancheek,  A. Laurent,  A. M. Lee,  M. S. Lee,  S. V. Levchenko,  
 Ching Yeh Lin,  D. Liotard,  E. Livshits,  R. C. Lochan,  I. Lotan,  
 L. A. Martinez-Martinez,  P. E. Maslen,  N. Nair,  D. P. O'Neill,  
 D. Neuhauser,  E. Neuscamman,  C. M. Oana,  R. Olivares-Amaya,  R. Olson,  
 T. M. Perrine,  B. Peters,  P. A. Pieniazek,  A. Prociuk,  Y. M. Rhee,  
 J. Ritchie,  M. A. Rohrdanz,  E. Rosta,  N. J. Russ,  H. F. Schaefer III,  
 M. W. Schmidt,  N. E. Schultz,  S. Sharma,  N. Shenvi,  C. D. Sherrill,  
 A. C. Simmonett,  A. Sodt,  T. Stein,  D. Stuck,  K. S. Thanthiriwatte,  
 V. Vanovschi,  L. Vogt,  Tao Wang,  A. Warshel,  M. A. Watson,  
 C. F. Williams,  Q. Wu,  X. Xu,  Jun Yang,  W. Zhang,  Yan Zhao

 Please cite Q-Chem as follows:
 Y. Shao et al., Mol. Phys. 113, 184-215 (2015)
 DOI: 10.1080/00268976.2014.952696

 Q-Chem 5.4.1 for Intel X86 EM64T Linux

 Parts of Q-Chem use Armadillo 9.800.1 (Horizon Scraper).
 http://arma.sourceforge.net/

 Q-Chem begins on Tue Mar 21 11:27:45 2023  

 Host: cpu186.baobab
0

     Scratch files written to /scratch/fum/qchem56492//
 Processing $rem in /home/share/wesolowski/qc5.aug2021.FDE/config/preferences:
 Processing $rem in /home/fum/.qchemrc:

 Checking the input file for inconsistencies... 	...done.

--------------------------------------------------------------
User input:
--------------------------------------------------------------
$comment
generated from CCJob.Templates
$end

$rem
sym_ignore = true
method = adc(2)
ee_states = 10
basis = cc-pVDZ
mem_static = 1024
mem_total = 40000
adc_davidson_maxiter = 900
adc_davidson_conv = 6
adc_print = 3
adc_prop_es = true
adc_prop_es2es = true
adc_prop_tpa = true
molden_format = True
state_analysis = true
print_orbitals = 15
gen_scfman = false
fde_export_density = true
fde_details = 3
$end

$molecule
0 1
H -0.021452763594430716 -0.2468489898924493 0.0631286571818246
C -1.0779103067999407 -0.5244211033001354 -0.002360460399848603
H -1.3013000687057819 -1.5931616002070805 -0.07570651438234645
C -2.044758624799935 0.3938405823998642 0.006612531900152107
H -1.8216056759057806 1.4623581332929205 0.08391211611765402
H -3.1010404110944347 0.11653949140754477 -0.06279974011817918                     
$end
--------------------------------------------------------------
 ----------------------------------------------------------------
             Standard Nuclear Orientation (Angstroms)
    I     Atom           X                Y                Z
 ----------------------------------------------------------------
    1      H      -0.0214527636    -0.2468489899     0.0631286572
    2      C      -1.0779103068    -0.5244211033    -0.0023604604
    3      H      -1.3013000687    -1.5931616002    -0.0757065144
    4      C      -2.0447586248     0.3938405824     0.0066125319
    5      H      -1.8216056759     1.4623581333     0.0839121161
    6      H      -3.1010404111     0.1165394914    -0.0627997401
 ----------------------------------------------------------------
 Nuclear Repulsion Energy =          33.20992932 hartrees
 There are        8 alpha and        8 beta electrons
 Requested basis set is cc-pVDZ
 There are 24 shells and 48 basis functions
 Total memory of 40000 MB is distributed as follows: 
   MEM_STATIC is set to 1024 MB
   QALLOC/CCMAN JOB total memory use is  38976 MB
 Warning: actual memory use might exceed 40000 MB

 Total QAlloc Memory Limit  40000 MB
 Mega-Array Size      1001 MB
 MEM_STATIC part      1024 MB

                       Distance Matrix (Angstroms)
             H (  1)   C (  2)   H (  3)   C (  4)   H (  5)
   C (  2)  1.094275
   H (  3)  1.862751  1.094298
   C (  4)  2.123074  1.333447  2.123131
   H (  5)  2.482412  2.123162  3.103610  1.094304
   H (  6)  3.103509  2.123097  2.482400  1.094278  1.862715

 A cutoff of  1.0D-11 yielded    300 shell pairs
 There are      1220 function pairs (      1329 Cartesian)
 Smallest overlap matrix eigenvalue = 4.81E-03

 Scale SEOQF with 1.000000e-01/1.000000e-01/1.000000e+00

 Standard Electronic Orientation quadrupole field applied
 Nucleus-field energy     =     0.0000000022 hartrees
 Guess from superposition of atomic densities
 Warning:  Energy on first SCF cycle will be non-variational
 SAD guess density has 16.000000 electrons
 A restricted Hartree-Fock SCF calculation will be
 performed using Pulay DIIS extrapolation
 SCF converges when DIIS error is below 1.0E-08
 using 10 threads for integral computing
 -------------------------------------------------------
 OpenMP Integral computing Module                
 Release: version 1.0, May 2013, Q-Chem Inc. Pittsburgh 
 -------------------------------------------------------
 ---------------------------------------
  Cycle       Energy         DIIS Error
 ---------------------------------------
    1     -78.3977771179      9.93E-02
    2     -78.0175888951      7.13E-03
    3     -78.0380549601      1.83E-03
    4     -78.0395310897      5.64E-04
    5     -78.0396487061      5.81E-05
    6     -78.0396505696      9.29E-06
    7     -78.0396506309      1.95E-06
    8     -78.0396506336      1.67E-07
    9     -78.0396506337      1.74E-08
   10     -78.0396506337      3.97E-09 Convergence criterion met
 ---------------------------------------
 SCF time:  CPU 1.91 s  wall 2.38 s
 SCF   energy in the final basis set = -78.03965063
 Total energy in the final basis set = -78.03965063
Exporting Density Matrix to file 'Densmat_SCF.txt'.
Export successful
================================================================================
|                                                                              |
|                                 A D C  M A N                                 |
|                                                                              |
 ------------------------------------------------------------------------------ 
|                                                                              |
| Components:                                                                  |
|                                                                              |
| - libvmm - 1.3-trunk                                                         |
|   Authors:                                                                   |
|   Evgeny Epifanovsky, Ilya Kaliman                                           |
|                                                                              |
| - libtensor - 2.5-trunk                                                      |
|   Authors:                                                                   |
|   Evgeny Epifanovsky, Michael Wormit, Dmitry Zuev, Sam Manzer,               |
|   Ilya Kaliman                                                               |
|                                                                              |
| - libwfa - 1.1-trunk                                                         |
|   Authors:                                                                   |
|   Felix Plasser, Stefanie Mewes (Baeppler), Benjamin Thomitzni,              |
|   Michael Wormit, Feng Chen, Anna I. Krylov, Pavel Pokhilko                  |
|                                                                              |
| - libadc - 1.1-trunk                                                         |
|   Authors:                                                                   |
|   Michael Wormit, Adrian L. Dempwolff, Philipp H. P. Harbach,                |
|   Caroline Krauter, Dirk Rehn, Matthias Schneider, Jan Wenzel                |
|                                                                              |
| - adcman - 2.6-trunk                                                         |
|   Authors:                                                                   |
|   Michael Wormit, Adrian L. Dempwolff, Philipp H. P. Harbach,                |
|   Caroline Krauter, Daniel Lefrancois, Jan-Michael Mewes, Dirk Rehn,         |
|   Matthias Schneider, Jan Wenzel, Andreas Dreuw                              |
|                                                                              |
| Authors of earlier versions of ADCMAN:                                       |
| Andreas Dreuw, Jan Hendrik Starcke, Dirk Rehn, Michael Wormit                |
|                                                                              |
================================================================================

 Created directory /scratch/fum/qchem56492/plots
  Import QC data ...  CPU 0.00 s  wall 0.00 s

 Alpha MOs, Restricted
 -- Occupied --                  
-11.239 -11.237  -1.030  -0.786  -0.635  -0.582  -0.500  -0.374
  1 A     2 A     3 A     4 A     5 A     6 A     7 A     8 A                  
 -- Virtual --                   
  0.168   0.203   0.231   0.236   0.303   0.463   0.580   0.609
  9 A    10 A    11 A    12 A    13 A    14 A    15 A    16 A                  
  0.689   0.705   0.776   0.807   0.858   0.928   0.971   1.006
 17 A    18 A    19 A    20 A    21 A    22 A    23 A    24 A                  
  1.130   1.237   1.241   1.263   1.291   1.593   1.728   1.744
 25 A    26 A    27 A    28 A    29 A    30 A    31 A    32 A                  
  1.811   1.852   1.854   1.901   1.963   1.972   2.224   2.248
 33 A    34 A    35 A    36 A    37 A    38 A    39 A    40 A                  
  2.356   2.423   2.493   2.623   2.679   2.795   3.099   3.369
 41 A    42 A    43 A    44 A    45 A    46 A    47 A    48 A                  

 Beta MOs, Restricted
 -- Occupied --                  
-11.239 -11.237  -1.030  -0.786  -0.635  -0.582  -0.500  -0.374
  1 A     2 A     3 A     4 A     5 A     6 A     7 A     8 A                  
 -- Virtual --                   
  0.168   0.203   0.231   0.236   0.303   0.463   0.580   0.609
  9 A    10 A    11 A    12 A    13 A    14 A    15 A    16 A                  
  0.689   0.705   0.776   0.807   0.858   0.928   0.971   1.006
 17 A    18 A    19 A    20 A    21 A    22 A    23 A    24 A                  
  1.130   1.237   1.241   1.263   1.291   1.593   1.728   1.744
 25 A    26 A    27 A    28 A    29 A    30 A    31 A    32 A                  
  1.811   1.852   1.854   1.901   1.963   1.972   2.224   2.248
 33 A    34 A    35 A    36 A    37 A    38 A    39 A    40 A                  
  2.356   2.423   2.493   2.623   2.679   2.795   3.099   3.369
 41 A    42 A    43 A    44 A    45 A    46 A    47 A    48 A                  
  Import AO data ...  CPU 0.00 s  wall 0.00 s
  Using point group: C1
  Irreducible representations in point group: A
  Molecular orbitals: 
  Occupied MOs:
  Block   0:   1 (  A) A   2 (  A) A   3 (  A) A   4 (  A) A   5 (  A) A
                  -11.24      -11.24       -1.03     -0.7859      -0.635
               6 (  A) A   7 (  A) A   8 (  A) A
                 -0.5823     -0.4995     -0.3744
  Block   1:   1 (  A) B   2 (  A) B   3 (  A) B   4 (  A) B   5 (  A) B
                  -11.24      -11.24       -1.03     -0.7859      -0.635
               6 (  A) B   7 (  A) B   8 (  A) B
                 -0.5823     -0.4995     -0.3744
  Virtual MOs:
  Block   0:   9 (  A) A  10 (  A) A  11 (  A) A  12 (  A) A  13 (  A) A
                  0.1679      0.2026       0.231      0.2364       0.303
              14 (  A) A  15 (  A) A  16 (  A) A  17 (  A) A  18 (  A) A
                  0.4628      0.5798      0.6089      0.6887      0.7048
              19 (  A) A  20 (  A) A  21 (  A) A  22 (  A) A
                  0.7757      0.8074      0.8584       0.928
  Block   1:  23 (  A) A  24 (  A) A  25 (  A) A  26 (  A) A  27 (  A) A
                  0.9706       1.006        1.13       1.237       1.241
              28 (  A) A  29 (  A) A  30 (  A) A  31 (  A) A  32 (  A) A
                   1.263       1.291       1.593       1.728       1.744
              33 (  A) A  34 (  A) A  35 (  A) A  36 (  A) A
                   1.811       1.852       1.854       1.901
  Block   2:  37 (  A) A  38 (  A) A  39 (  A) A  40 (  A) A  41 (  A) A
                   1.963       1.972       2.224       2.248       2.356
              42 (  A) A  43 (  A) A  44 (  A) A  45 (  A) A  46 (  A) A
                   2.423       2.493       2.623       2.679       2.795
              47 (  A) A  48 (  A) A
                   3.099       3.369
  Block   3:   9 (  A) B  10 (  A) B  11 (  A) B  12 (  A) B  13 (  A) B
                  0.1679      0.2026       0.231      0.2364       0.303
              14 (  A) B  15 (  A) B  16 (  A) B  17 (  A) B  18 (  A) B
                  0.4628      0.5798      0.6089      0.6887      0.7048
              19 (  A) B  20 (  A) B  21 (  A) B  22 (  A) B
                  0.7757      0.8074      0.8584       0.928
  Block   4:  23 (  A) B  24 (  A) B  25 (  A) B  26 (  A) B  27 (  A) B
                  0.9706       1.006        1.13       1.237       1.241
              28 (  A) B  29 (  A) B  30 (  A) B  31 (  A) B  32 (  A) B
                   1.263       1.291       1.593       1.728       1.744
              33 (  A) B  34 (  A) B  35 (  A) B  36 (  A) B
                   1.811       1.852       1.854       1.901
  Block   5:  37 (  A) B  38 (  A) B  39 (  A) B  40 (  A) B  41 (  A) B
                   1.963       1.972       2.224       2.248       2.356
              42 (  A) B  43 (  A) B  44 (  A) B  45 (  A) B  46 (  A) B
                   2.423       2.493       2.623       2.679       2.795
              47 (  A) B  48 (  A) B
                   3.099       3.369
  Import MO data ...  CPU 0.04 s  wall 0.02 s
  Import HF data ...  CPU 0.30 s  wall 0.11 s
  Import 2e integrals ...  CPU 1.29 s  wall 0.23 s

--------------------------------------------------------------------------------
                                   HF Summary                                   
--------------------------------------------------------------------------------
  Energy:                                                  -78.0396506337 a.u.
  Dip. moment [a.u.]:                  [  -0.000006,    0.000004,    0.000008]
  Total dipole [Debye]:                                               0.000027
  <r^2> [a.u.]:                        [ 175.823316,   35.297439,   11.680442]
  Total <r^2> [a.u.]:                                               222.801198
--------------------------------------------------------------------------------
  HF properties ...  CPU 0.03 s  wall 0.02 s
  MP(1) calculation ...  CPU 0.01 s  wall 0.01 s
  N^6 prerequesite intermediates ...  CPU 0.58 s  wall 0.10 s
  Difference density matrix of state mp2_gs printed to ASCII file 'State_mp2_gs_Difference.txt'
Exporting MP density matrix to file 'Densmat_MP.txt'.
Export successful
  Total density matrix of state mp2_gs printed to ASCII file 'State_mp2_gs_Total.txt'
Exporting MP density matrix to file 'Densmat_MP.txt'.
Export successful

--------------------------------------------------------------------------------
                                 MP(2) Summary                                  
--------------------------------------------------------------------------------
  MP energy contribution:                                   -0.2804886594 a.u.
  Total energy:                                            -78.3201392931 a.u.
  Dip. moment [a.u.]:                  [  -0.000005,    0.000003,    0.000008]
  Total dipole [Debye]:                                               0.000026
  <r^2> [a.u.]:                        [ 175.863555,   35.333245,   11.508023]
  Total <r^2> [a.u.]:                                               222.704823

  Density matrix analysis:
  ------------------------
  NOs
    Occupation of frontier NOs:
       0.0455   1.9380
    Number of electrons: 16.000000
    Number of unpaired electrons: n_u =  0.40725, n_u,nl =  0.04580
    NO participation ratio (PR_NO): 13.896591
  
  
  Mulliken Population Analysis
  Atom      Charge (e)              h+              e-           Del q
  --------------------------------------------------------------------
   1 H        0.054970        0.013907       -0.011309        0.002598
   2 C       -0.109939        0.094595       -0.099789       -0.005195
   3 H        0.054978        0.013906       -0.011309        0.002597
   4 C       -0.109954        0.094594       -0.099790       -0.005197
   5 H        0.054977        0.013907       -0.011309        0.002598
   6 H        0.054968        0.013907       -0.011309        0.002598
  --------------------------------------------------------------------
  Sum:        0.000000        0.244816       -0.244816       -0.000000
  
  Multipole moment analysis of the density matrix
    Molecular charge:                      0.000000
    Number of electrons:                   16.000000
      Center of electronic charge [Ang]: [ -1.561338,  -0.065287,   0.002128]
    Total nuclear charge:                  16.000000
      Center of nuclear charge [Ang]:    [ -1.561338,  -0.065287,   0.002128]
    Dipole moment [D]:                     0.000026
      Cartesian components [D]:          [ -0.000013,   0.000008,   0.000021]
    RMS size of the density [Ang]:         1.206519
      Cartesian components [Ang]:        [  0.800093,   0.783666,   0.448783]
  
  Exciton analysis of the difference density matrix
    <r_h> [Ang]:                  [ -1.561338,  -0.065287,   0.002126]
    <r_e> [Ang]:                  [ -1.561339,  -0.065286,   0.002127]
    |<r_e - r_h>| [Ang]:            0.000002
    Hole size [Ang]:                1.401654
      Cartesian components [Ang]: [  0.853003,   0.840244,   0.728705]
    Electron size [Ang]:            1.361761
      Cartesian components [Ang]: [  0.879566,   0.864272,   0.577747]
--------------------------------------------------------------------------------
  MP(2) calculation ...  CPU 0.27 s  wall 0.21 s
  Start ADC(2)-s ...  CPU 0.05 s  wall 0.03 s
  ADC(2) intermediates ...  CPU 0.04 s  wall 0.01 s
  Starting Davidson for singlet states of irrep A ... 
--------------------------------------------------------------------------------
   It NVec Conv  Avg. Norm  Max. Norm  Conv. states           Remark
--------------------------------------------------------------------------------
        10    0  1.329e-01  4.687e-01  0.4117 n n n n n n n n Guess.
    1   20    0  2.312e-02  1.125e-01  0.3261 n n n n n n n n 
    2   30    0  5.846e-03  2.461e-02  0.3213 n n n n n n n n 
    3   40    0  1.752e-03  1.049e-02  0.3209 n n n n n n n n 
    4   50    0  4.969e-04  3.451e-03  0.3209 n n n n n n n n 
    5   20    0  2.559e-04  1.665e-03  0.3209 n n n n n n n n Subspace collapsed.
    6   30    0  1.094e-04  7.730e-04  0.3209 n n n n n n n n 
    7   40    0  6.722e-05  5.761e-04  0.3209 n n n n n n n n 
    8   50    0  3.864e-05  3.329e-04  0.3209 n n n n n n n n 
    9   20    0  2.525e-05  2.296e-04  0.3209 n n n n n n n n Subspace collapsed.
   10   30    3  2.059e-05  1.930e-04  0.3209 n y y y n n n n 
   11   40    6  8.992e-06  8.267e-05  0.3209 y y y y y y n n 
   12   50    6  3.714e-06  3.186e-05  0.3209 y y y y y y n n 
   13   20    6  2.012e-06  1.729e-05  0.3209 y y y y y y n n Subspace collapsed.
   14   30    7  1.287e-06  1.129e-05  0.3209 y y y y y y n y 
   15   40    7  8.853e-07  8.211e-06  0.3209 y y y y y y n y 
   16   50    7  4.026e-07  3.197e-06  0.3209 y y y y y y n y 
   17   20    8  1.594e-07  1.126e-06  0.3209 y y y y y y n y Subspace collapsed.
   18   30    9  1.531e-07  1.200e-06  0.3209 y y y y y y y y 
   19   40    9  1.306e-07  1.015e-06  0.3209 y y y y y y y y 
   20   50   10  8.800e-08  7.694e-07  0.3209 y y y y y y y y Converged.
--------------------------------------------------------------------------------
  Davidson Summary: 
 ------------------------------------------------------------
  State  0: excitation energy =   0.3209 a.u.   (converged)
  State  1: excitation energy =   0.3290 a.u.   (converged)
  State  2: excitation energy =   0.3359 a.u.   (converged)
  State  3: excitation energy =   0.3579 a.u.   (converged)
  State  4: excitation energy =   0.3733 a.u.   (converged)
  State  5: excitation energy =   0.3866 a.u.   (converged)
  State  6: excitation energy =   0.4202 a.u.   (converged)
  State  7: excitation energy =   0.4435 a.u.   (converged)
  State  8: excitation energy =   0.4537 a.u.   (converged)
  State  9: excitation energy =   0.4585 a.u.   (converged)
 ------------------------------------------------------------

  Singlet states of irrep A ...  CPU 144.22 s  wall 48.23 s
  TDMs ...  CPU 2.26 s  wall 0.93 s
  SDMs ...  CPU 5.79 s  wall 1.74 s
  Starting TPA DIIS iterations ... 
------------------------------------ 
   It     Res. Norm  Remark
------------------------------------
                       Guess.
    1     4.397e+00  
    2     5.834e+00  
    3     1.086e+00  
    4     2.633e-01  
    5     6.570e-02  
    6     2.778e-02  
    7     8.476e-03  
    8     1.553e-03  
    9     5.825e-04  
   10     9.950e-05  
   11     3.192e-05  
   12     6.093e-06  
   13     2.175e-06  
   14     1.149e-06  
   15     2.708e-07  Converged.
   ... Converged in 15 steps (norm: 2.70752e-07)
------------------------------------
  Starting TPA DIIS iterations ... 
------------------------------------ 
   It     Res. Norm  Remark
------------------------------------
                       Guess.
    1     4.187e+00  
    2     5.545e+00  
    3     1.037e+00  
    4     2.614e-01  
    5     6.544e-02  
    6     2.777e-02  
    7     8.333e-03  
    8     1.572e-03  
    9     5.914e-04  
   10     9.888e-05  
   11     3.220e-05  
   12     5.954e-06  
   13     2.148e-06  
   14     1.107e-06  
   15     2.696e-07  Converged.
   ... Converged in 15 steps (norm: 2.6964e-07)
------------------------------------
  Starting TPA DIIS iterations ... 
------------------------------------ 
   It     Res. Norm  Remark
------------------------------------
                       Guess.
    1     6.855e-01  
    2     4.794e-01  
    3     1.686e-01  
    4     6.348e-02  
    5     1.873e-02  
    6     6.687e-03  
    7     1.073e-03  
    8     4.587e-04  
    9     1.263e-04  
   10     3.105e-05  
   11     5.064e-06  
   12     1.801e-06  
   13     8.645e-07  Converged.
   ... Converged in 13 steps (norm: 8.64492e-07)
------------------------------------
  Starting TPA DIIS iterations ... 
------------------------------------ 
   It     Res. Norm  Remark
------------------------------------
                       Guess.
    1     4.594e+00  
    2     6.186e+00  
    3     1.142e+00  
    4     2.834e-01  
    5     7.140e-02  
    6     3.039e-02  
    7     9.261e-03  
    8     1.695e-03  
    9     6.392e-04  
   10     1.098e-04  
   11     3.545e-05  
   12     6.926e-06  
   13     2.490e-06  
   14     1.351e-06  
   15     3.099e-07  Converged.
   ... Converged in 15 steps (norm: 3.09905e-07)
------------------------------------
  Starting TPA DIIS iterations ... 
------------------------------------ 
   It     Res. Norm  Remark
------------------------------------
                       Guess.
    1     4.374e+00  
    2     5.880e+00  
    3     1.090e+00  
    4     2.812e-01  
    5     7.112e-02  
    6     3.040e-02  
    7     9.106e-03  
    8     1.717e-03  
    9     6.492e-04  
   10     1.091e-04  
   11     3.575e-05  
   12     6.759e-06  
   13     2.456e-06  
   14     1.301e-06  
   15     3.088e-07  Converged.
   ... Converged in 15 steps (norm: 3.0884e-07)
------------------------------------
  Starting TPA DIIS iterations ... 
------------------------------------ 
   It     Res. Norm  Remark
------------------------------------
                       Guess.
    1     6.938e-01  
    2     4.912e-01  
    3     1.753e-01  
    4     6.919e-02  
    5     1.971e-02  
    6     7.109e-03  
    7     1.166e-03  
    8     5.143e-04  
    9     1.440e-04  
   10     3.444e-05  
   11     5.516e-06  
   12     2.018e-06  
   13     1.005e-06  
   14     3.724e-07  Converged.
   ... Converged in 14 steps (norm: 3.72409e-07)
------------------------------------
  Starting TPA DIIS iterations ... 
------------------------------------ 
   It     Res. Norm  Remark
------------------------------------
                       Guess.
    1     4.773e+00  
    2     6.512e+00  
    3     1.193e+00  
    4     3.022e-01  
    5     7.675e-02  
    6     3.285e-02  
    7     9.998e-03  
    8     1.829e-03  
    9     6.927e-04  
   10     1.195e-04  
   11     3.883e-05  
   12     7.746e-06  
   13     2.802e-06  
   14     1.556e-06  
   15     3.484e-07  Converged.
   ... Converged in 15 steps (norm: 3.48409e-07)
------------------------------------
  Starting TPA DIIS iterations ... 
------------------------------------ 
   It     Res. Norm  Remark
------------------------------------
                       Guess.
    1     4.544e+00  
    2     6.189e+00  
    3     1.138e+00  
    4     2.997e-01  
    5     7.645e-02  
    6     3.288e-02  
    7     9.832e-03  
    8     1.854e-03  
    9     7.038e-04  
   10     1.188e-04  
   11     3.914e-05  
   12     7.549e-06  
   13     2.761e-06  
   14     1.499e-06  
   15     3.474e-07  Converged.
   ... Converged in 15 steps (norm: 3.4736e-07)
------------------------------------
  Starting TPA DIIS iterations ... 
------------------------------------ 
   It     Res. Norm  Remark
------------------------------------
                       Guess.
    1     7.011e-01  
    2     5.018e-01  
    3     1.813e-01  
    4     7.463e-02  
    5     2.059e-02  
    6     7.503e-03  
    7     1.254e-03  
    8     5.685e-04  
    9     1.613e-04  
   10     3.720e-05  
   11     5.935e-06  
   12     2.228e-06  
   13     1.147e-06  
   14     4.168e-07  Converged.
   ... Converged in 14 steps (norm: 4.16812e-07)
------------------------------------
  Starting TPA DIIS iterations ... 
------------------------------------ 
   It     Res. Norm  Remark
------------------------------------
                       Guess.
    1     5.423e+00  
    2     7.722e+00  
    3     1.377e+00  
    4     3.744e-01  
    5     9.727e-02  
    6     4.241e-02  
    7     1.283e-02  
    8     2.343e-03  
    9     9.001e-04  
   10     1.576e-04  
   11     5.230e-05  
   12     1.122e-05  
   13     4.149e-06  
   14     2.486e-06  
   15     5.131e-07  Converged.
   ... Converged in 15 steps (norm: 5.13059e-07)
------------------------------------
  Starting TPA DIIS iterations ... 
------------------------------------ 
   It     Res. Norm  Remark
------------------------------------
                       Guess.
    1     5.161e+00  
    2     7.338e+00  
    3     1.313e+00  
    4     3.706e-01  
    5     9.692e-02  
    6     4.249e-02  
    7     1.262e-02  
    8     2.379e-03  
    9     9.154e-04  
   10     1.565e-04  
   11     5.261e-05  
   12     1.089e-05  
   13     4.066e-06  
   14     2.390e-06  
   15     5.116e-07  Converged.
   ... Converged in 15 steps (norm: 5.11586e-07)
------------------------------------
  Starting TPA DIIS iterations ... 
------------------------------------ 
   It     Res. Norm  Remark
------------------------------------
                       Guess.
    1     7.252e-01  
    2     5.380e-01  
    3     2.026e-01  
    4     9.604e-02  
    5     2.377e-02  
    6     9.017e-03  
    7     1.606e-03  
    8     7.865e-04  
    9     2.297e-04  
   10     4.415e-05  
   11     7.509e-06  
   12     3.079e-06  
   13     1.772e-06  
   14     5.953e-07  Converged.
   ... Converged in 14 steps (norm: 5.95348e-07)
------------------------------------
  Starting TPA DIIS iterations ... 
------------------------------------ 
   It     Res. Norm  Remark
------------------------------------
                       Guess.
    1     5.973e+00  
    2     8.780e+00  
    3     1.531e+00  
    4     4.401e-01  
    5     1.159e-01  
    6     5.122e-02  
    7     1.541e-02  
    8     2.809e-03  
    9     1.091e-03  
   10     1.930e-04  
   11     6.510e-05  
   12     1.481e-05  
   13     5.571e-06  
   14     3.528e-06  
   15     6.898e-07  Converged.
   ... Converged in 15 steps (norm: 6.89789e-07)
------------------------------------
  Starting TPA DIIS iterations ... 
------------------------------------ 
   It     Res. Norm  Remark
------------------------------------
                       Guess.
    1     5.683e+00  
    2     8.342e+00  
    3     1.460e+00  
    4     4.350e-01  
    5     1.155e-01  
    6     5.136e-02  
    7     1.517e-02  
    8     2.856e-03  
    9     1.110e-03  
   10     1.916e-04  
   11     6.537e-05  
   12     1.432e-05  
   13     5.435e-06  
   14     3.390e-06  
   15     6.871e-07  Converged.
   ... Converged in 15 steps (norm: 6.8706e-07)
------------------------------------
  Starting TPA DIIS iterations ... 
------------------------------------ 
   It     Res. Norm  Remark
------------------------------------
                       Guess.
    1     7.431e-01  
    2     5.667e-01  
    3     2.200e-01  
    4     1.160e-01  
    5     2.649e-02  
    6     1.040e-02  
    7     1.942e-03  
    8     9.859e-04  
    9     2.905e-04  
   10     4.690e-05  
   11     8.933e-06  
   12     3.894e-06  
   13     2.427e-06  
   14     7.641e-07  Converged.
   ... Converged in 14 steps (norm: 7.64125e-07)
------------------------------------
  Starting TPA DIIS iterations ... 
------------------------------------ 
   It     Res. Norm  Remark
------------------------------------
                       Guess.
    1     6.524e+00  
    2     9.870e+00  
    3     1.685e+00  
    4     5.097e-01  
    5     1.357e-01  
    6     6.066e-02  
    7     1.815e-02  
    8     3.302e-03  
    9     1.295e-03  
   10     2.312e-04  
   11     7.913e-05  
   12     1.905e-05  
   13     7.283e-06  
   14     4.845e-06  
   15     9.115e-07  Converged.
   ... Converged in 15 steps (norm: 9.11464e-07)
------------------------------------
  Starting TPA DIIS iterations ... 
------------------------------------ 
   It     Res. Norm  Remark
------------------------------------
                       Guess.
    1     6.206e+00  
    2     9.377e+00  
    3     1.606e+00  
    4     5.032e-01  
    5     1.352e-01  
    6     6.087e-02  
    7     1.787e-02  
    8     3.362e-03  
    9     1.319e-03  
   10     2.295e-04  
   11     7.931e-05  
   12     1.838e-05  
   13     7.072e-06  
   14     4.652e-06  
   15     9.065e-07  Converged.
   ... Converged in 15 steps (norm: 9.06549e-07)
------------------------------------
  Starting TPA DIIS iterations ... 
------------------------------------ 
   It     Res. Norm  Remark
------------------------------------
                       Guess.
    1     7.594e-01  
    2     5.938e-01  
    3     2.368e-01  
    4     1.376e-01  
    5     2.929e-02  
    6     1.187e-02  
    7     2.316e-03  
    8     1.186e-03  
    9     3.510e-04  
   10     4.828e-05  
   11     1.047e-05  
   12     4.778e-06  
   13     3.189e-06  
   14     9.461e-07  Converged.
   ... Converged in 14 steps (norm: 9.46145e-07)
------------------------------------
  Starting TPA DIIS iterations ... 
------------------------------------ 
   It     Res. Norm  Remark
------------------------------------
                       Guess.
    1     8.345e+00  
    2     1.366e+01  
    3     2.186e+00  
    4     7.633e-01  
    5     2.077e-01  
    6     9.574e-02  
    7     2.814e-02  
    8     5.097e-03  
    9     2.054e-03  
   10     3.753e-04  
   11     1.326e-04  
   12     3.827e-05  
   13     1.537e-05  
   14     1.156e-05  
   15     2.114e-06  
   16     1.958e-06  
   17     3.755e-07  Converged.
   ... Converged in 17 steps (norm: 3.75545e-07)
------------------------------------
  Starting TPA DIIS iterations ... 
------------------------------------ 
   It     Res. Norm  Remark
------------------------------------
                       Guess.
    1     7.934e+00  
    2     1.298e+01  
    3     2.081e+00  
    4     7.505e-01  
    5     2.071e-01  
    6     9.627e-02  
    7     2.771e-02  
    8     5.203e-03  
    9     2.091e-03  
   10     3.720e-04  
   11     1.321e-04  
   12     3.666e-05  
   13     1.470e-05  
   14     1.108e-05  
   15     2.096e-06  
   16     1.916e-06  
   17     3.720e-07  Converged.
   ... Converged in 17 steps (norm: 3.72041e-07)
------------------------------------
  Starting TPA DIIS iterations ... 
------------------------------------ 
   It     Res. Norm  Remark
------------------------------------
                       Guess.
    1     8.039e-01  
    2     6.749e-01  
    3     2.897e-01  
    4     2.158e-01  
    5     3.916e-02  
    6     1.722e-02  
    7     3.778e-03  
    8     1.730e-03  
    9     5.364e-04  
   10     5.543e-05  
   11     1.638e-05  
   12     7.978e-06  
   13     6.266e-06  
   14     1.610e-06  
   15     6.040e-07  Converged.
   ... Converged in 15 steps (norm: 6.04017e-07)
------------------------------------
  Starting TPA DIIS iterations ... 
------------------------------------ 
   It     Res. Norm  Remark
------------------------------------
                       Guess.
    1     1.014e+01  
    2     1.767e+01  
    3     2.668e+00  
    4     1.041e+00  
    5     2.873e-01  
    6     1.355e-01  
    7     3.920e-02  
    8     7.077e-03  
    9     2.911e-03  
   10     5.419e-04  
   11     1.944e-04  
   12     6.627e-05  
   13     2.844e-05  
   14     2.251e-05  
   15     4.408e-06  
   16     3.632e-06  
   17     7.316e-07  Converged.
   ... Converged in 17 steps (norm: 7.31551e-07)
------------------------------------
  Starting TPA DIIS iterations ... 
------------------------------------ 
   It     Res. Norm  Remark
------------------------------------
                       Guess.
    1     9.642e+00  
    2     1.678e+01  
    3     2.539e+00  
    4     1.021e+00  
    5     2.866e-01  
    6     1.364e-01  
    7     3.861e-02  
    8     7.237e-03  
    9     2.964e-03  
   10     5.360e-04  
   11     1.927e-04  
   12     6.317e-05  
   13     2.687e-05  
   14     2.157e-05  
   15     4.355e-06  
   16     3.555e-06  
   17     7.153e-07  Converged.
   ... Converged in 17 steps (norm: 7.15261e-07)
------------------------------------
  Starting TPA DIIS iterations ... 
------------------------------------ 
   It     Res. Norm  Remark
------------------------------------
                       Guess.
    1     8.384e-01  
    2     7.458e-01  
    3     3.381e-01  
    4     2.959e-01  
    5     4.969e-02  
    6     2.291e-02  
    7     5.484e-03  
    8     2.029e-03  
    9     6.996e-04  
   10     7.196e-05  
   11     2.331e-05  
   12     1.128e-05  
   13     9.807e-06  
   14     2.315e-06  
   15     8.066e-07  Converged.
   ... Converged in 15 steps (norm: 8.06571e-07)
------------------------------------
  Starting TPA DIIS iterations ... 
------------------------------------ 
   It     Res. Norm  Remark
------------------------------------
                       Guess.
    1     1.114e+01  
    2     1.998e+01  
    3     2.929e+00  
    4     1.204e+00  
    5     3.343e-01  
    6     1.593e-01  
    7     4.573e-02  
    8     8.244e-03  
    9     3.423e-03  
   10     6.430e-04  
   11     2.320e-04  
   12     8.601e-05  
   13     3.863e-05  
   14     3.054e-05  
   15     6.263e-06  
   16     4.801e-06  
   17     9.646e-07  Converged.
   ... Converged in 17 steps (norm: 9.64636e-07)
------------------------------------
  Starting TPA DIIS iterations ... 
------------------------------------ 
   It     Res. Norm  Remark
------------------------------------
                       Guess.
    1     1.058e+01  
    2     1.897e+01  
    3     2.787e+00  
    4     1.178e+00  
    5     3.334e-01  
    6     1.604e-01  
    7     4.505e-02  
    8     8.438e-03  
    9     3.486e-03  
   10     6.353e-04  
   11     2.294e-04  
   12     8.181e-05  
   13     3.633e-05  
   14     2.926e-05  
   15     6.176e-06  
   16     4.688e-06  
   17     9.354e-07  Converged.
   ... Converged in 17 steps (norm: 9.35405e-07)
------------------------------------
  Starting TPA DIIS iterations ... 
------------------------------------ 
   It     Res. Norm  Remark
------------------------------------
                       Guess.
    1     8.548e-01  
    2     7.821e-01  
    3     3.636e-01  
    4     3.383e-01  
    5     5.573e-02  
    6     2.607e-02  
    7     6.498e-03  
    8     2.118e-03  
    9     7.840e-04  
   10     8.348e-05  
   11     2.749e-05  
   12     1.312e-05  
   13     1.190e-05  
   14     2.704e-06  
   15     8.985e-07  Converged.
   ... Converged in 15 steps (norm: 8.98463e-07)
------------------------------------
  Starting TPA DIIS iterations ... 
------------------------------------ 
   It     Res. Norm  Remark
------------------------------------
                       Guess.
    1     1.165e+01  
    2     2.120e+01  
    3     3.063e+00  
    4     1.290e+00  
    5     3.595e-01  
    6     1.721e-01  
    7     4.924e-02  
    8     8.871e-03  
    9     3.700e-03  
   10     6.981e-04  
   11     2.527e-04  
   12     9.756e-05  
   13     4.490e-05  
   14     3.527e-05  
   15     7.391e-06  
   16     5.498e-06  
   17     1.092e-06  
   18     3.678e-07  Converged.
   ... Converged in 18 steps (norm: 3.67825e-07)
------------------------------------
  Starting TPA DIIS iterations ... 
------------------------------------ 
   It     Res. Norm  Remark
------------------------------------
                       Guess.
    1     1.107e+01  
    2     2.014e+01  
    3     2.915e+00  
    4     1.262e+00  
    5     3.586e-01  
    6     1.735e-01  
    7     4.851e-02  
    8     9.083e-03  
    9     3.768e-03  
   10     6.894e-04  
   11     2.496e-04  
   12     9.270e-05  
   13     4.215e-05  
   14     3.380e-05  
   15     7.281e-06  
   16     5.358e-06  
   17     1.056e-06  
   18     3.460e-07  Converged.
   ... Converged in 18 steps (norm: 3.46026e-07)
------------------------------------
  Starting TPA DIIS iterations ... 
------------------------------------ 
   It     Res. Norm  Remark
------------------------------------
                       Guess.
    1     8.627e-01  
    2     8.003e-01  
    3     3.765e-01  
    4     3.594e-01  
    5     5.893e-02  
    6     2.770e-02  
    7     7.041e-03  
    8     2.150e-03  
    9     8.269e-04  
   10     8.981e-05  
   11     2.976e-05  
   12     1.409e-05  
   13     1.304e-05  
   14     2.903e-06  
   15     9.434e-07  Converged.
   ... Converged in 15 steps (norm: 9.43445e-07)
------------------------------------
  Two-photon absorbption ...  CPU 175.71 s  wall 49.26 s
  Transition density matrix of state singlet_A_1 printed to ASCII file 'State_singlet_A_1_Transition.txt'
  Transition density matrix of state singlet_A_2 printed to ASCII file 'State_singlet_A_2_Transition.txt'
  Transition density matrix of state singlet_A_3 printed to ASCII file 'State_singlet_A_3_Transition.txt'
  Transition density matrix of state singlet_A_4 printed to ASCII file 'State_singlet_A_4_Transition.txt'
  Transition density matrix of state singlet_A_5 printed to ASCII file 'State_singlet_A_5_Transition.txt'
  Transition density matrix of state singlet_A_6 printed to ASCII file 'State_singlet_A_6_Transition.txt'
  Transition density matrix of state singlet_A_7 printed to ASCII file 'State_singlet_A_7_Transition.txt'
  Transition density matrix of state singlet_A_8 printed to ASCII file 'State_singlet_A_8_Transition.txt'
  Transition density matrix of state singlet_A_9 printed to ASCII file 'State_singlet_A_9_Transition.txt'
  Transition density matrix of state singlet_A_10 printed to ASCII file 'State_singlet_A_10_Transition.txt'
  Transition properties ...  CPU 0.40 s  wall 0.62 s
  Difference density matrix of state singlet_A_1 printed to ASCII file 'State_singlet_A_1_Difference.txt'
  Total density matrix of state singlet_A_1 printed to ASCII file 'State_singlet_A_1_Total.txt'
  Difference density matrix of state singlet_A_2 printed to ASCII file 'State_singlet_A_2_Difference.txt'
  Total density matrix of state singlet_A_2 printed to ASCII file 'State_singlet_A_2_Total.txt'
  Difference density matrix of state singlet_A_3 printed to ASCII file 'State_singlet_A_3_Difference.txt'
  Total density matrix of state singlet_A_3 printed to ASCII file 'State_singlet_A_3_Total.txt'
  Difference density matrix of state singlet_A_4 printed to ASCII file 'State_singlet_A_4_Difference.txt'
  Total density matrix of state singlet_A_4 printed to ASCII file 'State_singlet_A_4_Total.txt'
  Difference density matrix of state singlet_A_5 printed to ASCII file 'State_singlet_A_5_Difference.txt'
  Total density matrix of state singlet_A_5 printed to ASCII file 'State_singlet_A_5_Total.txt'
  Difference density matrix of state singlet_A_6 printed to ASCII file 'State_singlet_A_6_Difference.txt'
  Total density matrix of state singlet_A_6 printed to ASCII file 'State_singlet_A_6_Total.txt'
  Difference density matrix of state singlet_A_7 printed to ASCII file 'State_singlet_A_7_Difference.txt'
  Total density matrix of state singlet_A_7 printed to ASCII file 'State_singlet_A_7_Total.txt'
  Difference density matrix of state singlet_A_8 printed to ASCII file 'State_singlet_A_8_Difference.txt'
  Total density matrix of state singlet_A_8 printed to ASCII file 'State_singlet_A_8_Total.txt'
  Difference density matrix of state singlet_A_9 printed to ASCII file 'State_singlet_A_9_Difference.txt'
  Total density matrix of state singlet_A_9 printed to ASCII file 'State_singlet_A_9_Total.txt'
  Difference density matrix of state singlet_A_10 printed to ASCII file 'State_singlet_A_10_Difference.txt'
  Total density matrix of state singlet_A_10 printed to ASCII file 'State_singlet_A_10_Total.txt'
  Properties ...  CPU 0.96 s  wall 1.08 s
  ISR TDMS ...  CPU 32.50 s  wall 10.04 s
  ISR transition properties ...  CPU 0.56 s  wall 0.26 s
  Sum-over-states TPA ...  CPU 0.00 s  wall 0.00 s

--------------------------------------------------------------------------------
                   State-averaged natural transition orbitals
--------------------------------------------------------------------------------
--------------------------------------------------------------------------------
  SA-NTO decomposition ...  CPU 0.01 s  wall 0.04 s

--------------------------------------------------------------------------------
                             Excited State Summary
--------------------------------------------------------------------------------
--------------------------------------------------------------------------------

  Excited state 1 (singlet, A)                                     [converged]
  ----------------------------------------------------------------------------
  Term symbol:  2 (1) A                                     R^2 =  8.51195e-11

  Total energy:                                            -77.9992681791 a.u.
  Excitation energy:                                               8.731347 eV

  Osc. strength:                                                      0.445352
  Trans. dip. moment [a.u.]:           [   1.046205,   -0.993621,   -0.009700]
  <i|r^2|0> [a.u.]:                    [   6.176349,   -0.241627,   -0.006177]
  Two-photon absorption cross-section (SoS) [a.u.]:                   0.000245
  Two-photon absorption matrix (SoS) [a.u.]:
                                       |    0.000424    0.000425   -0.003770 |
                                       |    0.000425    0.000501   -0.003958 |
                                       |   -0.003770   -0.003958   -0.000825 |
  Two-photon absorption cross-section [a.u.]:                         0.005593
  Two-photon absorption matrix [a.u.]:
                                       |   -0.001731   -0.002018    0.017995 |
                                       |   -0.002018   -0.002367    0.018941 |
                                       |    0.017995    0.018941    0.004051 |

  Dip. moment [a.u.]:                  [  -0.000005,    0.000001,    0.000009]
  Total dipole [Debye]:                                               0.000027
  <r^2> [a.u.]:                        [ 176.606670,   36.015984,   11.921542]
  Total <r^2> [a.u.]:                                               224.544197

  V1^2 = 0.9713, V2^2 = 0.0287

  Important amplitudes:
      occ i     occ j     vir a      vir b          v   
    -----------------------------------------------------
     8 (A) A              9 (A) A                -0.6804
     6 (A) A             14 (A) A                 0.0617
     4 (A) A             10 (A) A                 0.0614
     7 (A) A             16 (A) A                -0.0575
     5 (A) A             13 (A) A                -0.0527
     6 (A) A             23 (A) A                 0.0484
     8 (A) A             20 (A) A                -0.0348
     6 (A) A             19 (A) A                -0.0302
     3 (A) A             12 (A) A                -0.0285
     7 (A) A              9 (A) A                -0.0261
     5 (A) A             22 (A) A                 0.0218
     4 (A) A             24 (A) A                 0.0188
     3 (A) A             26 (A) A                 0.0187
     7 (A) A             11 (A) A                 0.0186
     8 (A) A   8 (A) B   17 (A) A   20 (A) B      0.0184
     8 (A) A   8 (A) B    9 (A) A   28 (A) B     -0.0168
     6 (A) A             26 (A) A                -0.0163
     7 (A) A             21 (A) A                -0.0152
     3 (A) A             14 (A) A                -0.0142
     6 (A) A             12 (A) A                -0.0136
     3 (A) A   4 (A) B    9 (A) A    9 (A) B     -0.0129
     3 (A) A             19 (A) A                 0.0121
     8 (A) A   8 (A) B   18 (A) A   19 (A) B     -0.0110
     7 (A) A             32 (A) A                -0.0097
     7 (A) A             36 (A) A                 0.0086
     3 (A) A             23 (A) A                -0.0082
     8 (A) A   8 (A) B   25 (A) A   29 (A) B     -0.0076
     6 (A) A             35 (A) A                -0.0071
     6 (A) A             40 (A) A                -0.0067
     3 (A) A   6 (A) B    9 (A) A   28 (A) B      0.0064
     5 (A) A   8 (A) B   11 (A) A    9 (A) B      0.0062
     7 (A) A   8 (A) B   13 (A) A   20 (A) B      0.0060
     5 (A) A   8 (A) B   11 (A) A   20 (A) B     -0.0060
     5 (A) A             27 (A) A                -0.0060
     5 (A) A   7 (A) B    9 (A) A    9 (A) B      0.0060
     6 (A) A   8 (A) A   19 (A) A   28 (A) A      0.0060
     5 (A) A   8 (A) B   16 (A) A    9 (A) B      0.0059
     3 (A) A   5 (A) B    9 (A) A   25 (A) B      0.0058
     7 (A) A   8 (A) B   22 (A) A   20 (A) B     -0.0057
     3 (A) A             40 (A) A                 0.0056
    -----------------------------------------------------

  Density matrix analysis:
  ------------------------
  NOs
    Occupation of frontier NOs:
       0.9492   1.0219
    Number of electrons: 16.000000
    Number of unpaired electrons: n_u =  2.31685, n_u,nl =  2.03329
    NO participation ratio (PR_NO):  2.873800
  
  
  Mulliken Population Analysis
  Atom      Charge (e)              h+              e-           Del q
  --------------------------------------------------------------------
   1 H        0.063170        0.020614       -0.012414        0.008200
   2 C       -0.126341        0.490217       -0.506619       -0.016402
   3 H        0.063181        0.020617       -0.012414        0.008203
   4 C       -0.126360        0.490216       -0.506621       -0.016405
   5 H        0.063180        0.020616       -0.012413        0.008203
   6 H        0.063169        0.020616       -0.012414        0.008202
  --------------------------------------------------------------------
  Sum:        0.000000        1.062896       -1.062896       -0.000000
  
  Multipole moment analysis of the density matrix
    Molecular charge:                      0.000000
    Number of electrons:                   16.000000
      Center of electronic charge [Ang]: [ -1.561338,  -0.065287,   0.002128]
    Total nuclear charge:                  16.000000
      Center of nuclear charge [Ang]:    [ -1.561338,  -0.065287,   0.002128]
    Dipole moment [D]:                     0.000027
      Cartesian components [D]:          [ -0.000013,   0.000003,   0.000023]
    RMS size of the density [Ang]:         1.219787
      Cartesian components [Ang]:        [  0.808180,   0.791253,   0.456775]
  
  Exciton analysis of the difference density matrix
    <r_h> [Ang]:                  [ -1.561336,  -0.065290,   0.002123]
    <r_e> [Ang]:                  [ -1.561336,  -0.065290,   0.002123]
    |<r_e - r_h>| [Ang]:            0.000001
    Hole size [Ang]:                1.287704
      Cartesian components [Ang]: [  0.730775,   0.715392,   0.782536]
    Electron size [Ang]:            1.463823
      Cartesian components [Ang]: [  0.854290,   0.831660,   0.849299]

  Transition density matrix analysis:
  -----------------------------------
  
  CT numbers (Mulliken)
    omega =     0.9531
    <Phe> =    -0.1601
  
  Exciton analysis of the transition density matrix
    Trans. dipole moment [D]:             1.833726
      Cartesian components [D]:         [  1.329593,  -1.262766,  -0.012327]
    <r_h> [Ang]:                        [ -1.561334,  -0.065292,   0.002124]
    <r_e> [Ang]:                        [ -1.561336,  -0.065289,   0.002122]
    |<r_e - r_h>| [Ang]:                  0.000004
    Hole size [Ang]:                      1.215029
      Cartesian components [Ang]:       [  0.650824,   0.637967,   0.803569]
    Electron size [Ang]:                  1.486631
      Cartesian components [Ang]:       [  0.864710,   0.840488,   0.869442]
    RMS electron-hole separation [Ang]:   1.937418
      Cartesian components [Ang]:       [  1.107181,   1.076703,   1.169807]
    Covariance(r_h, r_e) [Ang^2]:        -0.033610
    Correlation coefficient:             -0.018607
    Center-of-mass size [Ang]:            0.951203
      Cartesian components [Ang]:       [  0.528379,   0.516613,   0.598927]

  Decomposition into state-averaged NTOs
    H- 0 -> L+ 0: -0.6692 ( 89.6%)
    H- 2 -> L+ 5:  0.0829 (  1.4%)
                   omega =  95.3%
  ----------------------------------------------------------------------------


  Excited state 2 (singlet, A)                                     [converged]
  ----------------------------------------------------------------------------
  Term symbol:  3 (1) A                                     R^2 =  9.35960e-12

  Total energy:                                            -77.9911299309 a.u.
  Excitation energy:                                               8.952800 eV

  Osc. strength:                                                      0.000794
  Trans. dip. moment [a.u.]:           [  -0.043631,    0.041446,    0.000406]
  <i|r^2|0> [a.u.]:                    [  -0.191579,    0.096994,   -0.152656]
  Two-photon absorption cross-section (SoS) [a.u.]:                   4.573353
  Two-photon absorption matrix (SoS) [a.u.]:
                                       |    0.049961    0.057457   -0.514882 |
                                       |    0.057457    0.065599   -0.541468 |
                                       |   -0.514882   -0.541468   -0.115566 |
  Two-photon absorption cross-section [a.u.]:                         0.169608
  Two-photon absorption matrix [a.u.]:
                                       |   -0.008838   -0.011023    0.099209 |
                                       |   -0.011023   -0.013416    0.104213 |
                                       |    0.099209    0.104213    0.022253 |

  Dip. moment [a.u.]:                  [  -0.000084,    0.000068,    0.000019]
  Total dipole [Debye]:                                               0.000279
  <r^2> [a.u.]:                        [ 174.949977,   34.369966,   13.212247]
  Total <r^2> [a.u.]:                                               222.532190

  V1^2 = 0.9541, V2^2 = 0.0459

  Important amplitudes:
      occ i     occ j     vir a      vir b          v   
    -----------------------------------------------------
     7 (A) A              9 (A) A                -0.6680
     8 (A) A             11 (A) A                 0.1514
     7 (A) A             20 (A) A                -0.0755
     5 (A) A   8 (A) B    9 (A) A    9 (A) B      0.0315
     8 (A) A             16 (A) A                 0.0281
     8 (A) A              9 (A) A                 0.0257
     8 (A) A             21 (A) A                -0.0178
     5 (A) A             28 (A) A                -0.0150
     4 (A) A   7 (A) B    9 (A) A   19 (A) B      0.0136
     5 (A) A   7 (A) B    9 (A) A   16 (A) B     -0.0134
     7 (A) A   8 (A) B   20 (A) A   17 (A) B      0.0105
     7 (A) A   8 (A) A    9 (A) A   28 (A) A      0.0098
     5 (A) A   8 (A) B    9 (A) A   20 (A) B      0.0094
     4 (A) A   6 (A) B    9 (A) A   16 (A) B      0.0091
     5 (A) A   6 (A) A    9 (A) A   23 (A) A      0.0090
     5 (A) A   6 (A) A    9 (A) A   14 (A) A      0.0089
     5 (A) A   6 (A) B    9 (A) A   19 (A) B     -0.0086
     8 (A) A   7 (A) B    9 (A) A   28 (A) B     -0.0085
     6 (A) A   7 (A) B    9 (A) A   18 (A) B     -0.0085
     4 (A) A   5 (A) A    9 (A) A   10 (A) A     -0.0085
     5 (A) A   6 (A) B    9 (A) A   23 (A) B      0.0080
     3 (A) A   7 (A) B    9 (A) A   18 (A) B     -0.0080
     5 (A) A   7 (A) A    9 (A) A   16 (A) A     -0.0078
     4 (A) A   8 (A) B    9 (A) A   25 (A) B     -0.0076
     4 (A) A   7 (A) B   19 (A) A    9 (A) B      0.0075
     7 (A) A   8 (A) B   17 (A) A   20 (A) B      0.0074
     5 (A) A   5 (A) B    9 (A) A   13 (A) B     -0.0072
     7 (A) A   8 (A) B   19 (A) A   18 (A) B     -0.0070
     4 (A) A   5 (A) B    9 (A) A   18 (A) B      0.0069
     5 (A) A   8 (A) A    9 (A) A   20 (A) A      0.0068
     7 (A) A   7 (A) B   20 (A) A   22 (A) B     -0.0066
     7 (A) A   8 (A) B   17 (A) A    9 (A) B      0.0065
     5 (A) A   6 (A) B    9 (A) A   14 (A) B      0.0063
     5 (A) A   7 (A) B   11 (A) A   20 (A) B     -0.0062
     4 (A) A   5 (A) B   10 (A) A    9 (A) B      0.0061
     4 (A) A   7 (A) A    9 (A) A   19 (A) A      0.0061
     5 (A) A             38 (A) A                 0.0060
     4 (A) A   6 (A) B   16 (A) A    9 (A) B      0.0058
     4 (A) A   8 (A) A    9 (A) A   25 (A) A     -0.0056
     6 (A) A   7 (A) A   19 (A) A   28 (A) A      0.0056
    -----------------------------------------------------

  Density matrix analysis:
  ------------------------
  NOs
    Occupation of frontier NOs:
       0.9559   1.0553
    Number of electrons: 16.000000
    Number of unpaired electrons: n_u =  2.35835, n_u,nl =  2.06486
    NO participation ratio (PR_NO):  3.045437
  
  
  Mulliken Population Analysis
  Atom      Charge (e)              h+              e-           Del q
  --------------------------------------------------------------------
   1 H        0.154871        0.124700       -0.024799        0.099901
   2 C       -0.309738        0.272838       -0.472637       -0.199799
   3 H        0.154857        0.124680       -0.024801        0.099879
   4 C       -0.309750        0.272865       -0.472662       -0.199796
   5 H        0.154873        0.124698       -0.024802        0.099896
   6 H        0.154887        0.124716       -0.024796        0.099920
  --------------------------------------------------------------------
  Sum:        0.000000        1.044498       -1.044498       -0.000000
  
  Multipole moment analysis of the density matrix
    Molecular charge:                      0.000000
    Number of electrons:                   16.000000
      Center of electronic charge [Ang]: [ -1.561335,  -0.065289,   0.002127]
    Total nuclear charge:                  16.000000
      Center of nuclear charge [Ang]:    [ -1.561338,  -0.065287,   0.002128]
    Dipole moment [D]:                     0.000279
      Cartesian components [D]:          [ -0.000214,   0.000172,   0.000049]
    RMS size of the density [Ang]:         1.205269
      Cartesian components [Ang]:        [  0.790043,   0.772834,   0.480867]
  
  Exciton analysis of the difference density matrix
    <r_h> [Ang]:                  [ -1.561381,  -0.065245,   0.002130]
    <r_e> [Ang]:                  [ -1.561341,  -0.065278,   0.002124]
    |<r_e - r_h>| [Ang]:            0.000052
    Hole size [Ang]:                1.495821
      Cartesian components [Ang]: [  1.013458,   1.000821,   0.456883]
    Electron size [Ang]:            1.480310
      Cartesian components [Ang]: [  0.884473,   0.862197,   0.815869]

  Transition density matrix analysis:
  -----------------------------------
  
  CT numbers (Mulliken)
    omega =     0.9214
    <Phe> =    -0.0116
  
  Exciton analysis of the transition density matrix
    Trans. dipole moment [D]:             0.076481
      Cartesian components [D]:         [ -0.055449,   0.052673,   0.000517]
    <r_h> [Ang]:                        [ -1.561389,  -0.065238,   0.002131]
    <r_e> [Ang]:                        [ -1.561335,  -0.065283,   0.002123]
    |<r_e - r_h>| [Ang]:                  0.000071
    Hole size [Ang]:                      1.526553
      Cartesian components [Ang]:       [  1.038093,   1.025424,   0.448590]
    Electron size [Ang]:                  1.475769
      Cartesian components [Ang]:       [  0.873493,   0.850443,   0.831657]
    RMS electron-hole separation [Ang]:   2.103348
      Cartesian components [Ang]:       [  1.340733,   1.317247,   0.944121]
    Covariance(r_h, r_e) [Ang^2]:         0.042094
    Correlation coefficient:              0.018685
    Center-of-mass size [Ang]:            1.071500
      Cartesian components [Ang]:       [  0.686238,   0.673490,   0.472865]

  Decomposition into state-averaged NTOs
    H- 1 -> L+ 0:  0.6603 ( 87.2%)
    H- 0 -> L+ 2:  0.1514 (  4.6%)
                   omega =  92.1%
  ----------------------------------------------------------------------------


  Excited state 3 (singlet, A)                                     [converged]
  ----------------------------------------------------------------------------
  Term symbol:  4 (1) A                                     R^2 =  1.44630e-11

  Total energy:                                            -77.9841912920 a.u.
  Excitation energy:                                               9.141610 eV

  Osc. strength:                                                      0.023579
  Trans. dip. moment [a.u.]:           [  -0.015403,   -0.019671,    0.323505]
  <i|r^2|0> [a.u.]:                    [  -0.107988,    0.012236,   -0.002587]
  Two-photon absorption cross-section (SoS) [a.u.]:                   0.104016
  Two-photon absorption matrix (SoS) [a.u.]:
                                       |   -0.113616   -0.005800   -0.005743 |
                                       |   -0.005800    0.113470    0.006586 |
                                       |   -0.005743    0.006586    0.000053 |
  Two-photon absorption cross-section [a.u.]:                         0.054627
  Two-photon absorption matrix [a.u.]:
                                       |   -0.082372   -0.004193   -0.004136 |
                                       |   -0.004193    0.082203    0.004744 |
                                       |   -0.004136    0.004744    0.000046 |

  Dip. moment [a.u.]:                  [   0.000018,    0.000022,   -0.000009]
  Total dipole [Debye]:                                               0.000077
  <r^2> [a.u.]:                        [ 181.388198,   41.008861,   11.057427]
  Total <r^2> [a.u.]:                                               233.454487

  V1^2 = 0.9580, V2^2 = 0.0420

  Important amplitudes:
      occ i     occ j     vir a      vir b          v   
    -----------------------------------------------------
     8 (A) A             10 (A) A                -0.6887
     8 (A) A             24 (A) A                -0.0508
     8 (A) A             18 (A) A                 0.0332
     4 (A) A              9 (A) A                 0.0247
     8 (A) A   8 (A) B    9 (A) A   12 (A) B     -0.0223
     8 (A) A   8 (A) B   10 (A) A   17 (A) B     -0.0172
     5 (A) A   8 (A) B   11 (A) A   10 (A) B      0.0169
     8 (A) A             15 (A) A                -0.0149
     7 (A) A   8 (A) B   13 (A) A   10 (A) B     -0.0143
     4 (A) A   8 (A) B   12 (A) A   10 (A) B      0.0113
     6 (A) A   8 (A) A   10 (A) A   15 (A) A     -0.0112
     7 (A) A   8 (A) B   22 (A) A   10 (A) B      0.0109
     6 (A) A   8 (A) B   15 (A) A   10 (A) B      0.0109
     4 (A) A   8 (A) A   10 (A) A   12 (A) A     -0.0108
     7 (A) A   8 (A) A   10 (A) A   22 (A) A     -0.0099
     7 (A) A   8 (A) A   10 (A) A   13 (A) A      0.0098
     5 (A) A   8 (A) A   10 (A) A   11 (A) A     -0.0097
     5 (A) A   8 (A) B   21 (A) A   10 (A) B     -0.0094
     6 (A) A   8 (A) B   10 (A) A   10 (A) B     -0.0090
     6 (A) A   8 (A) A   10 (A) A   18 (A) A     -0.0086
     7 (A) A   8 (A) A   12 (A) A   16 (A) A     -0.0084
     3 (A) A   4 (A) B   10 (A) A    9 (A) B     -0.0080
     5 (A) A   8 (A) A   10 (A) A   21 (A) A      0.0079
     4 (A) A   8 (A) B   19 (A) A   10 (A) B     -0.0076
     8 (A) A   8 (A) B    9 (A) A   23 (A) B      0.0075
     8 (A) A   8 (A) B   10 (A) A   28 (A) B     -0.0073
     5 (A) A   8 (A) B   10 (A) A   11 (A) B      0.0072
     7 (A) A   8 (A) B   16 (A) A   12 (A) B      0.0072
     3 (A) A   8 (A) A   10 (A) A   24 (A) A      0.0072
     3 (A) A   8 (A) B   10 (A) A   10 (A) B     -0.0071
     8 (A) A   8 (A) B    9 (A) A   19 (A) B      0.0070
     3 (A) A   8 (A) B   10 (A) A   18 (A) B      0.0068
     6 (A) A   8 (A) B   18 (A) A   10 (A) B      0.0065
     3 (A) A   6 (A) B   10 (A) A   28 (A) B      0.0062
     7 (A) A   8 (A) B   12 (A) A   11 (A) B      0.0059
     6 (A) A             28 (A) A                -0.0058
     5 (A) A   8 (A) A   10 (A) A   16 (A) A     -0.0057
     3 (A) A   5 (A) B   10 (A) A   25 (A) B      0.0056
     6 (A) A   8 (A) A   11 (A) A   16 (A) A      0.0055
     4 (A) A   8 (A) A   10 (A) A   23 (A) A      0.0055
    -----------------------------------------------------

  Density matrix analysis:
  ------------------------
  NOs
    Occupation of frontier NOs:
       0.9812   0.9847
    Number of electrons: 16.000000
    Number of unpaired electrons: n_u =  2.28863, n_u,nl =  2.02504
    NO participation ratio (PR_NO):  2.701208
  
  
  Mulliken Population Analysis
  Atom      Charge (e)              h+              e-           Del q
  --------------------------------------------------------------------
   1 H       -0.155087        0.054354       -0.264411       -0.210057
   2 C        0.310172        0.538085       -0.117974        0.420111
   3 H       -0.155081        0.054355       -0.264414       -0.210059
   4 C        0.310159        0.538081       -0.117967        0.420114
   5 H       -0.155071        0.054356       -0.264404       -0.210048
   6 H       -0.155092        0.054354       -0.264415       -0.210060
  --------------------------------------------------------------------
  Sum:        0.000000        1.293585       -1.293585       -0.000000
  
  Multipole moment analysis of the density matrix
    Molecular charge:                      0.000000
    Number of electrons:                   16.000000
      Center of electronic charge [Ang]: [ -1.561339,  -0.065288,   0.002128]
    Total nuclear charge:                  16.000000
      Center of nuclear charge [Ang]:    [ -1.561338,  -0.065287,   0.002128]
    Dipole moment [D]:                     0.000077
      Cartesian components [D]:          [  0.000047,   0.000057,  -0.000022]
    RMS size of the density [Ang]:         1.282117
      Cartesian components [Ang]:        [  0.858392,   0.844669,   0.439909]
  
  Exciton analysis of the difference density matrix
    <r_h> [Ang]:                  [ -1.561337,  -0.065289,   0.002125]
    <r_e> [Ang]:                  [ -1.561347,  -0.065297,   0.002132]
    |<r_e - r_h>| [Ang]:            0.000014
    Hole size [Ang]:                1.412905
      Cartesian components [Ang]: [  0.836558,   0.822691,   0.787179]
    Electron size [Ang]:            2.079255
      Cartesian components [Ang]: [  1.376861,   1.380380,   0.722571]

  Transition density matrix analysis:
  -----------------------------------
  
  CT numbers (Mulliken)
    omega =     0.9250
    <Phe> =    -0.0109
  
  Exciton analysis of the transition density matrix
    Trans. dipole moment [D]:             0.412358
      Cartesian components [D]:         [ -0.019575,  -0.024999,   0.411134]
    <r_h> [Ang]:                        [ -1.561333,  -0.065291,   0.002123]
    <r_e> [Ang]:                        [ -1.561349,  -0.065301,   0.002134]
    |<r_e - r_h>| [Ang]:                  0.000021
    Hole size [Ang]:                      1.212760
      Cartesian components [Ang]:       [  0.636300,   0.623759,   0.822698]
    Electron size [Ang]:                  2.301788
      Cartesian components [Ang]:       [  1.523315,   1.529516,   0.798948]
    RMS electron-hole separation [Ang]:   2.591632
      Cartesian components [Ang]:       [  1.643224,   1.644667,   1.145181]
    Covariance(r_h, r_e) [Ang^2]:         0.026229
    Correlation coefficient:              0.009396
    Center-of-mass size [Ang]:            1.305897
      Cartesian components [Ang]:       [  0.829238,   0.829467,   0.574209]

  Decomposition into state-averaged NTOs
    H- 0 -> L+ 1:  0.6794 ( 92.3%)
                   omega =  92.5%
  ----------------------------------------------------------------------------


  Excited state 4 (singlet, A)                                     [converged]
  ----------------------------------------------------------------------------
  Term symbol:  5 (1) A                                     R^2 =  5.51604e-12

  Total energy:                                            -77.9622645734 a.u.
  Excitation energy:                                               9.738266 eV

  Osc. strength:                                                      0.000081
  Trans. dip. moment [a.u.]:           [   0.013325,   -0.012658,   -0.000123]
  <i|r^2|0> [a.u.]:                    [   0.092397,    0.015074,   -0.031959]
  Two-photon absorption cross-section (SoS) [a.u.]:                 134.659362
  Two-photon absorption matrix (SoS) [a.u.]:
                                       |    0.270666    0.311756   -2.794186 |
                                       |    0.311756    0.356417   -2.937855 |
                                       |   -2.794186   -2.937855   -0.627079 |
  Two-photon absorption cross-section [a.u.]:                        80.027813
  Two-photon absorption matrix [a.u.]:
                                       |    0.209270    0.240366   -2.153954 |
                                       |    0.240366    0.274153   -2.264919 |
                                       |   -2.153954   -2.264919   -0.483422 |

  Dip. moment [a.u.]:                  [  -0.000016,   -0.000009,   -0.000014]
  Total dipole [Debye]:                                               0.000059
  <r^2> [a.u.]:                        [ 181.495764,   41.010167,   10.787118]
  Total <r^2> [a.u.]:                                               233.293049

  V1^2 = 0.9633, V2^2 = 0.0367

  Important amplitudes:
      occ i     occ j     vir a      vir b          v   
    -----------------------------------------------------
     8 (A) A             11 (A) A                 0.6687
     7 (A) A              9 (A) A                 0.1535
     8 (A) A             21 (A) A                -0.0779
     8 (A) A             16 (A) A                 0.0674
     8 (A) A   8 (A) B    9 (A) A   13 (A) B     -0.0167
     5 (A) A   8 (A) B   11 (A) A   11 (A) B     -0.0157
     7 (A) A             20 (A) A                 0.0140
     8 (A) A   8 (A) B   11 (A) A   17 (A) B      0.0137
     7 (A) A   8 (A) B   13 (A) A   11 (A) B      0.0127
     4 (A) A   8 (A) B   12 (A) A   11 (A) B     -0.0111
     8 (A) A   8 (A) B    9 (A) A   22 (A) B      0.0110
     5 (A) A   8 (A) A   11 (A) A   21 (A) A     -0.0109
     7 (A) A   8 (A) A   11 (A) A   22 (A) A      0.0095
     6 (A) A   8 (A) B   10 (A) A   11 (A) B      0.0091
     6 (A) A   8 (A) B   15 (A) A   11 (A) B     -0.0089
     7 (A) A   8 (A) B   22 (A) A   11 (A) B     -0.0089
     3 (A) A   4 (A) B   11 (A) A    9 (A) B      0.0083
     3 (A) A   8 (A) B   11 (A) A   18 (A) B     -0.0080
     6 (A) A   8 (A) A   11 (A) A   15 (A) A      0.0079
     7 (A) A   8 (A) A   13 (A) A   16 (A) A     -0.0079
     7 (A) A   8 (A) A   11 (A) A   13 (A) A     -0.0075
     4 (A) A   8 (A) B   19 (A) A   11 (A) B      0.0070
     5 (A) A   8 (A) B   21 (A) A   11 (A) B      0.0069
     5 (A) A   8 (A) B    9 (A) A    9 (A) B     -0.0069
     4 (A) A   8 (A) A   11 (A) A   12 (A) A      0.0062
     3 (A) A   6 (A) B   11 (A) A   28 (A) B     -0.0060
     6 (A) A   8 (A) A   11 (A) A   18 (A) A      0.0059
     6 (A) A   8 (A) B   18 (A) A   11 (A) B     -0.0058
     7 (A) A   8 (A) B   16 (A) A   13 (A) B      0.0057
     3 (A) A   8 (A) B   11 (A) A   30 (A) B     -0.0056
     5 (A) A   8 (A) B   10 (A) A   10 (A) B     -0.0055
     7 (A) A   8 (A) B   12 (A) A   10 (A) B     -0.0055
     8 (A) A   8 (A) B   20 (A) A   22 (A) B      0.0055
     6 (A) A   8 (A) B   11 (A) A   10 (A) B      0.0055
     3 (A) A   5 (A) B   11 (A) A   25 (A) B     -0.0054
     3 (A) A   8 (A) A   11 (A) A   18 (A) A     -0.0054
     3 (A) A   8 (A) A   11 (A) A   24 (A) A     -0.0053
     5 (A) A   8 (A) A   11 (A) A   16 (A) A      0.0049
     6 (A) A   8 (A) A   10 (A) A   16 (A) A     -0.0047
     8 (A) A   8 (A) B   11 (A) A   28 (A) B      0.0043
    -----------------------------------------------------

  Density matrix analysis:
  ------------------------
  NOs
    Occupation of frontier NOs:
       0.9386   1.0295
    Number of electrons: 16.000000
    Number of unpaired electrons: n_u =  2.32235, n_u,nl =  2.05109
    NO participation ratio (PR_NO):  2.933013
  
  
  Mulliken Population Analysis
  Atom      Charge (e)              h+              e-           Del q
  --------------------------------------------------------------------
   1 H       -0.125389        0.046020       -0.226379       -0.180359
   2 C        0.251038        0.495228       -0.134250        0.360977
   3 H       -0.125644        0.046009       -0.226631       -0.180622
   4 C        0.251015        0.495229       -0.134259        0.360970
   5 H       -0.125642        0.046010       -0.226629       -0.180619
   6 H       -0.125379        0.046021       -0.226368       -0.180347
  --------------------------------------------------------------------
  Sum:        0.000000        1.174516       -1.174516       -0.000000
  
  Multipole moment analysis of the density matrix
    Molecular charge:                      0.000000
    Number of electrons:                   16.000000
      Center of electronic charge [Ang]: [ -1.561338,  -0.065287,   0.002128]
    Total nuclear charge:                  16.000000
      Center of nuclear charge [Ang]:    [ -1.561338,  -0.065287,   0.002128]
    Dipole moment [D]:                     0.000059
      Cartesian components [D]:          [ -0.000039,  -0.000024,  -0.000036]
    RMS size of the density [Ang]:         1.281016
      Cartesian components [Ang]:        [  0.859490,   0.844683,   0.434499]
  
  Exciton analysis of the difference density matrix
    <r_h> [Ang]:                  [ -1.561338,  -0.065286,   0.002125]
    <r_e> [Ang]:                  [ -1.561333,  -0.065281,   0.002135]
    |<r_e - r_h>| [Ang]:            0.000012
    Hole size [Ang]:                1.394944
      Cartesian components [Ang]: [  0.819591,   0.806341,   0.789907]
    Electron size [Ang]:            2.114316
      Cartesian components [Ang]: [  1.419358,   1.415514,   0.672365]

  Transition density matrix analysis:
  -----------------------------------
  
  CT numbers (Mulliken)
    omega =     0.9293
    <Phe> =    -0.0146
  
  Exciton analysis of the transition density matrix
    Trans. dipole moment [D]:             0.023358
      Cartesian components [D]:         [  0.016935,  -0.016087,  -0.000157]
    <r_h> [Ang]:                        [ -1.561337,  -0.065287,   0.002123]
    <r_e> [Ang]:                        [ -1.561334,  -0.065278,   0.002137]
    |<r_e - r_h>| [Ang]:                  0.000017
    Hole size [Ang]:                      1.229204
      Cartesian components [Ang]:       [  0.662030,   0.649582,   0.806661]
    Electron size [Ang]:                  2.247844
      Cartesian components [Ang]:       [  1.508833,   1.506036,   0.712797]
    RMS electron-hole separation [Ang]:   2.550839
      Cartesian components [Ang]:       [  1.638830,   1.631955,   1.075981]
    Covariance(r_h, r_e) [Ang^2]:         0.028483
    Correlation coefficient:              0.010309
    Center-of-mass size [Ang]:            1.286537
      Cartesian components [Ang]:       [  0.828245,   0.824155,   0.538476]

  Decomposition into state-averaged NTOs
    H- 0 -> L+ 2:  0.6641 ( 88.2%)
    H- 1 -> L+ 0: -0.1515 (  4.6%)
                   omega =  92.9%
  ----------------------------------------------------------------------------


  Excited state 5 (singlet, A)                                     [converged]
  ----------------------------------------------------------------------------
  Term symbol:  6 (1) A                                     R^2 =  2.55596e-10

  Total energy:                                            -77.9468244390 a.u.
  Excitation energy:                                              10.158414 eV

  Osc. strength:                                                      0.000002
  Trans. dip. moment [a.u.]:           [  -0.002147,   -0.002260,   -0.000247]
  <i|r^2|0> [a.u.]:                    [  -0.093953,    0.096451,   -0.015791]
  Two-photon absorption cross-section (SoS) [a.u.]:                 223.500066
  Two-photon absorption matrix (SoS) [a.u.]:
                                       |   -0.367974   -0.056042    3.823945 |
                                       |   -0.056042    0.437562   -3.625721 |
                                       |    3.823945   -3.625721   -0.071063 |
  Two-photon absorption cross-section [a.u.]:                       115.471804
  Two-photon absorption matrix [a.u.]:
                                       |   -0.265061   -0.040661    2.748589 |
                                       |   -0.040661    0.313908   -2.606124 |
                                       |    2.748589   -2.606124   -0.050953 |

  Dip. moment [a.u.]:                  [   0.000051,   -0.000064,    0.000001]
  Total dipole [Debye]:                                               0.000209
  <r^2> [a.u.]:                        [ 180.371245,   39.752225,   11.600270]
  Total <r^2> [a.u.]:                                               231.723739

  V1^2 = 0.9554, V2^2 = 0.0446

  Important amplitudes:
      occ i     occ j     vir a      vir b          v   
    -----------------------------------------------------
     8 (A) A             12 (A) A                 0.5698
     6 (A) A              9 (A) A                 0.3819
     8 (A) A             19 (A) A                -0.0525
     6 (A) A             20 (A) A                 0.0520
     8 (A) A             23 (A) A                -0.0293
     8 (A) A   8 (A) B    9 (A) A   10 (A) B      0.0205
     8 (A) A             26 (A) A                -0.0185
     3 (A) A              9 (A) A                -0.0158
     4 (A) A   8 (A) B    9 (A) A    9 (A) B      0.0158
     5 (A) A   8 (A) B   11 (A) A   12 (A) B     -0.0149
[...]
    16   -1.359448503483e-03
    17   -1.664837681425e-03
    18    1.372287342753e-04
    19   -2.913883322436e-03
    20    1.150716278493e-02
    21    9.277922152800e-01
    22   -5.068449734341e-04
    23    1.373074038585e-02
    24    7.740337013844e-04
    25    7.035167040526e-02
    26   -5.224151767464e-02
    27   -1.383691657017e+00
    28    9.984675189375e-02
    29   -9.482444804028e-02
    30   -9.629419794744e-04
    31    3.850041381460e-01
    32   -3.656369690846e-01
    33   -3.713462472931e-03
    34    1.505419374506e-02
    35   -1.496728697511e-03
    36   -1.809720919398e-03
    37    1.350036205502e-04
    38   -2.897359909400e-03
    39    1.150284603922e-02
    40    9.278132175892e-01
    41    5.092686833320e-04
    42   -1.372669455194e-02
    43   -8.386537512330e-04
    44    1.150649203242e-02
    45    9.278091863425e-01
    46    1.374173686220e-02
    47    1.931009804254e-04
    48    7.025690725320e-04
Sym=X
Ene= 0.231048
Spin=Alpha
Occup=0
     1   -2.986074745923e-02
     2   -1.167719844513e+00
     3    1.295010755505e-02
     4    3.510845809298e-03
     5    7.704953222821e-04
     6    5.985533582726e-05
     7   -6.333982930037e-05
     8   -9.467712774524e-04
     9    1.545968940595e-01
    10    1.626993518590e-01
    11    1.611488393186e-02
    12    5.302682184261e-01
    13    5.581882971481e-01
    14    5.467641369882e-02
    15    1.343618570556e-05
    16   -1.288483387453e-04
    17    1.278861622201e-04
    18   -1.378781403232e-03
    19   -7.692047335240e-05
    20    2.989317508939e-02
    21    1.169112097132e+00
    22    2.857771125894e-03
    23    1.312434571110e-02
    24    8.675398190989e-04
    25   -6.027096243440e-05
    26    6.374929578173e-05
    27    9.556215929259e-04
    28    1.544874426333e-01
    29    1.625653792600e-01
    30    1.837884936075e-02
    31    5.297903796858e-01
    32    5.576098352176e-01
    33    6.364063796002e-02
    34   -1.151367306591e-05
    35    2.014484198097e-05
    36   -2.433524333234e-05
    37    1.388305524053e-03
    38    7.831172318878e-05
    39   -2.989335371912e-02
    40   -1.169060111568e+00
    41    2.851341212006e-03
    42    1.311653524016e-02
    43    9.929191383653e-04
    44    2.986052327668e-02
    45    1.167655761094e+00
    46    1.294384231095e-02
    47    3.502882776718e-03
    48    8.957683459416e-04
Sym=X
Ene= 0.236440
Spin=Alpha
Occup=0
     1    1.931385972548e-02
     2    1.072993953152e+00
     3   -1.589612804355e-02
     4   -9.218089687610e-03
     5   -1.300854570079e-03
     6    8.712398624516e-02
     7   -8.232838668475e-02
     8   -1.545050465882e+00
     9   -5.898857614359e-02
    10    5.581159525682e-02
    11    5.472684325115e-04
    12   -2.424026693364e-01
    13    2.294582273922e-01
    14    2.243245357508e-03
    15    2.129041386710e-02
    16   -2.467484903522e-03
    17   -2.837892724983e-03
    18    6.145505663972e-04
    19   -1.241671948770e-02
    20    1.928390607658e-02
    21    1.071359501503e+00
    22    8.396032838358e-03
    23    1.631782944601e-02
    24    1.370989823048e-03
    25   -8.712177404921e-02
    26    8.232311199101e-02
    27    1.545028360842e+00
    28   -5.898994518538e-02
    29    5.581460734211e-02
    30    5.534145231230e-04
    31   -2.424083226752e-01
    32    2.294785929381e-01
    33    2.268196617304e-03
    34   -2.127541203075e-02
    35    2.542334735244e-03
    36    2.917823164271e-03
    37   -6.138644395964e-04
    38    1.240750579852e-02
    39   -1.928306497311e-02
    40   -1.071355462576e+00
    41    8.395120577731e-03
    42    1.631536036094e-02
    43    1.408662448145e-03
    44   -1.931284546385e-02
    45   -1.072966184258e+00
    46   -1.589361956584e-02
    47   -9.216941890549e-03
    48   -1.337732993415e-03
Sym=X
Ene= 0.302963
Spin=Alpha
Occup=0
     1   -2.107286510438e-02
     2    1.657830241032e+00
     3   -2.351033603790e-02
     4    4.009639499184e-04
     5   -1.061996963571e-03
     6    3.712956676884e-07
     7   -2.767195941172e-06
     8    1.218139092399e-06
     9   -1.356432794422e-01
    10   -1.426927747596e-01
    11   -1.453294532097e-02
    12   -1.125044342485e+00
    13   -1.183400799025e+00
    14   -1.235385034387e-01
    15    3.181565655794e-05
    16   -1.711382128551e-03
    17    1.946039868016e-03
    18   -3.408338681493e-02
    19   -1.742283449957e-03
    20    2.107284884602e-02
    21   -1.657825543690e+00
    22    1.600263490819e-03
    23   -2.344788315227e-02
    24   -1.295545127128e-03
    25    1.361640696249e-06
    26   -2.406431579433e-06
    27   -4.173118737091e-05
    28    1.355914361063e-01
    29    1.426260314846e-01
    30    1.572992081905e-02
    31    1.124830756126e+00
    32    1.183162374260e+00
    33    1.274812248653e-01
    34    3.382484944521e-05
    35   -1.771346290757e-03
    36    2.004904666192e-03
    37   -3.407459788901e-02
    38   -1.741875630435e-03
    39    2.106601964183e-02
    40   -1.657824213097e+00
    41   -1.605667760808e-03
    42    2.344219784443e-02
    43    1.382288822107e-03
    44   -2.106617560123e-02
    45    1.657854237113e+00
    46    2.350653554226e-02
    47   -4.070105371010e-04
    48    1.148115628069e-03
Sym=X
Ene= 0.462774
Spin=Alpha
Occup=0
     1   -1.144464950500e-01
     2   -6.987553955336e-01
     3   -1.497129803691e-02
     4   -1.030983260029e-02
     5   -1.276309094418e-03
     6    6.251386097856e-02
     7    1.659028120739e-02
     8   -3.641085017181e+00
     9    1.043376709403e-01
    10   -9.908432064030e-02
    11   -9.949310358670e-04
    12    2.433303990034e+00
    13   -2.310994645785e+00
    14   -2.259421678577e-02
    15    5.300595998459e-02
    16   -3.086059004680e-03
    17   -4.350588407951e-03
    18   -1.075087158091e-03
    19    2.009772622838e-02
    20   -1.144129386313e-01
    21   -6.987919746163e-01
    22    9.542550118147e-03
    23    1.546789463710e-02
    24    1.326509255061e-03
    25   -6.251551277328e-02
    26   -1.657971664939e-02
    27    3.641096326153e+00
    28    1.043562113822e-01
    29   -9.909932050232e-02
    30   -9.990054880589e-04
    31    2.433269841856e+00
    32   -2.310948114722e+00
    33   -2.261084702288e-02
    34   -5.292875102140e-02
    35    3.440396858986e-03
    36    4.722176446451e-03
    37    1.080401901052e-03
    38   -2.014706208590e-02
    39    1.143644813474e-01
    40    6.988291581403e-01
    41    9.534344997212e-03
    42    1.545841911029e-02
    43    1.457115584188e-03
    44    1.144004723514e-01
    45    6.987975284998e-01
    46   -1.496323301289e-02
    47   -1.029917215226e-02
    48   -1.407187440666e-03
Sym=X
Ene= 0.579808
Spin=Alpha
Occup=0
     1    2.377929146695e-01
     2    4.779439980641e-02
     3   -2.206952313267e-02
     4    2.697901295455e-02
     5    5.631903603898e-04
     6   -6.249385643224e-03
     7   -1.690017714493e-01
     8   -4.174636244593e-01
     9    3.055829084351e-01
    10   -2.901971335661e-01
    11   -2.837711415860e-03
    12   -7.481980687442e-01
    13    7.104745537149e-01
    14    6.997470301502e-03
    15   -1.986103674832e-03
    16    3.640536774001e-03
    17    3.277823515849e-03
    18   -3.047867818771e-03
    19    5.979235900361e-02
    20    2.377696608193e-01
    21    4.781784890348e-02
    22   -2.808355405596e-02
    23    2.065529350569e-02
    24   -9.358740017547e-05
    25   -6.260926754854e-03
    26   -1.690080899034e-01
    27   -4.169330198978e-01
    28   -3.055657755258e-01
    29    2.901754701022e-01
    30    2.836431815016e-03
    31    7.485778435051e-01
    32   -7.108122651469e-01
    33   -7.003368192000e-03
    34   -1.982458206152e-03
    35    3.656517802681e-03
    36    3.294231494680e-03
    37   -3.043570000965e-03
    38    5.979068128428e-02
    39    2.377357016814e-01
    40    4.798637782945e-02
    41    2.809006510449e-02
    42   -2.066147378696e-02
    43    1.072102422839e-04
    44    2.377967173535e-01
    45    4.794034066281e-02
    46    2.207180602921e-02
    47   -2.698165393747e-02
    48   -5.777281666762e-04
Sym=X
Ene= 0.608871
Spin=Alpha
Occup=0
     1   -5.193092400023e-01
     2    2.451327812768e-01
     3   -5.951389669703e-02
     4    3.706473801181e-02
     5   -6.908843737514e-04
     6    3.759163407856e-06
     7   -1.343444282507e-05
     8    2.044179792312e-04
     9   -3.562984782248e-02
    10   -3.748296142812e-02
    11   -4.310693878116e-03
    12    2.612328498221e-01
    13    2.749995886547e-01
    14    2.670754586204e-02
    15    1.195330994159e-04
    16   -7.537813009561e-03
    17    8.558238088752e-03
    18   -1.485912473529e-01
    19   -7.600574110796e-03
    20    5.194006725520e-01
    21   -2.451794591527e-01
    22    4.006753762372e-02
    23   -5.752210789497e-02
    24   -1.623432488831e-03
    25   -4.096229773943e-06
    26    1.558985152970e-05
    27   -1.804863130106e-04
    28   -3.565530311056e-02
    29   -3.753306362777e-02
    30   -3.644749641611e-03
    31    2.609838597735e-01
    32    2.747483598548e-01
    33    3.158341245595e-02
    34   -1.203044324746e-04
    35    7.647901402081e-03
    36   -8.669259473271e-03
    37    1.485917863446e-01
    38    7.597996219577e-03
    39   -5.194495660870e-01
    40    2.452404070826e-01
    41    4.005554482112e-02
    42   -5.753199114731e-02
    43   -1.481083549113e-03
    44    5.193252418874e-01
    45   -2.451924505076e-01
    46   -5.952283244282e-02
    47    3.705443157099e-02
    48   -5.464147586348e-04
Sym=X
Ene= 0.688653
Spin=Alpha
Occup=0
     1   -1.898857260624e-04
     2    1.104794629300e-03
     3    7.956116476434e-04
     4    9.657525861898e-04
     5   -1.881382211474e-02
     6    1.959537322156e-06
     7   -1.024147887738e-05
     8    6.155689657606e-05
     9    3.116260223990e-02
    10    3.941332018260e-02
    11   -6.707497574459e-01
    12   -2.817344084957e-02
    13   -3.547693216651e-02
    14    6.128090131220e-01
    15   -1.329856004181e-03
    16    8.258031067930e-02
    17   -7.834320972667e-02
    18   -9.074408525228e-03
    19   -1.227099698492e-03
    20    2.614005812764e-04
    21   -1.005670352172e-03
    22    7.289520128893e-04
    23    1.023489399780e-03
    24   -1.880919676851e-02
    25   -1.055698688899e-06
    26    2.507233605949e-05
    27   -7.223846346464e-05
    28    3.325779107999e-02
    29    4.160955967872e-02
    30   -6.705152693144e-01
    31   -3.089517089477e-02
    32   -3.833466755482e-02
    33    6.125021604242e-01
    34    1.325021694727e-03
    35   -8.261839084095e-02
    36    7.838739038096e-02
    37    8.331037542718e-03
    38    1.191195672109e-03
    39    2.026313282796e-04
    40   -1.114054317760e-03
    41    1.067811040713e-03
    42    1.254880046651e-03
    43   -1.877820712018e-02
    44   -2.486825530113e-04
    45    9.965523313452e-04
    46    1.001962969521e-03
    47    1.313489690214e-03
    48   -1.878267024998e-02
Sym=X
Ene= 0.704763
Spin=Alpha
Occup=0
     1   -4.879251652810e-01
     2    1.637718889210e-01
     3   -7.811828987020e-02
     4   -4.437333622772e-02
     5   -6.281612319522e-03
     6   -4.595821424876e-02
     7   -3.013104288735e-01
     8    4.637701764806e-01
     9    1.958973344212e-01
    10   -1.860831016476e-01
    11   -1.840481214805e-03
    12   -5.773336550294e-02
    13    5.498910466492e-02
    14    4.855786148715e-04
    15    1.912210002638e-01
    16   -2.007061090153e-02
    17   -2.363013855900e-02
    18    3.757884266907e-03
    19   -7.666936900104e-02
    20   -4.879565968423e-01
    21    1.639450083953e-01
    22    4.034475233717e-02
    23    8.025674327573e-02
    24    6.625285791257e-03
    25   -4.595064848655e-02
    26   -3.013087968063e-01
    27    4.633499352751e-01
    28   -1.958960239474e-01
    29    1.860840374507e-01
    30    1.820763926033e-03
    31    5.745468945908e-02
    32   -5.474122948818e-02
    33   -4.618826244504e-04
    34    1.910684841917e-01
    35   -2.086926489311e-02
    36   -2.446899861372e-02
    37    3.742840792494e-03
    38   -7.656444031075e-02
    39   -4.879383155408e-01
    40    1.638581799405e-01
    41   -4.032837653456e-02
    42   -8.023616072415e-02
    43   -6.935472198604e-03
    44   -4.879220345485e-01
    45    1.636823210162e-01
    46    7.810315134169e-02
    47    4.435276854372e-02
    48    6.590370567108e-03
Sym=X
Ene= 0.775739
Spin=Alpha
Occup=0
     1   -5.387707918937e-01
     2    4.806693307276e-01
     3   -1.077504059244e-01
     4   -2.645197635092e-02
     5   -6.543537041963e-03
     6   -8.893664010557e-02
     7    2.266824250490e-01
     8    5.667863118966e-01
     9   -1.035302101302e-01
    10    9.828412974825e-02
    11    9.363461603741e-04
    12   -2.941899334102e-01
    13    2.795620877182e-01
    14    2.767717097359e-03
    15    2.033694350171e-01
    16   -1.674971978787e-02
    17   -2.103162714812e-02
    18    2.118006405445e-04
    19   -7.742220087308e-03
    20   -5.386805444655e-01
    21    4.807719596885e-01
    22    2.094373641062e-02
    23    1.089004694115e-01
    24    7.352794000539e-03
    25    8.893781742669e-02
    26   -2.266908761419e-01
    27   -5.668565868232e-01
    28   -1.035466589731e-01
    29    9.828693443502e-02
    30    9.527526633698e-04
    31   -2.941183788951e-01
    32    2.795226128293e-01
    33    2.731312599095e-03
    34   -2.030964976969e-01
    35    1.816666024888e-02
    36    2.252710668488e-02
    37   -1.921219170062e-04
    38    7.578870142988e-03
    39    5.387194053997e-01
    40   -4.807723094432e-01
    41    2.092441901804e-02
    42    1.088729211431e-01
    43    7.811580055726e-03
    44    5.388014728655e-01
    45   -4.806412832357e-01
    46   -1.077242926992e-01
    47   -2.642866104467e-02
    48   -7.001773053091e-03
Sym=X
Ene= 0.807406
Spin=Alpha
Occup=0
     1   -8.033488141269e-05
     2    2.978422882837e-03
     3   -1.804906582752e-03
     4   -2.110349139028e-03
     5    3.140724702430e-02
     6   -2.560012428714e-06
     7    3.113730615431e-05
     8   -1.574023903949e-05
     9   -3.477827089373e-02
    10   -4.410819366201e-02
    11    7.644531180932e-01
    12    5.079476141319e-02
    13    6.450248498432e-02
    14   -1.124711718239e+00
    15   -1.047899244424e-03
    16    6.533951983857e-02
    17   -6.198325917377e-02
    18   -7.672998618316e-03
    19   -9.999187646194e-04
    20    6.676399039243e-05
    21   -2.979143823836e-03
    22   -1.702096227324e-03
    23   -2.212395814719e-03
    24    3.139685084867e-02
    25   -4.790585373454e-07
    26    2.697358289848e-05
    27   -1.360933626653e-05
    28    3.865487422050e-02
    29    4.820379333826e-02
    30   -7.640218529471e-01
    31   -5.725470606369e-02
    32   -7.129454534594e-02
    33    1.123991219197e+00
    34   -1.056380511257e-03
    35    6.541994883956e-02
    36   -6.207335520096e-02
    37   -6.103513195646e-03
    38   -9.220110639182e-04
    39   -6.956668364927e-05
    40    2.963120153617e-03
    41    1.311581321705e-03
    42    1.597210268469e-03
    43   -3.144937813138e-02
    44    7.737371927850e-05
    45   -2.994687719266e-03
    46    1.201050829829e-03
    47    1.691468935976e-03
    48   -3.145937812933e-02
Sym=X
Ene= 0.858424
Spin=Alpha
Occup=0
     1    1.432467846424e-02
     2   -1.075756145621e+00
     3    1.463351069681e-01
     4    5.609152520611e-02
     5    1.018122407705e-02
     6    4.709992413351e-06
     7    4.732190814386e-06
     8    1.362796749938e-05
     9   -4.118424934821e-01
    10   -4.332487975157e-01
    11   -4.265314175112e-02
    12    9.375985692817e-01
    13    9.862694966198e-01
    14    9.741366378860e-02
    15   -2.239485017639e-04
    16    1.178160563288e-02
    17   -1.335171087440e-02
    18    2.303703031386e-01
    19    1.177718132204e-02
    20   -1.427995511401e-02
    21    1.075664019574e+00
    22    4.857428465308e-02
    23    1.489161614855e-01
    24    1.110614876230e-02
    25   -4.712300526333e-06
    26   -5.774523973618e-06
    27   -1.076389134161e-05
    28   -4.115453996961e-01
    29   -4.328757764040e-01
    30   -4.921454945998e-02
    31    9.369439969579e-01
    32    9.854567506828e-01
    33    1.117275469683e-01
    34    2.241918875897e-04
    35   -1.177346035178e-02
    36    1.334467310436e-02
    37   -2.303825539352e-01
    38   -1.178027361068e-02
    39    1.427426023598e-02
    40   -1.075678645312e+00
    41    4.854109007285e-02
    42    1.488957439240e-01
    43    1.156260944102e-02
    44   -1.431964532319e-02
    45    1.075769201921e+00
    46    1.463211839143e-01
    47    5.605519551067e-02
    48    1.063532711311e-02
Sym=X
Ene= 0.928009
Spin=Alpha
Occup=0
     1   -1.417435770698e-01
     2    1.231205738984e+00
     3   -1.827214917083e-01
     4    5.729792809411e-03
     5   -8.110206204078e-03
     6   -1.949309099680e-06
     7   -7.764095149031e-05
     8    1.334027404686e-04
     9    4.740293994684e-01
    10    4.986258818461e-01
    11    5.191445603804e-02
    12   -1.382948508766e+00
    13   -1.454772154075e+00
    14   -1.515586867392e-01
    15    1.206607904598e-04
    16   -5.949291777488e-03
    17    6.814983777975e-03
    18   -1.256898950881e-01
    19   -6.440165897248e-03
    20    1.417215661519e-01
    21   -1.231287613229e+00
    22    1.505953891560e-02
    23   -1.821021755302e-01
    24   -9.947805257671e-03
    25   -2.959406648399e-06
    26   -7.534747676266e-05
    27    1.299332741543e-04
    28   -4.739210796200e-01
    29   -4.984989973368e-01
    30   -5.384941020374e-02
    31    1.382633106756e+00
    32    1.454389114083e+00
    33    1.570071604299e-01
    34    1.409844602219e-04
    35   -6.908346372183e-03
    36    7.731108700842e-03
    37   -1.255788307730e-01
    38   -6.428763539151e-03
    39    1.417188065631e-01
    40   -1.231237318464e+00
    41   -1.510074844665e-02
    42    1.820533348288e-01
    43    1.059394474435e-02
    44   -1.417516505755e-01
    45    1.231173517389e+00
    46    1.826853636302e-01
    47   -5.776769721643e-03
    48    8.752508442485e-03
Sym=X
Ene= 0.970585
Spin=Alpha
Occup=0
     1   -5.973470777409e-02
     2    8.967384811516e-01
     3   -8.757885374196e-02
     4   -9.662506488658e-02
     5   -9.955497301953e-03
     6    2.706965125083e-02
     7    2.529300093756e-01
     8    5.138584746778e-01
     9    4.830979600753e-01
    10   -4.588028294621e-01
    11   -4.507076130748e-03
    12   -1.474773496894e+00
    13    1.400594073234e+00
    14    1.374358188825e-02
    15   -5.792919359426e-02
    16   -1.243393151488e-02
    17   -9.224692655898e-03
    18    1.518767915568e-02
    19   -2.963694402795e-01
    20   -5.975770858119e-02
    21    8.967144976091e-01
    22    9.206898331366e-02
    23    9.234989461467e-02
    24    9.929829866243e-03
    25   -2.706876389643e-02
    26   -2.528413282585e-01
    27   -5.140006018335e-01
    28    4.830945109244e-01
    29   -4.587976825134e-01
    30   -4.517023481996e-03
    31   -1.474774773735e+00
    32    1.400607104494e+00
    33    1.377200757449e-02
    34    5.790567729032e-02
    35    1.234748592990e-02
    36    9.135413418806e-03
    37   -1.518812431477e-02
    38    2.963614303361e-01
    39    5.975990224796e-02
    40   -8.966769198702e-01
    41    9.205486069611e-02
    42    9.233598861518e-02
    43    1.008899843903e-02
    44    5.974431321360e-02
    45   -8.966966923370e-01
    46   -8.756696398201e-02
    47   -9.661056754186e-02
    48   -1.011061815180e-02
[5D]

======= END OF MOLDEN-FORMATTED INPUT FILE =======


        *************************************************************
        *                                                           *
        *  Thank you very much for using Q-Chem.  Have a nice day.  *
        *                                                           *
        *************************************************************


