                  Welcome to Q-Chem
     A Quantum Leap Into The Future Of Chemistry


 Q-Chem 5.4 (devel), Q-Chem, Inc., Pleasanton, CA (2021)

 E. Epifanovsky,  A. T. B. Gilbert,  Xintian Feng,  Joonho Lee,  Yuezhi Mao,  
 N. Mardirossian,  P. Pokhilko,  A. White,  M. Wormit,  M. P. Coons,  
 A. L. Dempwolff,  Zhengting Gan,  D. Hait,  P. R. Horn,  L. D. Jacobson,  
 I. Kaliman,  J. Kussmann,  A. W. Lange,  Ka Un Lao,  D. S. Levine,  Jie Liu,  
 S. C. McKenzie,  A. F. Morrison,  K. Nanda,  F. Plasser,  D. R. Rehn,  
 M. L. Vidal,  Zhi-Qiang You,  Ying Zhu,  B. Alam,  B. Albrecht,  
 A. Aldossary,  E. Alguire,  J. H. Andersen,  D. Barton,  K. Begam,  A. Behn,  
 Y. A. Bernard,  E. J. Berquist,  H. Burton,  A. Carreras,  K. Carter-Fenk,  
 R. Chakraborty,  A. D. Chien,  K. D. Closser,  V. Cofer-Shabica,  
 S. Dasgupta,  Jia Deng,  M. de Wergifosse,  M. Diedenhofen,  Hainam Do,  
 S. Ehlert,  Po-Tung Fang,  S. Fatehi,  Qingguo Feng,  T. Friedhoff,  
 J. Gayvert,  Qinghui Ge,  G. Gidofalvi,  M. Goldey,  J. Gomes,  
 C. Gonzalez-Espinoza,  S. Gulania,  A. Gunina,  M. W. D. Hanson-Heine,  
 P. H. P. Harbach,  A. W. Hauser,  M. F. Herbst,  M. Hernandez Vera,  
 M. Hodecker,  Z. C. Holden,  S. Houck,  Xunkun Huang,  Kerwin Hui,  
 B. C. Huynh,  M. Ivanov,  Hyunjun Ji,  Hanjie Jiang,  B. Kaduk,  S. Kaehler,  
 K. Khistyaev,  Jaehoon Kim,  P. Klunzinger,  Z. Koczor-Benda,  
 Joong Hoon Koh,  D. Kosenkov,  L. Koulias,  T. Kowalczyk,  C. M. Krauter,  
 K. Kue,  A. Kunitsa,  T. Kus,  A. Landau,  K. V. Lawler,  D. Lefrancois,  
 S. Lehtola,  Rain Li,  Yi-Pei Li,  Jiashu Liang,  M. Liebenthal,  
 Hung-Hsuan Lin,  You-Sheng Lin,  Fenglai Liu,  Kuan-Yu Liu,  
 M. Loipersberger,  A. Luenser,  A. Manjanath,  P. Manohar,  E. Mansoor,  
 S. F. Manzer,  Shan-Ping Mao,  A. V. Marenich,  T. Markovich,  S. Mason,  
 S. A. Maurer,  P. F. McLaughlin,  M. F. S. J. Menger,  J.-M. Mewes,  
 S. A. Mewes,  P. Morgante,  J. W. Mullinax,  K. J. Oosterbaan,  G. Paran,  
 Alexander C. Paul,  Suranjan K. Paul,  F. Pavosevic,  Zheng Pei,  S. Prager,  
 E. I. Proynov,  E. Ramos,  B. Rana,  A. E. Rask,  A. Rettig,  R. M. Richard,  
 F. Rob,  E. Rossomme,  T. Scheele,  M. Scheurer,  M. Schneider,  
 N. Sergueev,  S. M. Sharada,  W. Skomorowski,  D. W. Small,  C. J. Stein,  
 Yu-Chuan Su,  E. J. Sundstrom,  Zhen Tao,  J. Thirman,  T. Tsuchimochi,  
 N. M. Tubman,  S. P. Veccham,  O. Vydrov,  J. Wenzel,  J. Witte,  A. Yamada,  
 Kun Yao,  S. Yeganeh,  S. R. Yost,  A. Zech,  Igor Ying Zhang,  Xing Zhang,  
 Yu Zhang,  D. Zuev,  A. Aspuru-Guzik,  A. T. Bell,  N. A. Besley,  
 K. B. Bravaya,  B. R. Brooks,  D. Casanova,  Jeng-Da Chai,  S. Coriani,  
 C. J. Cramer,  A. E. DePrince, III,  R. A. DiStasio Jr.,  A. Dreuw,  
 B. D. Dunietz,  T. R. Furlani,  W. A. Goddard III,  S. Grimme,  
 S. Hammes-Schiffer,  T. Head-Gordon,  W. J. Hehre,  Chao-Ping Hsu,  
 T.-C. Jagau,  Yousung Jung,  A. Klamt,  Jing Kong,  D. S. Lambrecht,  
 WanZhen Liang,  N. J. Mayhall,  C. W. McCurdy,  J. B. Neaton,  
 C. Ochsenfeld,  J. A. Parkhill,  R. Peverati,  V. A. Rassolov,  Yihan Shao,  
 L. V. Slipchenko,  T. Stauch,  R. P. Steele,  J. E. Subotnik,  
 A. J. W. Thom,  A. Tkatchenko,  D. G. Truhlar,  T. Van Voorhis,  
 T. A. Wesolowski,  K. B. Whaley,  H. L. Woodcock III,  P. M. Zimmerman,  
 S. Faraji,  P. M. W. Gill,  M. Head-Gordon,  J. M. Herbert,  A. I. Krylov

 Additional authors for Version 5.4.1: 
 S. Kotaru,  Shaozhi Li,  Xiangyuan Li,  F. Matz,  A. Molle,  Haisheng Ren,  
 Yingli Su,  Hung-Yi Tsai,  C. Utku,  Fang Wang

 Contributors to earlier versions of Q-Chem not listed above: 
 R. D. Adamson,  B. Austin,  R. Baer,  J. Baker,  G. J. O. Beran,  
 K. Brandhorst,  S. T. Brown,  E. F. C. Byrd,  A. K. Chakraborty,  
 G. K. L. Chan,  Chun-Min Chang,  Yunqing Chen,  C.-L. Cheng,  
 Siu Hung Chien,  D. M. Chipman,  D. L. Crittenden,  H. Dachsel,  
 R. J. Doerksen,  A. D. Dutoi,  R. G. Edgar,  J. Fosso-Tande,  
 L. Fusti-Molnar,  D. Ghosh,  A. Ghysels,  A. Golubeva-Zadorozhnaya,  
 J. Gonthier,  M. S. Gordon,  S. R. Gwaltney,  G. Hawkins,  J. E. Herr,  
 A. Heyden,  S. Hirata,  E. G. Hohenstein,  G. Kedziora,  F. J. Keil,  
 C. Kelley,  Jihan Kim,  R. A. King,  R. Z. Khaliullin,  P. P. Korambath,  
 W. Kurlancheek,  A. Laurent,  A. M. Lee,  M. S. Lee,  S. V. Levchenko,  
 Ching Yeh Lin,  D. Liotard,  E. Livshits,  R. C. Lochan,  I. Lotan,  
 L. A. Martinez-Martinez,  P. E. Maslen,  N. Nair,  D. P. O'Neill,  
 D. Neuhauser,  E. Neuscamman,  C. M. Oana,  R. Olivares-Amaya,  R. Olson,  
 T. M. Perrine,  B. Peters,  P. A. Pieniazek,  A. Prociuk,  Y. M. Rhee,  
 J. Ritchie,  M. A. Rohrdanz,  E. Rosta,  N. J. Russ,  H. F. Schaefer III,  
 M. W. Schmidt,  N. E. Schultz,  S. Sharma,  N. Shenvi,  C. D. Sherrill,  
 A. C. Simmonett,  A. Sodt,  T. Stein,  D. Stuck,  K. S. Thanthiriwatte,  
 V. Vanovschi,  L. Vogt,  Tao Wang,  A. Warshel,  M. A. Watson,  
 C. F. Williams,  Q. Wu,  X. Xu,  Jun Yang,  W. Zhang,  Yan Zhao

 Please cite Q-Chem as follows:
 Y. Shao et al., Mol. Phys. 113, 184-215 (2015)
 DOI: 10.1080/00268976.2014.952696

 Q-Chem 5.4.1 for Intel X86 EM64T Linux

 Parts of Q-Chem use Armadillo 9.800.1 (Horizon Scraper).
 http://arma.sourceforge.net/

 Q-Chem begins on Thu Nov 17 00:22:07 2022  

 Host: cpu316.baobab
0

     Scratch files written to /scratch/fum/qchem15147//
 Processing $rem in /home/share/wesolowski/qc5.aug2021.FDE/config/preferences:
 Processing $rem in /home/fum/.qchemrc:

 Checking the input file for inconsistencies... 	...done.

--------------------------------------------------------------
User input:
--------------------------------------------------------------
$comment
generated from CCJob.Templates
$end

$rem
sym_ignore = true
method = adc(2)
ee_states = 10
basis = cc-pVDZ
mem_static = 1024
mem_total = 30000
adc_davidson_maxiter = 900
adc_davidson_conv = 6
adc_print = 3
adc_prop_es = true
adc_prop_es2es = true
adc_prop_tpa = true
molden_format = True
state_analysis = true
print_orbitals = 15
gen_scfman = false
fde_export_density = true
fde_details = 3
$end

$molecule
0 1
H -0.0348278765 -0.2442097827 0.0636489606
C -1.0765972949 -0.5242748755 -0.0023551776
H -1.308264467 -1.5767591607 -0.0757276926
C -2.043634118 0.3926884087 0.0061254933
H -1.8137616575 1.4459188338 0.0804456828
H -3.085977293 0.114931858 -0.0593381042                     
$end
--------------------------------------------------------------
 ----------------------------------------------------------------
             Standard Nuclear Orientation (Angstroms)
    I     Atom           X                Y                Z
 ----------------------------------------------------------------
    1      H      -0.0348278765    -0.2442097827     0.0636489606
    2      C      -1.0765972949    -0.5242748755    -0.0023551776
    3      H      -1.3082644670    -1.5767591607    -0.0757276926
    4      C      -2.0436341180     0.3926884087     0.0061254933
    5      H      -1.8137616575     1.4459188338     0.0804456828
    6      H      -3.0859772930     0.1149318580    -0.0593381042
 ----------------------------------------------------------------
 Nuclear Repulsion Energy =          33.42551380 hartrees
 There are        8 alpha and        8 beta electrons
 Requested basis set is cc-pVDZ
 There are 24 shells and 48 basis functions
 Total memory of 30000 MB is distributed as follows: 
   MEM_STATIC is set to 1024 MB
   QALLOC/CCMAN JOB total memory use is  28976 MB
 Warning: actual memory use might exceed 30000 MB

 Total QAlloc Memory Limit  30000 MB
 Mega-Array Size      1001 MB
 MEM_STATIC part      1024 MB

                       Distance Matrix (Angstroms)
             H (  1)   C (  2)   H (  3)   C (  4)   H (  5)
   C (  2)  1.080776
   H (  3)  1.848446  1.080174
   C (  4)  2.108139  1.332687  2.103852
   H (  5)  2.453859  2.105215  3.068632  1.080583
   H (  6)  3.074674  2.109370  2.454048  1.080700  1.846510

 A cutoff of  1.0D-11 yielded    300 shell pairs
 There are      1220 function pairs (      1329 Cartesian)
 Smallest overlap matrix eigenvalue = 4.80E-03

 Scale SEOQF with 1.000000e-01/1.000000e-01/1.000000e+00

 Standard Electronic Orientation quadrupole field applied
 Nucleus-field energy     =     0.0000000022 hartrees
 Guess from superposition of atomic densities
 Warning:  Energy on first SCF cycle will be non-variational
 SAD guess density has 16.000000 electrons
 A restricted Hartree-Fock SCF calculation will be
 performed using Pulay DIIS extrapolation
 SCF converges when DIIS error is below 1.0E-08
 using 8 threads for integral computing
 -------------------------------------------------------
 OpenMP Integral computing Module                
 Release: version 1.0, May 2013, Q-Chem Inc. Pittsburgh 
 -------------------------------------------------------
 ---------------------------------------
  Cycle       Energy         DIIS Error
 ---------------------------------------
    1     -78.4394282057      1.01E-01
    2     -78.0176982056      7.21E-03
    3     -78.0383312632      1.84E-03
    4     -78.0398141029      5.73E-04
    5     -78.0399356153      5.79E-05
    6     -78.0399374917      9.22E-06
    7     -78.0399375520      1.96E-06
    8     -78.0399375547      2.82E-07
    9     -78.0399375547      1.13E-07
   10     -78.0399375547      9.52E-09 Convergence criterion met
 ---------------------------------------
 SCF time:  CPU 1.89 s  wall 2.03 s
 SCF   energy in the final basis set = -78.03993755
 Total energy in the final basis set = -78.03993755
Exporting Density Matrix to file 'Densmat_SCF.txt'.
Export successful
================================================================================
|                                                                              |
|                                 A D C  M A N                                 |
|                                                                              |
 ------------------------------------------------------------------------------ 
|                                                                              |
| Components:                                                                  |
|                                                                              |
| - libvmm - 1.3-trunk                                                         |
|   Authors:                                                                   |
|   Evgeny Epifanovsky, Ilya Kaliman                                           |
|                                                                              |
| - libtensor - 2.5-trunk                                                      |
|   Authors:                                                                   |
|   Evgeny Epifanovsky, Michael Wormit, Dmitry Zuev, Sam Manzer,               |
|   Ilya Kaliman                                                               |
|                                                                              |
| - libwfa - 1.1-trunk                                                         |
|   Authors:                                                                   |
|   Felix Plasser, Stefanie Mewes (Baeppler), Benjamin Thomitzni,              |
|   Michael Wormit, Feng Chen, Anna I. Krylov, Pavel Pokhilko                  |
|                                                                              |
| - libadc - 1.1-trunk                                                         |
|   Authors:                                                                   |
|   Michael Wormit, Adrian L. Dempwolff, Philipp H. P. Harbach,                |
|   Caroline Krauter, Dirk Rehn, Matthias Schneider, Jan Wenzel                |
|                                                                              |
| - adcman - 2.6-trunk                                                         |
|   Authors:                                                                   |
|   Michael Wormit, Adrian L. Dempwolff, Philipp H. P. Harbach,                |
|   Caroline Krauter, Daniel Lefrancois, Jan-Michael Mewes, Dirk Rehn,         |
|   Matthias Schneider, Jan Wenzel, Andreas Dreuw                              |
|                                                                              |
| Authors of earlier versions of ADCMAN:                                       |
| Andreas Dreuw, Jan Hendrik Starcke, Dirk Rehn, Michael Wormit                |
|                                                                              |
================================================================================

 Created directory /scratch/fum/qchem15147/plots
  Import QC data ...  CPU 0.00 s  wall 0.00 s

 Alpha MOs, Restricted
 -- Occupied --                  
-11.235 -11.233  -1.032  -0.790  -0.641  -0.582  -0.505  -0.374
  1 A     2 A     3 A     4 A     5 A     6 A     7 A     8 A                  
 -- Virtual --                   
  0.168   0.204   0.233   0.239   0.303   0.462   0.578   0.615
  9 A    10 A    11 A    12 A    13 A    14 A    15 A    16 A                  
  0.689   0.709   0.785   0.808   0.862   0.936   0.973   1.010
 17 A    18 A    19 A    20 A    21 A    22 A    23 A    24 A                  
  1.131   1.235   1.253   1.266   1.294   1.601   1.729   1.751
 25 A    26 A    27 A    28 A    29 A    30 A    31 A    32 A                  
  1.819   1.859   1.867   1.921   1.976   1.979   2.223   2.258
 33 A    34 A    35 A    36 A    37 A    38 A    39 A    40 A                  
  2.375   2.454   2.508   2.636   2.721   2.823   3.139   3.401
 41 A    42 A    43 A    44 A    45 A    46 A    47 A    48 A                  

 Beta MOs, Restricted
 -- Occupied --                  
-11.235 -11.233  -1.032  -0.790  -0.641  -0.582  -0.505  -0.374
  1 A     2 A     3 A     4 A     5 A     6 A     7 A     8 A                  
 -- Virtual --                   
  0.168   0.204   0.233   0.239   0.303   0.462   0.578   0.615
  9 A    10 A    11 A    12 A    13 A    14 A    15 A    16 A                  
  0.689   0.709   0.785   0.808   0.862   0.936   0.973   1.010
 17 A    18 A    19 A    20 A    21 A    22 A    23 A    24 A                  
  1.131   1.235   1.253   1.266   1.294   1.601   1.729   1.751
 25 A    26 A    27 A    28 A    29 A    30 A    31 A    32 A                  
  1.819   1.859   1.867   1.921   1.976   1.979   2.223   2.258
 33 A    34 A    35 A    36 A    37 A    38 A    39 A    40 A                  
  2.375   2.454   2.508   2.636   2.721   2.823   3.139   3.401
 41 A    42 A    43 A    44 A    45 A    46 A    47 A    48 A                  
  Import AO data ...  CPU 0.00 s  wall 0.00 s
  Using point group: C1
  Irreducible representations in point group: A
  Molecular orbitals: 
  Occupied MOs:
  Block   0:   1 (  A) A   2 (  A) A   3 (  A) A   4 (  A) A   5 (  A) A
                  -11.24      -11.23      -1.032     -0.7901      -0.641
               6 (  A) A   7 (  A) A   8 (  A) A
                 -0.5823     -0.5045      -0.374
  Block   1:   1 (  A) B   2 (  A) B   3 (  A) B   4 (  A) B   5 (  A) B
                  -11.24      -11.23      -1.032     -0.7901      -0.641
               6 (  A) B   7 (  A) B   8 (  A) B
                 -0.5823     -0.5045      -0.374
  Virtual MOs:
  Block   0:   9 (  A) A  10 (  A) A  11 (  A) A  12 (  A) A  13 (  A) A
                  0.1684      0.2037      0.2331      0.2393      0.3033
              14 (  A) A  15 (  A) A  16 (  A) A  17 (  A) A  18 (  A) A
                  0.4623      0.5777      0.6146      0.6891      0.7092
              19 (  A) A  20 (  A) A  21 (  A) A  22 (  A) A
                  0.7846       0.808      0.8623       0.936
  Block   1:  23 (  A) A  24 (  A) A  25 (  A) A  26 (  A) A  27 (  A) A
                  0.9726        1.01       1.131       1.235       1.253
              28 (  A) A  29 (  A) A  30 (  A) A  31 (  A) A  32 (  A) A
                   1.266       1.294       1.601       1.729       1.751
              33 (  A) A  34 (  A) A  35 (  A) A  36 (  A) A
                   1.819       1.859       1.867       1.921
  Block   2:  37 (  A) A  38 (  A) A  39 (  A) A  40 (  A) A  41 (  A) A
                   1.976       1.979       2.223       2.258       2.375
              42 (  A) A  43 (  A) A  44 (  A) A  45 (  A) A  46 (  A) A
                   2.454       2.508       2.636       2.721       2.823
              47 (  A) A  48 (  A) A
                   3.139       3.401
  Block   3:   9 (  A) B  10 (  A) B  11 (  A) B  12 (  A) B  13 (  A) B
                  0.1684      0.2037      0.2331      0.2393      0.3033
              14 (  A) B  15 (  A) B  16 (  A) B  17 (  A) B  18 (  A) B
                  0.4623      0.5777      0.6146      0.6891      0.7092
              19 (  A) B  20 (  A) B  21 (  A) B  22 (  A) B
                  0.7846       0.808      0.8623       0.936
  Block   4:  23 (  A) B  24 (  A) B  25 (  A) B  26 (  A) B  27 (  A) B
                  0.9726        1.01       1.131       1.235       1.253
              28 (  A) B  29 (  A) B  30 (  A) B  31 (  A) B  32 (  A) B
                   1.266       1.294       1.601       1.729       1.751
              33 (  A) B  34 (  A) B  35 (  A) B  36 (  A) B
                   1.819       1.859       1.867       1.921
  Block   5:  37 (  A) B  38 (  A) B  39 (  A) B  40 (  A) B  41 (  A) B
                   1.976       1.979       2.223       2.258       2.375
              42 (  A) B  43 (  A) B  44 (  A) B  45 (  A) B  46 (  A) B
                   2.454       2.508       2.636       2.721       2.823
              47 (  A) B  48 (  A) B
                   3.139       3.401
  Import MO data ...  CPU 0.06 s  wall 0.02 s
  Import HF data ...  CPU 1.00 s  wall 0.37 s
  Import 2e integrals ...  CPU 0.66 s  wall 0.18 s

--------------------------------------------------------------------------------
                                   HF Summary                                   
--------------------------------------------------------------------------------
  Energy:                                                  -78.0399375547 a.u.
  Dip. moment [a.u.]:                  [  -0.000330,    0.000189,    0.000386]
  Total dipole [Debye]:                                               0.001378
  <r^2> [a.u.]:                        [ 175.277454,   34.913828,   11.624770]
  Total <r^2> [a.u.]:                                               221.816052
--------------------------------------------------------------------------------
  HF properties ...  CPU 0.02 s  wall 0.08 s
  MP(1) calculation ...  CPU 0.01 s  wall 0.06 s
  N^6 prerequesite intermediates ...  CPU 0.37 s  wall 0.21 s
  Difference density matrix of state mp2_gs printed to ASCII file 'State_mp2_gs_Difference.txt'
Exporting MP density matrix to file 'Densmat_MP.txt'.
Export successful
  Total density matrix of state mp2_gs printed to ASCII file 'State_mp2_gs_Total.txt'
Exporting MP density matrix to file 'Densmat_MP.txt'.
Export successful

--------------------------------------------------------------------------------
                                 MP(2) Summary                                  
--------------------------------------------------------------------------------
  MP energy contribution:                                   -0.2796849349 a.u.
  Total energy:                                            -78.3196224896 a.u.
  Dip. moment [a.u.]:                  [  -0.000293,    0.000179,    0.000382]
  Total dipole [Debye]:                                               0.001304
  <r^2> [a.u.]:                        [ 175.324099,   34.954729,   11.456697]
  Total <r^2> [a.u.]:                                               221.735526

  Density matrix analysis:
  ------------------------
  NOs
    Occupation of frontier NOs:
       0.0453   1.9383
    Number of electrons: 16.000000
    Number of unpaired electrons: n_u =  0.40335, n_u,nl =  0.04507
    NO participation ratio (PR_NO): 13.856556
  
  
  Mulliken Population Analysis
  Atom      Charge (e)              h+              e-           Del q
  --------------------------------------------------------------------
   1 H        0.050749        0.014061       -0.011193        0.002868
   2 C       -0.100563        0.093091       -0.098839       -0.005748
   3 H        0.050277        0.014100       -0.011186        0.002914
   4 C       -0.101300        0.093033       -0.098885       -0.005852
   5 H        0.050229        0.014114       -0.011184        0.002930
   6 H        0.050608        0.014080       -0.011192        0.002888
  --------------------------------------------------------------------
  Sum:        0.000000        0.242479       -0.242479       -0.000000
  
  Multipole moment analysis of the density matrix
    Molecular charge:                      0.000000
    Number of electrons:                   16.000000
      Center of electronic charge [Ang]: [ -1.560254,  -0.065608,   0.001966]
    Total nuclear charge:                  16.000000
      Center of nuclear charge [Ang]:    [ -1.560264,  -0.065602,   0.001978]
    Dipole moment [D]:                     0.001304
      Cartesian components [D]:          [ -0.000744,   0.000454,   0.000971]
    RMS size of the density [Ang]:         1.200860
      Cartesian components [Ang]:        [  0.796299,   0.779401,   0.447782]
  
  Exciton analysis of the difference density matrix
    <r_h> [Ang]:                  [ -1.560198,  -0.065597,   0.001906]
    <r_e> [Ang]:                  [ -1.560280,  -0.065573,   0.001915]
    |<r_e - r_h>| [Ang]:            0.000086
    Hole size [Ang]:                1.393684
      Cartesian components [Ang]: [  0.846845,   0.833958,   0.727822]
    Electron size [Ang]:            1.359818
      Cartesian components [Ang]: [  0.877928,   0.861815,   0.579331]
--------------------------------------------------------------------------------
  MP(2) calculation ...  CPU 0.20 s  wall 0.16 s
  Start ADC(2)-s ...  CPU 0.01 s  wall 0.01 s
  ADC(2) intermediates ...  CPU 0.02 s  wall 0.01 s
  Starting Davidson for singlet states of irrep A ... 
--------------------------------------------------------------------------------
   It NVec Conv  Avg. Norm  Max. Norm  Conv. states           Remark
--------------------------------------------------------------------------------
        10    0  1.330e-01  4.689e-01  0.4120 n n n n n n n n Guess.
    1   20    0  2.302e-02  1.110e-01  0.3262 n n n n n n n n 
    2   30    0  5.817e-03  2.484e-02  0.3215 n n n n n n n n 
    3   40    0  1.888e-03  1.197e-02  0.3211 n n n n n n n n 
    4   50    0  6.046e-04  4.409e-03  0.3211 n n n n n n n n 
    5   20    0  2.754e-04  2.037e-03  0.3211 n n n n n n n n Subspace collapsed.
    6   30    0  1.568e-04  1.345e-03  0.3211 n n n n n n n n 
    7   40    0  8.693e-05  6.254e-04  0.3211 n n n n n n n n 
    8   50    0  8.209e-05  7.548e-04  0.3211 n n n n n n n n 
    9   20    2  4.559e-05  4.100e-04  0.3211 n y n y n n n n Subspace collapsed.
   10   30    4  6.129e-05  5.852e-04  0.3211 n y y y y n n n 
   11   40    5  6.422e-05  6.373e-04  0.3211 n y y y y y n n 
   12   50    6  5.609e-05  5.599e-04  0.3211 y y y y y y n n 
   13   20    6  2.741e-05  2.736e-04  0.3211 y y y y y y n n Subspace collapsed.
   14   30    6  1.854e-05  1.849e-04  0.3211 y y y y y y n n 
   15   40    6  9.527e-06  9.455e-05  0.3211 y y y y y y n n 
   16   50    6  1.381e-05  1.380e-04  0.3211 y y y y y y n n 
   17   20    7  6.986e-06  6.982e-05  0.3211 y y y y y y n y Subspace collapsed.
   18   30    7  1.092e-05  1.092e-04  0.3211 y y y y y y n y 
   19   40    7  1.062e-05  1.062e-04  0.3211 y y y y y y n y 
   20   50    9  1.189e-05  1.188e-04  0.3211 y y y y y y y y 
   21   20    9  4.946e-06  4.946e-05  0.3211 y y y y y y y y Subspace collapsed.
   22   30    9  5.155e-06  5.155e-05  0.3211 y y y y y y y y 
   23   32    9  5.189e-06  5.189e-05  0.3211 y y y y y y y y 
   24   33    9  4.885e-06  4.885e-05  0.3211 y y y y y y y y 
   25   34    9  4.936e-06  4.935e-05  0.3211 y y y y y y y y 
   26   35    9  4.948e-06  4.947e-05  0.3211 y y y y y y y y 
   27   35    9  4.948e-06  4.947e-05  0.3211 y y y y y y y y 
   28   45    9  2.724e-06  2.724e-05  0.3211 y y y y y y y y 
   29   50    9  2.692e-06  2.692e-05  0.3211 y y y y y y y y 
   30   16    9  2.328e-06  2.328e-05  0.3211 y y y y y y y y Subspace collapsed.
   31   21    9  2.837e-06  2.837e-05  0.3211 y y y y y y y y 
   32   26    9  2.569e-06  2.569e-05  0.3211 y y y y y y y y 
   33   30    9  2.529e-06  2.529e-05  0.3211 y y y y y y y y 
   34   34    9  1.924e-06  1.924e-05  0.3211 y y y y y y y y 
   35   38    9  1.223e-06  1.223e-05  0.3211 y y y y y y y y 
   36   42    9  6.507e-07  6.507e-06  0.3211 y y y y y y y y 
   37   46    9  3.127e-07  3.127e-06  0.3211 y y y y y y y y 
   38   50    9  2.012e-07  2.012e-06  0.3211 y y y y y y y y 
   39   14   10  8.709e-08  8.709e-07  0.3211 y y y y y y y y Converged.
--------------------------------------------------------------------------------
  Davidson Summary: 
 ------------------------------------------------------------
  State  0: excitation energy =   0.3211 a.u.   (converged)
  State  1: excitation energy =   0.3327 a.u.   (converged)
  State  2: excitation energy =   0.3372 a.u.   (converged)
  State  3: excitation energy =   0.3614 a.u.   (converged)
  State  4: excitation energy =   0.3754 a.u.   (converged)
  State  5: excitation energy =   0.3873 a.u.   (converged)
  State  6: excitation energy =   0.4248 a.u.   (converged)
  State  7: excitation energy =   0.4470 a.u.   (converged)
  State  8: excitation energy =   0.4562 a.u.   (converged)
  State  9: excitation energy =   0.4647 a.u.   (converged)
 ------------------------------------------------------------

  Singlet states of irrep A ...  CPU 94.36 s  wall 30.59 s
  TDMs ...  CPU 1.26 s  wall 0.41 s
  SDMs ...  CPU 3.42 s  wall 0.81 s
  Starting TPA DIIS iterations ... 
------------------------------------ 
   It     Res. Norm  Remark
------------------------------------
                       Guess.
    1     4.406e+00  
    2     5.842e+00  
    3     1.078e+00  
    4     2.568e-01  
    5     6.573e-02  
    6     2.678e-02  
    7     8.248e-03  
    8     1.442e-03  
    9     5.344e-04  
   10     9.009e-05  
   11     2.823e-05  
   12     4.383e-06  
   13     1.413e-06  
   14     4.294e-07  Converged.
   ... Converged in 14 steps (norm: 4.29447e-07)
------------------------------------
  Starting TPA DIIS iterations ... 
------------------------------------ 
   It     Res. Norm  Remark
------------------------------------
                       Guess.
    1     4.186e+00  
    2     5.543e+00  
    3     1.029e+00  
    4     2.552e-01  
    5     6.532e-02  
    6     2.671e-02  
    7     8.116e-03  
    8     1.452e-03  
    9     5.370e-04  
   10     8.976e-05  
   11     2.833e-05  
   12     4.334e-06  
   13     1.423e-06  
   14     4.233e-07  Converged.
   ... Converged in 14 steps (norm: 4.2329e-07)
------------------------------------
  Starting TPA DIIS iterations ... 
------------------------------------ 
   It     Res. Norm  Remark
------------------------------------
                       Guess.
    1     6.873e-01  
    2     4.828e-01  
    3     1.705e-01  
    4     5.978e-02  
    5     1.831e-02  
    6     6.629e-03  
    7     1.033e-03  
    8     4.466e-04  
    9     1.232e-04  
   10     3.018e-05  
   11     4.840e-06  
   12     1.508e-06  
   13     7.481e-07  Converged.
   ... Converged in 13 steps (norm: 7.48077e-07)
------------------------------------
  Starting TPA DIIS iterations ... 
------------------------------------ 
   It     Res. Norm  Remark
------------------------------------
                       Guess.
    1     4.691e+00  
    2     6.355e+00  
    3     1.158e+00  
    4     2.852e-01  
    5     7.400e-02  
    6     3.040e-02  
    7     9.347e-03  
    8     1.631e-03  
    9     6.091e-04  
   10     1.033e-04  
   11     3.268e-05  
   12     5.116e-06  
   13     1.661e-06  
   14     5.045e-07  Converged.
   ... Converged in 14 steps (norm: 5.04507e-07)
------------------------------------
  Starting TPA DIIS iterations ... 
------------------------------------ 
   It     Res. Norm  Remark
------------------------------------
                       Guess.
    1     4.456e+00  
    2     6.029e+00  
    3     1.105e+00  
    4     2.832e-01  
    5     7.355e-02  
    6     3.034e-02  
    7     9.199e-03  
    8     1.644e-03  
    9     6.122e-04  
   10     1.029e-04  
   11     3.278e-05  
   12     5.056e-06  
   13     1.672e-06  
   14     4.973e-07  Converged.
   ... Converged in 14 steps (norm: 4.97334e-07)
------------------------------------
  Starting TPA DIIS iterations ... 
------------------------------------ 
   It     Res. Norm  Remark
------------------------------------
                       Guess.
    1     6.992e-01  
    2     5.001e-01  
    3     1.803e-01  
    4     6.757e-02  
    5     1.972e-02  
    6     7.240e-03  
    7     1.165e-03  
    8     5.259e-04  
    9     1.489e-04  
   10     3.463e-05  
   11     5.462e-06  
   12     1.772e-06  
   13     9.361e-07  Converged.
   ... Converged in 13 steps (norm: 9.36146e-07)
------------------------------------
  Starting TPA DIIS iterations ... 
------------------------------------ 
   It     Res. Norm  Remark
------------------------------------
                       Guess.
    1     4.811e+00  
    2     6.573e+00  
    3     1.192e+00  
    4     2.975e-01  
    5     7.757e-02  
    6     3.198e-02  
    7     9.823e-03  
    8     1.713e-03  
    9     6.416e-04  
   10     1.090e-04  
   11     3.464e-05  
   12     5.439e-06  
   13     1.771e-06  
   14     5.377e-07  Converged.
   ... Converged in 14 steps (norm: 5.37709e-07)
------------------------------------
  Starting TPA DIIS iterations ... 
------------------------------------ 
   It     Res. Norm  Remark
------------------------------------
                       Guess.
    1     4.570e+00  
    2     6.235e+00  
    3     1.138e+00  
    4     2.953e-01  
    5     7.712e-02  
    6     3.193e-02  
    7     9.669e-03  
    8     1.727e-03  
    9     6.449e-04  
   10     1.086e-04  
   11     3.474e-05  
   12     5.373e-06  
   13     1.783e-06  
   14     5.301e-07  Converged.
   ... Converged in 14 steps (norm: 5.3014e-07)
------------------------------------
  Starting TPA DIIS iterations ... 
------------------------------------ 
   It     Res. Norm  Remark
------------------------------------
                       Guess.
    1     7.040e-01  
    2     5.071e-01  
    3     1.844e-01  
    4     7.100e-02  
    5     2.030e-02  
    6     7.504e-03  
    7     1.224e-03  
    8     5.614e-04  
    9     1.604e-04  
   10     3.620e-05  
   11     5.724e-06  
   12     1.890e-06  
   13     1.024e-06  
   14     3.459e-07  Converged.
   ... Converged in 14 steps (norm: 3.45871e-07)
------------------------------------
  Starting TPA DIIS iterations ... 
------------------------------------ 
   It     Res. Norm  Remark
------------------------------------
                       Guess.
    1     5.549e+00  
    2     7.950e+00  
    3     1.399e+00  
    4     3.775e-01  
    5     1.009e-01  
    6     4.234e-02  
    7     1.292e-02  
    8     2.244e-03  
    9     8.551e-04  
   10     1.467e-04  
   11     4.778e-05  
   12     7.608e-06  
   13     2.528e-06  
   14     7.637e-07  Converged.
   ... Converged in 14 steps (norm: 7.63702e-07)
------------------------------------
  Starting TPA DIIS iterations ... 
------------------------------------ 
   It     Res. Norm  Remark
------------------------------------
                       Guess.
    1     5.269e+00  
    2     7.541e+00  
    3     1.334e+00  
    4     3.739e-01  
    5     1.003e-01  
    6     4.234e-02  
    7     1.273e-02  
    8     2.266e-03  
    9     8.595e-04  
   10     1.463e-04  
   11     4.783e-05  
   12     7.508e-06  
   13     2.541e-06  
   14     7.545e-07  Converged.
   ... Converged in 14 steps (norm: 7.54461e-07)
------------------------------------
  Starting TPA DIIS iterations ... 
------------------------------------ 
   It     Res. Norm  Remark
------------------------------------
                       Guess.
    1     7.307e-01  
    2     5.483e-01  
    3     2.087e-01  
    4     9.403e-02  
    5     2.383e-02  
    6     9.231e-03  
    7     1.620e-03  
    8     7.984e-04  
    9     2.357e-04  
   10     4.193e-05  
   11     7.364e-06  
   12     2.713e-06  
   13     1.688e-06  
   14     5.009e-07  Converged.
   ... Converged in 14 steps (norm: 5.00913e-07)
------------------------------------
  Starting TPA DIIS iterations ... 
------------------------------------ 
   It     Res. Norm  Remark
------------------------------------
                       Guess.
    1     6.063e+00  
    2     8.941e+00  
    3     1.542e+00  
    4     4.373e-01  
    5     1.183e-01  
    6     5.019e-02  
    7     1.524e-02  
    8     2.640e-03  
    9     1.017e-03  
   10     1.753e-04  
   11     5.794e-05  
   12     9.284e-06  
   13     3.129e-06  
   14     9.437e-07  Converged.
   ... Converged in 14 steps (norm: 9.43703e-07)
------------------------------------
  Starting TPA DIIS iterations ... 
------------------------------------ 
   It     Res. Norm  Remark
------------------------------------
                       Guess.
    1     5.755e+00  
    2     8.480e+00  
    3     1.470e+00  
    4     4.326e-01  
    5     1.177e-01  
    6     5.023e-02  
    7     1.502e-02  
    8     2.668e-03  
    9     1.022e-03  
   10     1.748e-04  
   11     5.793e-05  
   12     9.156e-06  
   13     3.140e-06  
   14     9.345e-07  Converged.
   ... Converged in 14 steps (norm: 9.34534e-07)
------------------------------------
  Starting TPA DIIS iterations ... 
------------------------------------ 
   It     Res. Norm  Remark
------------------------------------
                       Guess.
    1     7.471e-01  
    2     5.751e-01  
    3     2.251e-01  
    4     1.119e-01  
    5     2.632e-02  
    6     1.053e-02  
    7     1.932e-03  
    8     9.709e-04  
    9     2.895e-04  
   10     4.311e-05  
   11     8.567e-06  
   12     3.372e-06  
   13     2.267e-06  
   14     6.196e-07  Converged.
   ... Converged in 14 steps (norm: 6.19567e-07)
------------------------------------
  Starting TPA DIIS iterations ... 
------------------------------------ 
   It     Res. Norm  Remark
------------------------------------
                       Guess.
    1     6.564e+00  
    2     9.932e+00  
    3     1.681e+00  
    4     4.986e-01  
    5     1.361e-01  
    6     5.830e-02  
    7     1.762e-02  
    8     3.045e-03  
    9     1.183e-03  
   10     2.048e-04  
   11     6.854e-05  
   12     1.103e-05  
   13     3.766e-06  
   14     1.138e-06  
   15     3.989e-07  Converged.
   ... Converged in 15 steps (norm: 3.98911e-07)
------------------------------------
  Starting TPA DIIS iterations ... 
------------------------------------ 
   It     Res. Norm  Remark
------------------------------------
                       Guess.
    1     6.229e+00  
    2     9.420e+00  
    3     1.602e+00  
    4     4.928e-01  
    5     1.354e-01  
    6     5.839e-02  
    7     1.736e-02  
    8     3.078e-03  
    9     1.189e-03  
   10     2.042e-04  
   11     6.844e-05  
   12     1.088e-05  
   13     3.774e-06  
   14     1.131e-06  
   15     3.602e-07  Converged.
   ... Converged in 15 steps (norm: 3.60203e-07)
------------------------------------
  Starting TPA DIIS iterations ... 
------------------------------------ 
   It     Res. Norm  Remark
------------------------------------
                       Guess.
    1     7.617e-01  
    2     5.999e-01  
    3     2.406e-01  
    4     1.306e-01  
    5     2.881e-02  
    6     1.187e-02  
    7     2.266e-03  
    8     1.134e-03  
    9     3.409e-04  
   10     4.349e-05  
   11     9.813e-06  
   12     4.075e-06  
   13     2.918e-06  
   14     7.422e-07  Converged.
   ... Converged in 14 steps (norm: 7.42186e-07)
------------------------------------
  Starting TPA DIIS iterations ... 
------------------------------------ 
   It     Res. Norm  Remark
------------------------------------
                       Guess.
    1     8.672e+00  
    2     1.435e+01  
    3     2.254e+00  
    4     7.843e-01  
    5     2.193e-01  
    6     9.691e-02  
    7     2.872e-02  
    8     4.920e-03  
    9     1.974e-03  
   10     3.444e-04  
   11     1.186e-04  
   12     1.937e-05  
   13     6.842e-06  
   14     2.190e-06  
   15     8.020e-07  Converged.
   ... Converged in 15 steps (norm: 8.01952e-07)
------------------------------------
  Starting TPA DIIS iterations ... 
------------------------------------ 
   It     Res. Norm  Remark
------------------------------------
                       Guess.
    1     8.227e+00  
    2     1.361e+01  
    3     2.147e+00  
    4     7.720e-01  
    5     2.184e-01  
    6     9.730e-02  
    7     2.832e-02  
    8     4.983e-03  
    9     1.982e-03  
   10     3.431e-04  
   11     1.180e-04  
   12     1.911e-05  
   13     6.799e-06  
   14     2.209e-06  
   15     6.739e-07  Converged.
   ... Converged in 15 steps (norm: 6.73899e-07)
------------------------------------
  Starting TPA DIIS iterations ... 
------------------------------------ 
   It     Res. Norm  Remark
------------------------------------
                       Guess.
    1     8.117e-01  
    2     6.934e-01  
    3     3.022e-01  
    4     2.192e-01  
    5     4.013e-02  
    6     1.808e-02  
    7     3.929e-03  
    8     1.653e-03  
    9     5.383e-04  
   10     5.140e-05  
   11     1.593e-05  
   12     7.549e-06  
   13     6.447e-06  
   14     1.316e-06  
   15     4.785e-07  Converged.
   ... Converged in 15 steps (norm: 4.78468e-07)
------------------------------------
  Starting TPA DIIS iterations ... 
------------------------------------ 
   It     Res. Norm  Remark
------------------------------------
                       Guess.
    1     1.048e+01  
    2     1.842e+01  
    3     2.734e+00  
    4     1.057e+00  
    5     2.996e-01  
    6     1.350e-01  
    7     3.942e-02  
    8     6.716e-03  
    9     2.750e-03  
   10     4.801e-04  
   11     1.656e-04  
   12     2.757e-05  
   13     9.788e-06  
   14     3.419e-06  
   15     1.292e-06  
   16     5.102e-07  Converged.
   ... Converged in 16 steps (norm: 5.10237e-07)
------------------------------------
  Starting TPA DIIS iterations ... 
------------------------------------ 
   It     Res. Norm  Remark
------------------------------------
                       Guess.
    1     9.943e+00  
    2     1.746e+01  
    3     2.603e+00  
    4     1.038e+00  
    5     2.985e-01  
    6     1.358e-01  
    7     3.887e-02  
    8     6.806e-03  
    9     2.760e-03  
   10     4.782e-04  
   11     1.645e-04  
   12     2.732e-05  
   13     9.658e-06  
   14     3.491e-06  
   15     1.036e-06  
   16     6.013e-07  Converged.
   ... Converged in 16 steps (norm: 6.01278e-07)
------------------------------------
  Starting TPA DIIS iterations ... 
------------------------------------ 
   It     Res. Norm  Remark
------------------------------------
                       Guess.
    1     8.449e-01  
    2     7.638e-01  
    3     3.511e-01  
    4     3.005e-01  
    5     5.072e-02  
    6     2.371e-02  
    7     5.595e-03  
    8     1.865e-03  
    9     6.886e-04  
   10     6.851e-05  
   11     2.220e-05  
   12     1.104e-05  
   13     1.035e-05  
   14     1.881e-06  
   15     6.660e-07  Converged.
   ... Converged in 15 steps (norm: 6.65981e-07)
------------------------------------
  Starting TPA DIIS iterations ... 
------------------------------------ 
   It     Res. Norm  Remark
------------------------------------
                       Guess.
    1     1.142e+01  
    2     2.062e+01  
    3     2.979e+00  
    4     1.206e+00  
    5     3.439e-01  
    6     1.563e-01  
    7     4.532e-02  
    8     7.705e-03  
    9     3.183e-03  
   10     5.553e-04  
   11     1.908e-04  
   12     3.220e-05  
   13     1.144e-05  
   14     4.177e-06  
   15     1.628e-06  
   16     6.675e-07  Converged.
   ... Converged in 16 steps (norm: 6.67493e-07)
------------------------------------
  Starting TPA DIIS iterations ... 
------------------------------------ 
   It     Res. Norm  Remark
------------------------------------
                       Guess.
    1     1.083e+01  
    2     1.955e+01  
    3     2.835e+00  
    4     1.183e+00  
    5     3.427e-01  
    6     1.573e-01  
    7     4.470e-02  
    8     7.809e-03  
    9     3.193e-03  
   10     5.530e-04  
   11     1.894e-04  
   12     3.200e-05  
   13     1.124e-05  
   14     4.286e-06  
   15     1.293e-06  
   16     8.081e-07  Converged.
   ... Converged in 16 steps (norm: 8.08125e-07)
------------------------------------
  Starting TPA DIIS iterations ... 
------------------------------------ 
   It     Res. Norm  Remark
------------------------------------
                       Guess.
    1     8.598e-01  
    2     7.977e-01  
    3     3.752e-01  
    4     3.417e-01  
    5     5.644e-02  
    6     2.659e-02  
    7     6.510e-03  
    8     1.923e-03  
    9     7.623e-04  
   10     7.908e-05  
   11     2.579e-05  
   12     1.304e-05  
   13     1.267e-05  
   14     2.219e-06  
   15     8.003e-07  Converged.
   ... Converged in 15 steps (norm: 8.00279e-07)
------------------------------------
  Starting TPA DIIS iterations ... 
------------------------------------ 
   It     Res. Norm  Remark
------------------------------------
                       Guess.
    1     1.241e+01  
    2     2.299e+01  
    3     3.231e+00  
    4     1.367e+00  
    5     3.919e-01  
    6     1.796e-01  
    7     5.172e-02  
    8     8.775e-03  
    9     3.655e-03  
   10     6.368e-04  
   11     2.176e-04  
   12     3.735e-05  
   13     1.330e-05  
   14     5.057e-06  
   15     2.056e-06  
   16     8.615e-07  Converged.
   ... Converged in 16 steps (norm: 8.61467e-07)
------------------------------------
  Starting TPA DIIS iterations ... 
------------------------------------ 
   It     Res. Norm  Remark
------------------------------------
                       Guess.
    1     1.176e+01  
    2     2.180e+01  
    3     3.075e+00  
    4     1.338e+00  
    5     3.906e-01  
    6     1.809e-01  
    7     5.102e-02  
    8     8.895e-03  
    9     3.666e-03  
   10     6.340e-04  
   11     2.161e-04  
   12     3.722e-05  
   13     1.302e-05  
   14     5.210e-06  
   15     1.634e-06  
   16     1.070e-06  
   17     5.307e-07  Converged.
   ... Converged in 17 steps (norm: 5.30677e-07)
------------------------------------
  Starting TPA DIIS iterations ... 
------------------------------------ 
   It     Res. Norm  Remark
------------------------------------
                       Guess.
    1     8.740e-01  
    2     8.316e-01  
    3     3.997e-01  
    4     3.829e-01  
    5     6.254e-02  
    6     2.950e-02  
    7     7.489e-03  
    8     1.967e-03  
    9     8.372e-04  
   10     9.061e-05  
   11     2.980e-05  
   12     1.533e-05  
   13     1.534e-05  
   14     2.628e-06  
   15     9.997e-07  Converged.
   ... Converged in 15 steps (norm: 9.99704e-07)
------------------------------------
  Two-photon absorbption ...  CPU 85.49 s  wall 21.22 s
  Transition density matrix of state singlet_A_1 printed to ASCII file 'State_singlet_A_1_Transition.txt'
  Transition density matrix of state singlet_A_2 printed to ASCII file 'State_singlet_A_2_Transition.txt'
  Transition density matrix of state singlet_A_3 printed to ASCII file 'State_singlet_A_3_Transition.txt'
  Transition density matrix of state singlet_A_4 printed to ASCII file 'State_singlet_A_4_Transition.txt'
  Transition density matrix of state singlet_A_5 printed to ASCII file 'State_singlet_A_5_Transition.txt'
  Transition density matrix of state singlet_A_6 printed to ASCII file 'State_singlet_A_6_Transition.txt'
  Transition density matrix of state singlet_A_7 printed to ASCII file 'State_singlet_A_7_Transition.txt'
  Transition density matrix of state singlet_A_8 printed to ASCII file 'State_singlet_A_8_Transition.txt'
  Transition density matrix of state singlet_A_9 printed to ASCII file 'State_singlet_A_9_Transition.txt'
  Transition density matrix of state singlet_A_10 printed to ASCII file 'State_singlet_A_10_Transition.txt'
  Transition properties ...  CPU 0.13 s  wall 0.37 s
  Difference density matrix of state singlet_A_1 printed to ASCII file 'State_singlet_A_1_Difference.txt'
  Total density matrix of state singlet_A_1 printed to ASCII file 'State_singlet_A_1_Total.txt'
  Difference density matrix of state singlet_A_2 printed to ASCII file 'State_singlet_A_2_Difference.txt'
  Total density matrix of state singlet_A_2 printed to ASCII file 'State_singlet_A_2_Total.txt'
  Difference density matrix of state singlet_A_3 printed to ASCII file 'State_singlet_A_3_Difference.txt'
  Total density matrix of state singlet_A_3 printed to ASCII file 'State_singlet_A_3_Total.txt'
  Difference density matrix of state singlet_A_4 printed to ASCII file 'State_singlet_A_4_Difference.txt'
  Total density matrix of state singlet_A_4 printed to ASCII file 'State_singlet_A_4_Total.txt'
  Difference density matrix of state singlet_A_5 printed to ASCII file 'State_singlet_A_5_Difference.txt'
  Total density matrix of state singlet_A_5 printed to ASCII file 'State_singlet_A_5_Total.txt'
  Difference density matrix of state singlet_A_6 printed to ASCII file 'State_singlet_A_6_Difference.txt'
  Total density matrix of state singlet_A_6 printed to ASCII file 'State_singlet_A_6_Total.txt'
  Difference density matrix of state singlet_A_7 printed to ASCII file 'State_singlet_A_7_Difference.txt'
  Total density matrix of state singlet_A_7 printed to ASCII file 'State_singlet_A_7_Total.txt'
  Difference density matrix of state singlet_A_8 printed to ASCII file 'State_singlet_A_8_Difference.txt'
  Total density matrix of state singlet_A_8 printed to ASCII file 'State_singlet_A_8_Total.txt'
  Difference density matrix of state singlet_A_9 printed to ASCII file 'State_singlet_A_9_Difference.txt'
  Total density matrix of state singlet_A_9 printed to ASCII file 'State_singlet_A_9_Total.txt'
  Difference density matrix of state singlet_A_10 printed to ASCII file 'State_singlet_A_10_Difference.txt'
  Total density matrix of state singlet_A_10 printed to ASCII file 'State_singlet_A_10_Total.txt'
  Properties ...  CPU 0.43 s  wall 0.61 s
  ISR TDMS ...  CPU 15.83 s  wall 4.37 s
  ISR transition properties ...  CPU 0.52 s  wall 0.15 s
  Sum-over-states TPA ...  CPU 0.00 s  wall 0.00 s

--------------------------------------------------------------------------------
                   State-averaged natural transition orbitals
--------------------------------------------------------------------------------
--------------------------------------------------------------------------------
  SA-NTO decomposition ...  CPU 0.01 s  wall 0.02 s

--------------------------------------------------------------------------------
                             Excited State Summary
--------------------------------------------------------------------------------
--------------------------------------------------------------------------------

  Excited state 1 (singlet, A)                                     [converged]
  ----------------------------------------------------------------------------
  Term symbol:  2 (1) A                                     R^2 =  8.58750e-14

  Total energy:                                            -77.9985526561 a.u.
  Excitation energy:                                               8.736754 eV

  Osc. strength:                                                      0.445592
  Trans. dip. moment [a.u.]:           [   1.046031,   -0.993724,   -0.009202]
  <i|r^2|0> [a.u.]:                    [   6.167786,   -0.246359,   -0.000176]
  Two-photon absorption cross-section (SoS) [a.u.]:                   0.000091
  Two-photon absorption matrix (SoS) [a.u.]:
                                       |    0.001584    0.000086   -0.000281 |
                                       |    0.000086    0.002286    0.000273 |
                                       |   -0.000281    0.000273    0.001252 |
  Two-photon absorption cross-section [a.u.]:                         0.000054
  Two-photon absorption matrix [a.u.]:
                                       |   -0.001795   -0.000860    0.000272 |
                                       |   -0.000860   -0.001016    0.001563 |
                                       |    0.000272    0.001563    0.000902 |

  Dip. moment [a.u.]:                  [  -0.000226,    0.000127,    0.000475]
  Total dipole [Debye]:                                               0.001374
  <r^2> [a.u.]:                        [ 176.077980,   35.644887,   11.866751]
  Total <r^2> [a.u.]:                                               223.589618

  V1^2 = 0.9715, V2^2 = 0.0285

  Important amplitudes:
      occ i     occ j     vir a      vir b          v   
    -----------------------------------------------------
     8 (A) A              9 (A) A                 0.6811
     6 (A) A             14 (A) A                 0.0623
     4 (A) A             10 (A) A                 0.0606
     7 (A) A             16 (A) A                 0.0571
     5 (A) A             13 (A) A                -0.0513
     6 (A) A             23 (A) A                 0.0485
     8 (A) A             20 (A) A                 0.0349
     6 (A) A             19 (A) A                 0.0309
     3 (A) A             12 (A) A                -0.0281
     5 (A) A             22 (A) A                -0.0215
     7 (A) A             11 (A) A                 0.0207
     4 (A) A             24 (A) A                 0.0187
     3 (A) A             26 (A) A                -0.0185
     8 (A) A   8 (A) B   17 (A) A   20 (A) B     -0.0184
     8 (A) A   8 (A) B    9 (A) A   28 (A) B     -0.0168
     6 (A) A             26 (A) A                 0.0164
     7 (A) A             21 (A) A                 0.0147
     3 (A) A             14 (A) A                -0.0139
     6 (A) A             12 (A) A                -0.0131
     3 (A) A   4 (A) B    9 (A) A    9 (A) B     -0.0129
     3 (A) A             19 (A) A                -0.0119
     8 (A) A   8 (A) B   18 (A) A   19 (A) B      0.0113
     7 (A) A             32 (A) A                 0.0096
     7 (A) A             36 (A) A                 0.0086
     3 (A) A             23 (A) A                -0.0080
     8 (A) A   8 (A) B   25 (A) A   29 (A) B      0.0076
     6 (A) A             35 (A) A                 0.0073
     6 (A) A             40 (A) A                 0.0068
     3 (A) A   6 (A) B    9 (A) A   28 (A) B      0.0065
     6 (A) A   8 (A) A   19 (A) A   28 (A) A      0.0061
     5 (A) A   7 (A) B    9 (A) A    9 (A) B     -0.0060
     5 (A) A   8 (A) B   11 (A) A   20 (A) B     -0.0059
     7 (A) A   8 (A) B   13 (A) A   20 (A) B      0.0059
     5 (A) A   8 (A) B   16 (A) A    9 (A) B     -0.0059
     5 (A) A   8 (A) B   11 (A) A    9 (A) B      0.0059
     3 (A) A   5 (A) B    9 (A) A   25 (A) B     -0.0058
     3 (A) A             40 (A) A                -0.0057
     7 (A) A   8 (A) B   22 (A) A   20 (A) B      0.0057
     6 (A) A   8 (A) A    9 (A) A   18 (A) A      0.0057
     8 (A) A   8 (A) B   19 (A) A   30 (A) B      0.0056
    -----------------------------------------------------

  Density matrix analysis:
  ------------------------
  NOs
    Occupation of frontier NOs:
       0.9495   1.0217
    Number of electrons: 16.000000
    Number of unpaired electrons: n_u =  2.31333, n_u,nl =  2.03262
    NO participation ratio (PR_NO):  2.863599
  
  
  Mulliken Population Analysis
  Atom      Charge (e)              h+              e-           Del q
  --------------------------------------------------------------------
   1 H        0.058522        0.020301       -0.012529        0.007773
   2 C       -0.115922        0.490843       -0.506202       -0.015359
   3 H        0.057915        0.020204       -0.012566        0.007638
   4 C       -0.116825        0.490773       -0.506298       -0.015525
   5 H        0.057901        0.020221       -0.012550        0.007671
   6 H        0.058409        0.020314       -0.012514        0.007801
  --------------------------------------------------------------------
  Sum:        0.000000        1.062657       -1.062657       -0.000000
  
  Multipole moment analysis of the density matrix
    Molecular charge:                      0.000000
    Number of electrons:                   16.000000
      Center of electronic charge [Ang]: [ -1.560256,  -0.065607,   0.001962]
    Total nuclear charge:                  16.000000
      Center of nuclear charge [Ang]:    [ -1.560264,  -0.065602,   0.001978]
    Dipole moment [D]:                     0.001374
      Cartesian components [D]:          [ -0.000573,   0.000323,   0.001207]
    RMS size of the density [Ang]:         1.214294
      Cartesian components [Ang]:        [  0.804536,   0.787112,   0.455725]
  
  Exciton analysis of the difference density matrix
    <r_h> [Ang]:                  [ -1.560135,  -0.065739,   0.001769]
    <r_e> [Ang]:                  [ -1.560168,  -0.065713,   0.001723]
    |<r_e - r_h>| [Ang]:            0.000063
    Hole size [Ang]:                1.285446
      Cartesian components [Ang]: [  0.728524,   0.712621,   0.783452]
    Electron size [Ang]:            1.463167
      Cartesian components [Ang]: [  0.853993,   0.830482,   0.849619]

  Transition density matrix analysis:
  -----------------------------------
  
  CT numbers (Mulliken)
    omega =     0.9535
    <Phe> =    -0.1607
  
  Exciton analysis of the transition density matrix
    Trans. dipole moment [D]:             1.833651
      Cartesian components [D]:         [  1.329372,  -1.262898,  -0.011695]
    <r_h> [Ang]:                        [ -1.560068,  -0.065819,   0.001805]
    <r_e> [Ang]:                        [ -1.560174,  -0.065701,   0.001693]
    |<r_e - r_h>| [Ang]:                  0.000194
    Hole size [Ang]:                      1.214137
      Cartesian components [Ang]:       [  0.649606,   0.636400,   0.804447]
    Electron size [Ang]:                  1.486034
      Cartesian components [Ang]:       [  0.864455,   0.839377,   0.869748]
    RMS electron-hole separation [Ang]:   1.936780
      Cartesian components [Ang]:       [  1.106793,   1.075210,   1.170492]
    Covariance(r_h, r_e) [Ang^2]:        -0.034347
    Correlation coefficient:             -0.019037
    Center-of-mass size [Ang]:            0.950491
      Cartesian components [Ang]:       [  0.527624,   0.515519,   0.599404]

  Decomposition into state-averaged NTOs
    H- 0 -> L+ 0: -0.6699 ( 89.8%)
    H- 2 -> L+ 5:  0.0836 (  1.4%)
                   omega =  95.4%
  ----------------------------------------------------------------------------


  Excited state 2 (singlet, A)                                     [converged]
  ----------------------------------------------------------------------------
  Term symbol:  3 (1) A                                     R^2 =  2.11195e-13

  Total energy:                                            -77.9869700983 a.u.
  Excitation energy:                                               9.051932 eV

  Osc. strength:                                                      0.000002
  Trans. dip. moment [a.u.]:           [   0.002150,   -0.002330,   -0.000847]
  <i|r^2|0> [a.u.]:                    [  -0.052127,   -0.086250,    0.150480]
  Two-photon absorption cross-section (SoS) [a.u.]:                   4.840274
  Two-photon absorption matrix (SoS) [a.u.]:
                                       |   -0.052581   -0.058453    0.537917 |
                                       |   -0.058453   -0.064573    0.549494 |
                                       |    0.537917    0.549494    0.117068 |
  Two-photon absorption cross-section [a.u.]:                         0.077568
  Two-photon absorption matrix [a.u.]:
                                       |    0.002447    0.007122   -0.062962 |
                                       |    0.007122    0.012441   -0.074095 |
                                       |   -0.062962   -0.074095   -0.014874 |

  Dip. moment [a.u.]:                  [  -0.004707,    0.002706,    0.000819]
  Total dipole [Debye]:                                               0.013957
  <r^2> [a.u.]:                        [ 174.449376,   33.977809,   13.173244]
  Total <r^2> [a.u.]:                                               221.600430

  V1^2 = 0.9542, V2^2 = 0.0458

  Important amplitudes:
      occ i     occ j     vir a      vir b          v   
    -----------------------------------------------------
     7 (A) A              9 (A) A                 0.6694
     8 (A) A             11 (A) A                 0.1475
     7 (A) A             20 (A) A                 0.0759
     5 (A) A   8 (A) B    9 (A) A    9 (A) B     -0.0317
     8 (A) A             16 (A) A                -0.0273
     8 (A) A             21 (A) A                 0.0175
     5 (A) A             28 (A) A                -0.0151
     4 (A) A   7 (A) B    9 (A) A   19 (A) B      0.0135
     5 (A) A   7 (A) B    9 (A) A   16 (A) B      0.0134
     7 (A) A   8 (A) B   20 (A) A   17 (A) B     -0.0105
     7 (A) A   8 (A) A    9 (A) A   28 (A) A      0.0098
     5 (A) A   8 (A) B    9 (A) A   20 (A) B     -0.0096
     4 (A) A   6 (A) B    9 (A) A   16 (A) B      0.0091
     5 (A) A   6 (A) A    9 (A) A   23 (A) A      0.0091
     5 (A) A   6 (A) A    9 (A) A   14 (A) A      0.0089
     5 (A) A   6 (A) B    9 (A) A   19 (A) B      0.0087
     8 (A) A   7 (A) B    9 (A) A   28 (A) B     -0.0085
     4 (A) A   5 (A) A    9 (A) A   10 (A) A     -0.0084
     6 (A) A   7 (A) B    9 (A) A   18 (A) B      0.0083
     5 (A) A   6 (A) B    9 (A) A   23 (A) B      0.0080
     3 (A) A   7 (A) B    9 (A) A   18 (A) B      0.0080
     5 (A) A   7 (A) A    9 (A) A   16 (A) A      0.0079
     4 (A) A   8 (A) B    9 (A) A   25 (A) B     -0.0077
     7 (A) A   8 (A) B   17 (A) A   20 (A) B     -0.0074
     4 (A) A   7 (A) B   19 (A) A    9 (A) B      0.0074
     5 (A) A   5 (A) B    9 (A) A   13 (A) B     -0.0072
     7 (A) A   8 (A) B   19 (A) A   18 (A) B      0.0072
     5 (A) A   8 (A) A    9 (A) A   20 (A) A     -0.0069
     4 (A) A   5 (A) B    9 (A) A   18 (A) B      0.0068
     7 (A) A   7 (A) B   20 (A) A   22 (A) B      0.0065
     7 (A) A   8 (A) B   17 (A) A    9 (A) B     -0.0065
     5 (A) A   6 (A) B    9 (A) A   14 (A) B      0.0063
     4 (A) A   7 (A) A    9 (A) A   19 (A) A      0.0061
     4 (A) A   5 (A) B   10 (A) A    9 (A) B      0.0061
     5 (A) A             38 (A) A                -0.0061
     5 (A) A   7 (A) B   11 (A) A   20 (A) B     -0.0060
     4 (A) A   7 (A) B    9 (A) A   14 (A) B     -0.0060
     6 (A) A   7 (A) A   19 (A) A   28 (A) A      0.0057
     4 (A) A   8 (A) A    9 (A) A   25 (A) A     -0.0057
     5 (A) A   7 (A) A   11 (A) A   20 (A) A     -0.0053
    -----------------------------------------------------

  Density matrix analysis:
  ------------------------
  NOs
    Occupation of frontier NOs:
       0.9585   1.0532
    Number of electrons: 16.000000
    Number of unpaired electrons: n_u =  2.35526, n_u,nl =  2.06241
    NO participation ratio (PR_NO):  3.024276
  
  
  Mulliken Population Analysis
  Atom      Charge (e)              h+              e-           Del q
  --------------------------------------------------------------------
   1 H        0.149210        0.123037       -0.024576        0.098461
   2 C       -0.302119        0.271364       -0.472920       -0.201556
   3 H        0.152433        0.126248       -0.024093        0.102156
   4 C       -0.302726        0.272692       -0.474118       -0.201425
   5 H        0.152910        0.127242       -0.024562        0.102681
   6 H        0.150292        0.123666       -0.023982        0.099684
  --------------------------------------------------------------------
  Sum:        0.000000        1.044250       -1.044250       -0.000000
  
  Multipole moment analysis of the density matrix
    Molecular charge:                      0.000000
    Number of electrons:                   16.000000
      Center of electronic charge [Ang]: [ -1.560108,  -0.065692,   0.001951]
    Total nuclear charge:                  16.000000
      Center of nuclear charge [Ang]:    [ -1.560264,  -0.065602,   0.001978]
    Dipole moment [D]:                     0.013957
      Cartesian components [D]:          [ -0.011964,   0.006878,   0.002081]
    RMS size of the density [Ang]:         1.200061
      Cartesian components [Ang]:        [  0.786917,   0.768347,   0.480158]
  
  Exciton analysis of the difference density matrix
    <r_h> [Ang]:                  [ -1.562128,  -0.063284,   0.002074]
    <r_e> [Ang]:                  [ -1.559891,  -0.064565,   0.001853]
    |<r_e - r_h>| [Ang]:            0.002587
    Hole size [Ang]:                1.486434
      Cartesian components [Ang]: [  1.002067,   0.999575,   0.454091]
    Electron size [Ang]:            1.476509
      Cartesian components [Ang]: [  0.881224,   0.858494,   0.816402]

  Transition density matrix analysis:
  -----------------------------------
  
  CT numbers (Mulliken)
    omega =     0.9218
    <Phe> =    -0.0122
  
  Exciton analysis of the transition density matrix
    Trans. dipole moment [D]:             0.004171
      Cartesian components [D]:         [  0.002733,  -0.002962,  -0.001076]
    <r_h> [Ang]:                        [ -1.562490,  -0.062940,   0.002132]
    <r_e> [Ang]:                        [ -1.559562,  -0.064804,   0.001796]
    |<r_e - r_h>| [Ang]:                  0.003487
    Hole size [Ang]:                      1.515273
      Cartesian components [Ang]:       [  1.025116,   1.023874,   0.443703]
    Electron size [Ang]:                  1.473557
      Cartesian components [Ang]:       [  0.871714,   0.847823,   0.832275]
    RMS electron-hole separation [Ang]:   2.093774
      Cartesian components [Ang]:       [  1.329714,   1.314382,   0.942417]
    Covariance(r_h, r_e) [Ang^2]:         0.041772
    Correlation coefficient:              0.018708
    Center-of-mass size [Ang]:            1.066650
      Cartesian components [Ang]:       [  0.680691,   0.672058,   0.471953]

  Decomposition into state-averaged NTOs
    H- 1 -> L+ 0: -0.6618 ( 87.6%)
    H- 0 -> L+ 2: -0.1474 (  4.3%)
                   omega =  92.2%
  ----------------------------------------------------------------------------


  Excited state 3 (singlet, A)                                     [converged]
  ----------------------------------------------------------------------------
  Term symbol:  4 (1) A                                     R^2 =  1.66332e-13

  Total energy:                                            -77.9824440739 a.u.
  Excitation energy:                                               9.175091 eV

  Osc. strength:                                                      0.025311
  Trans. dip. moment [a.u.]:           [   0.015272,    0.020470,   -0.334589]
  <i|r^2|0> [a.u.]:                    [   0.091097,    0.003756,    0.002347]
  Two-photon absorption cross-section (SoS) [a.u.]:                   0.000672
  Two-photon absorption matrix (SoS) [a.u.]:
                                       |    0.008273    0.000285   -0.000007 |
                                       |    0.000285   -0.007757    0.002613 |
                                       |   -0.000007    0.002613    0.003942 |
  Two-photon absorption cross-section [a.u.]:                         0.000539
  Two-photon absorption matrix [a.u.]:
                                       |    0.007446   -0.000381   -0.000718 |
                                       |   -0.000381   -0.004570    0.004151 |
                                       |   -0.000718    0.004151    0.002672 |

  Dip. moment [a.u.]:                  [  -0.002592,   -0.001974,   -0.000763]
  Total dipole [Debye]:                                               0.008505
  <r^2> [a.u.]:                        [ 180.811525,   40.606760,   11.028904]
  Total <r^2> [a.u.]:                                               232.447189

  V1^2 = 0.9587, V2^2 = 0.0413

  Important amplitudes:
      occ i     occ j     vir a      vir b          v   
    -----------------------------------------------------
     8 (A) A             10 (A) A                 0.6891
     8 (A) A             24 (A) A                 0.0507
     8 (A) A             18 (A) A                -0.0312
     4 (A) A              9 (A) A                 0.0237
     8 (A) A   8 (A) B    9 (A) A   12 (A) B     -0.0219
     8 (A) A   8 (A) B   10 (A) A   17 (A) B      0.0173
     8 (A) A             15 (A) A                 0.0167
     5 (A) A   8 (A) B   11 (A) A   10 (A) B      0.0166
     7 (A) A   8 (A) B   13 (A) A   10 (A) B     -0.0141
     4 (A) A   8 (A) B   12 (A) A   10 (A) B     -0.0111
     6 (A) A   8 (A) A   10 (A) A   15 (A) A      0.0110
     7 (A) A   8 (A) B   22 (A) A   10 (A) B     -0.0108
     6 (A) A   8 (A) B   15 (A) A   10 (A) B     -0.0108
     4 (A) A   8 (A) A   10 (A) A   12 (A) A      0.0106
     7 (A) A   8 (A) A   10 (A) A   22 (A) A      0.0099
     7 (A) A   8 (A) A   10 (A) A   13 (A) A      0.0098
     5 (A) A   8 (A) B   21 (A) A   10 (A) B      0.0094
     5 (A) A   8 (A) A   10 (A) A   11 (A) A     -0.0094
     6 (A) A   8 (A) A   10 (A) A   18 (A) A      0.0088
     6 (A) A   8 (A) B   10 (A) A   10 (A) B      0.0087
     7 (A) A   8 (A) A   12 (A) A   16 (A) A     -0.0082
     5 (A) A   8 (A) A   10 (A) A   21 (A) A     -0.0080
     3 (A) A   4 (A) B   10 (A) A    9 (A) B     -0.0079
     4 (A) A   8 (A) B   19 (A) A   10 (A) B     -0.0075
     8 (A) A   8 (A) B    9 (A) A   23 (A) B      0.0075
     8 (A) A   8 (A) B   10 (A) A   28 (A) B     -0.0073
     3 (A) A   8 (A) B   10 (A) A   10 (A) B      0.0072
     5 (A) A   8 (A) B   10 (A) A   11 (A) B      0.0071
     3 (A) A   8 (A) A   10 (A) A   24 (A) A     -0.0071
     7 (A) A   8 (A) B   16 (A) A   12 (A) B      0.0071
     3 (A) A   8 (A) B   10 (A) A   18 (A) B     -0.0069
     8 (A) A   8 (A) B    9 (A) A   19 (A) B     -0.0068
     6 (A) A   8 (A) B   18 (A) A   10 (A) B     -0.0066
     3 (A) A   6 (A) B   10 (A) A   28 (A) B      0.0062
     7 (A) A   8 (A) B   12 (A) A   11 (A) B     -0.0057
     6 (A) A             28 (A) A                -0.0057
     3 (A) A   5 (A) B   10 (A) A   25 (A) B     -0.0056
     5 (A) A   8 (A) A   10 (A) A   16 (A) A      0.0056
     3 (A) A   8 (A) A   10 (A) A   18 (A) A     -0.0056
     4 (A) A   8 (A) A   10 (A) A   23 (A) A     -0.0055
    -----------------------------------------------------

  Density matrix analysis:
  ------------------------
  NOs
    Occupation of frontier NOs:
       0.9814   0.9850
    Number of electrons: 16.000000
    Number of unpaired electrons: n_u =  2.28514, n_u,nl =  2.02438
    NO participation ratio (PR_NO):  2.691630
  
  
  Mulliken Population Analysis
  Atom      Charge (e)              h+              e-           Del q
  --------------------------------------------------------------------
   1 H       -0.164011        0.053866       -0.268627       -0.214761
   2 C        0.328546        0.538451       -0.109341        0.429110
   3 H       -0.164407        0.053864       -0.268548       -0.214684
   4 C        0.327911        0.538193       -0.108981        0.429212
   5 H       -0.164879        0.053866       -0.268974       -0.215108
   6 H       -0.163160        0.053950       -0.267718       -0.213768
  --------------------------------------------------------------------
  Sum:        0.000000        1.292189       -1.292189       -0.000000
  
  Multipole moment analysis of the density matrix
    Molecular charge:                      0.000000
    Number of electrons:                   16.000000
      Center of electronic charge [Ang]: [ -1.560178,  -0.065537,   0.002003]
    Total nuclear charge:                  16.000000
      Center of nuclear charge [Ang]:    [ -1.560264,  -0.065602,   0.001978]
    Dipole moment [D]:                     0.008505
      Cartesian components [D]:          [ -0.006588,  -0.005016,  -0.001940]
    RMS size of the density [Ang]:         1.276631
      Cartesian components [Ang]:        [  0.854616,   0.840473,   0.439342]
  
  Exciton analysis of the difference density matrix
    <r_h> [Ang]:                  [ -1.560159,  -0.065692,   0.001858]
    <r_e> [Ang]:                  [ -1.559217,  -0.064811,   0.002327]
    |<r_e - r_h>| [Ang]:            0.001372
    Hole size [Ang]:                1.410370
      Cartesian components [Ang]: [  0.834168,   0.819844,   0.788139]
    Electron size [Ang]:            2.076897
      Cartesian components [Ang]: [  1.374025,   1.377354,   0.726949]

  Transition density matrix analysis:
  -----------------------------------
  
  CT numbers (Mulliken)
    omega =     0.9259
    <Phe> =    -0.0108
  
  Exciton analysis of the transition density matrix
    Trans. dipole moment [D]:             0.426457
      Cartesian components [D]:         [  0.019409,   0.026014,  -0.425220]
    <r_h> [Ang]:                        [ -1.560127,  -0.065918,   0.001741]
    <r_e> [Ang]:                        [ -1.558834,  -0.064590,   0.002457]
    |<r_e - r_h>| [Ang]:                  0.001987
    Hole size [Ang]:                      1.212926
      Cartesian components [Ang]:       [  0.636437,   0.623519,   0.823019]
    Electron size [Ang]:                  2.297607
      Cartesian components [Ang]:       [  1.518921,   1.525066,   0.803774]
    RMS electron-hole separation [Ang]:   2.588210
      Cartesian components [Ang]:       [  1.639380,   1.640623,   1.148747]
    Covariance(r_h, r_e) [Ang^2]:         0.025681
    Correlation coefficient:              0.009215
    Center-of-mass size [Ang]:            1.303989
      Cartesian components [Ang]:       [  0.827162,   0.827279,   0.576022]

  Decomposition into state-averaged NTOs
    H- 0 -> L+ 1:  0.6798 ( 92.4%)
                   omega =  92.6%
  ----------------------------------------------------------------------------


  Excited state 4 (singlet, A)                                     [converged]
  ----------------------------------------------------------------------------
  Term symbol:  5 (1) A                                     R^2 =  4.49779e-13

  Total energy:                                            -77.9581984338 a.u.
  Excitation energy:                                               9.834849 eV

  Osc. strength:                                                      0.000000
  Trans. dip. moment [a.u.]:           [  -0.000855,    0.000803,    0.000592]
  <i|r^2|0> [a.u.]:                    [  -0.022356,   -0.018866,    0.036366]
  Two-photon absorption cross-section (SoS) [a.u.]:                 149.840944
  Two-photon absorption matrix (SoS) [a.u.]:
                                       |   -0.291180   -0.325205    3.006931 |
                                       |   -0.325205   -0.360043    3.043615 |
                                       |    3.006931    3.043615    0.651041 |
  Two-photon absorption cross-section [a.u.]:                        91.898511
  Two-photon absorption matrix [a.u.]:
                                       |   -0.230543   -0.254825    2.352858 |
                                       |   -0.254825   -0.279581    2.385535 |
                                       |    2.352858    2.385535    0.509906 |

  Dip. moment [a.u.]:                  [   0.003184,    0.004215,   -0.000157]
  Total dipole [Debye]:                                               0.013433
  <r^2> [a.u.]:                        [ 181.270456,   40.538663,   10.761751]
  Total <r^2> [a.u.]:                                               232.570870

  V1^2 = 0.9635, V2^2 = 0.0365

  Important amplitudes:
      occ i     occ j     vir a      vir b          v   
    -----------------------------------------------------
     8 (A) A             11 (A) A                 0.6699
     7 (A) A              9 (A) A                -0.1495
     8 (A) A             21 (A) A                 0.0781
     8 (A) A             16 (A) A                -0.0647
     8 (A) A   8 (A) B    9 (A) A   13 (A) B     -0.0167
     5 (A) A   8 (A) B   11 (A) A   11 (A) B      0.0156
     8 (A) A   8 (A) B   11 (A) A   17 (A) B      0.0140
     7 (A) A             20 (A) A                -0.0136
     7 (A) A   8 (A) B   13 (A) A   11 (A) B     -0.0127
     5 (A) A   8 (A) A   11 (A) A   21 (A) A     -0.0110
     4 (A) A   8 (A) B   12 (A) A   11 (A) B     -0.0110
     8 (A) A             12 (A) A                -0.0108
     8 (A) A   8 (A) B    9 (A) A   22 (A) B     -0.0108
     7 (A) A   8 (A) A   11 (A) A   22 (A) A      0.0096
     6 (A) A   8 (A) B   15 (A) A   11 (A) B     -0.0090
     6 (A) A   8 (A) B   10 (A) A   11 (A) B      0.0090
     7 (A) A   8 (A) B   22 (A) A   11 (A) B     -0.0089
     3 (A) A   4 (A) B   11 (A) A    9 (A) B     -0.0083
     3 (A) A   8 (A) B   11 (A) A   18 (A) B     -0.0081
     6 (A) A   8 (A) A   11 (A) A   15 (A) A      0.0080
     7 (A) A   8 (A) A   13 (A) A   16 (A) A     -0.0078
     7 (A) A   8 (A) A   11 (A) A   13 (A) A      0.0077
     5 (A) A   8 (A) B   21 (A) A   11 (A) B      0.0071
     4 (A) A   8 (A) B   19 (A) A   11 (A) B     -0.0070
     5 (A) A   8 (A) B    9 (A) A    9 (A) B      0.0067
     4 (A) A   8 (A) A   11 (A) A   12 (A) A      0.0062
     6 (A) A              9 (A) A                -0.0062
     6 (A) A   8 (A) A   11 (A) A   18 (A) A      0.0062
     3 (A) A   6 (A) B   11 (A) A   28 (A) B      0.0060
     6 (A) A   8 (A) B   18 (A) A   11 (A) B     -0.0060
     7 (A) A   8 (A) B   16 (A) A   13 (A) B      0.0057
     3 (A) A   8 (A) A   11 (A) A   18 (A) A     -0.0056
     5 (A) A   8 (A) B   10 (A) A   10 (A) B      0.0056
     3 (A) A   8 (A) B   11 (A) A   30 (A) B     -0.0055
     3 (A) A   5 (A) B   11 (A) A   25 (A) B     -0.0055
     6 (A) A   8 (A) B   11 (A) A   10 (A) B      0.0054
     7 (A) A   8 (A) B   12 (A) A   10 (A) B     -0.0054
     8 (A) A   8 (A) B   20 (A) A   22 (A) B     -0.0053
     3 (A) A   8 (A) A   11 (A) A   24 (A) A     -0.0053
     5 (A) A   8 (A) A   11 (A) A   16 (A) A      0.0048
    -----------------------------------------------------

  Density matrix analysis:
  ------------------------
  NOs
    Occupation of frontier NOs:
       0.9412   1.0273
    Number of electrons: 16.000000
    Number of unpaired electrons: n_u =  2.31903, n_u,nl =  2.04874
    NO participation ratio (PR_NO):  2.911389
  
  
  Mulliken Population Analysis
  Atom      Charge (e)              h+              e-           Del q
  --------------------------------------------------------------------
   1 H       -0.143547        0.045812       -0.240109       -0.194296
   2 C        0.274854        0.497237       -0.121819        0.375417
   3 H       -0.131106        0.046780       -0.228163       -0.181384
   4 C        0.273689        0.497243       -0.122253        0.374990
   5 H       -0.129265        0.046817       -0.226311       -0.179494
   6 H       -0.144625        0.045868       -0.241102       -0.195233
  --------------------------------------------------------------------
  Sum:        0.000000        1.179757       -1.179757       -0.000000
  
  Multipole moment analysis of the density matrix
    Molecular charge:                      0.000000
    Number of electrons:                   16.000000
      Center of electronic charge [Ang]: [ -1.560369,  -0.065742,   0.001983]
    Total nuclear charge:                  16.000000
      Center of nuclear charge [Ang]:    [ -1.560264,  -0.065602,   0.001978]
    Dipole moment [D]:                     0.013433
      Cartesian components [D]:          [  0.008094,   0.010714,  -0.000400]
    RMS size of the density [Ang]:         1.277234
      Cartesian components [Ang]:        [  0.858955,   0.839748,   0.433988]
  
  Exciton analysis of the difference density matrix
    <r_h> [Ang]:                  [ -1.560360,  -0.065718,   0.001830]
    <r_e> [Ang]:                  [ -1.561920,  -0.067529,   0.002071]
    |<r_e - r_h>| [Ang]:            0.002402
    Hole size [Ang]:                1.394614
      Cartesian components [Ang]: [  0.818449,   0.806247,   0.790605]
    Electron size [Ang]:            2.124083
      Cartesian components [Ang]: [  1.440980,   1.405419,   0.678308]

  Transition density matrix analysis:
  -----------------------------------
  
  CT numbers (Mulliken)
    omega =     0.9298
    <Phe> =    -0.0135
  
  Exciton analysis of the transition density matrix
    Trans. dipole moment [D]:             0.001669
      Cartesian components [D]:         [ -0.001086,   0.001020,   0.000752]
    <r_h> [Ang]:                        [ -1.560230,  -0.065637,   0.001768]
    <r_e> [Ang]:                        [ -1.562309,  -0.067819,   0.002095]
    |<r_e - r_h>| [Ang]:                  0.003031
    Hole size [Ang]:                      1.227789
      Cartesian components [Ang]:       [  0.658182,   0.649472,   0.807743]
    Electron size [Ang]:                  2.262336
      Cartesian components [Ang]:       [  1.535357,   1.497179,   0.720624]
    RMS electron-hole separation [Ang]:   2.563336
      Cartesian components [Ang]:       [  1.661917,   1.624192,   1.081999]
    Covariance(r_h, r_e) [Ang^2]:         0.027475
    Correlation coefficient:              0.009891
    Center-of-mass size [Ang]:            1.292341
      Cartesian components [Ang]:       [  0.839506,   0.819867,   0.541473]

  Decomposition into state-averaged NTOs
    H- 0 -> L+ 2: -0.6652 ( 88.5%)
    H- 1 -> L+ 0:  0.1475 (  4.4%)
                   omega =  93.0%
  ----------------------------------------------------------------------------


  Excited state 5 (singlet, A)                                     [converged]
  ----------------------------------------------------------------------------
  Term symbol:  6 (1) A                                     R^2 =  3.11806e-13

  Total energy:                                            -77.9442216676 a.u.
  Excitation energy:                                              10.215176 eV

  Osc. strength:                                                      0.000000
  Trans. dip. moment [a.u.]:           [  -0.000080,   -0.000119,   -0.000414]
  <i|r^2|0> [a.u.]:                    [  -0.087695,    0.103550,   -0.016618]
  Two-photon absorption cross-section (SoS) [a.u.]:                 184.284430
  Two-photon absorption matrix (SoS) [a.u.]:
                                       |   -0.327016   -0.041850    3.411937 |
                                       |   -0.041850    0.395968   -3.355249 |
                                       |    3.411937   -3.355249   -0.076297 |
  Two-photon absorption cross-section [a.u.]:                        84.179297
  Two-photon absorption matrix [a.u.]:
                                       |   -0.222349   -0.028661    2.295640 |
                                       |   -0.028661    0.266357   -2.278157 |
                                       |    2.295640   -2.278157   -0.053212 |

  Dip. moment [a.u.]:                  [   0.002749,   -0.002702,    0.000143]
  Total dipole [Debye]:                                               0.009804
  <r^2> [a.u.]:                        [ 178.477058,   38.395012,   11.900966]
  Total <r^2> [a.u.]:                                               228.773036

  V1^2 = 0.9572, V2^2 = 0.0428

  Important amplitudes:
      occ i     occ j     vir a      vir b          v   
[...]
    16   -1.473305738317e-03
    17   -1.775445924533e-03
    18   -1.717207574294e-06
    19   -3.243271347454e-03
    20    1.021939611965e-02
    21    9.337444165404e-01
    22   -2.764560734108e-04
    23    1.399582331003e-02
    24    8.200853500854e-04
    25    7.031288465945e-02
    26   -5.225339552124e-02
    27   -1.401694806506e+00
    28    9.756817737756e-02
    29   -9.316232046973e-02
    30   -1.118464059116e-03
    31    3.829384658504e-01
    32   -3.640400035082e-01
    33   -4.309711177697e-03
    34    1.565992212671e-02
    35   -1.468646183917e-03
    36   -1.798385766156e-03
    37   -3.376529462933e-05
    38   -3.175910337555e-03
    39    1.010448644923e-02
    40    9.362113743385e-01
    41    2.249496838428e-04
    42   -1.399783886976e-02
    43   -8.357642982929e-04
    44    9.873685064137e-03
    45    9.374407336425e-01
    46    1.410068156864e-02
    47    3.678390899206e-04
    48    6.814023031284e-04
Sym=X
Ene= 0.233060
Spin=Alpha
Occup=0
     1    2.633019264200e-02
     2    1.227436196625e+00
     3   -1.425428527298e-02
     4   -3.769824733329e-03
     5   -8.934640298703e-04
     6    2.695831033502e-03
     7   -3.021617553820e-03
     8   -4.145189464798e-02
     9   -1.542917566656e-01
    10   -1.590120467329e-01
    11   -1.670431582248e-02
    12   -5.511846040537e-01
    13   -5.595851468851e-01
    14   -5.913207273623e-02
    15    4.900216233187e-04
    16   -5.863868899154e-05
    17   -4.884495836285e-05
    18   -2.058294443069e-04
    19   -3.192261499870e-04
    20   -2.512254822384e-02
    21   -1.164044911874e+00
    22   -2.505316671141e-03
    23   -1.362361328494e-02
    24   -9.278942282093e-04
    25   -2.782106123633e-03
    26    3.073342230242e-03
    27    4.399889316662e-02
    28   -1.544373890572e-01
    29   -1.588899655607e-01
    30   -1.684231977074e-02
    31   -5.496356239353e-01
    32   -5.564757948215e-01
    33   -5.944751555868e-02
    34   -5.265105400797e-04
    35    6.392410200682e-05
    36    3.102139176285e-05
    37    3.093195753881e-04
    38    3.422690888181e-04
    39    2.515986431484e-02
    40    1.159283451726e+00
    41   -2.476976833875e-03
    42   -1.358366095890e-02
    43   -9.334266690921e-04
    44   -2.628822800998e-02
    45   -1.225846717533e+00
    46   -1.427653130479e-02
    47   -3.759665764507e-03
    48   -9.001315010147e-04
Sym=X
Ene= 0.239332
Spin=Alpha
Occup=0
     1    1.576656333231e-02
     2    1.051700422637e+00
     3   -1.647928550379e-02
     4   -9.219165340639e-03
     5   -1.333939481179e-03
     6    8.649219856642e-02
     7   -7.966412610602e-02
     8   -1.593639451955e+00
     9   -5.352993635014e-02
    10    6.045005513122e-02
    11    9.630204708041e-04
    12   -2.131475126251e-01
    13    2.382306381266e-01
    14    3.602952637814e-03
    15    2.259187317572e-02
    16   -2.610239792072e-03
    17   -2.975792997193e-03
    18    6.662554813306e-04
    19   -1.279180881589e-02
    20    1.684828602411e-02
    21    1.127031447707e+00
    22    8.566873342208e-03
    23    1.784084907844e-02
    24    1.460819759012e-03
    25   -8.638868804865e-02
    26    7.940673392809e-02
    27    1.592800737385e+00
    28   -5.363087562497e-02
    29    6.057285801741e-02
    30    1.287725929198e-03
    31   -2.142896974769e-01
    32    2.385140167192e-01
    33    4.919541787041e-03
    34   -2.257857325070e-02
    35    2.583317853343e-03
    36    3.006850385461e-03
    37   -6.419177949061e-04
    38    1.274747940806e-02
    39   -1.675995289701e-02
    40   -1.125658207818e+00
    41    8.623560034030e-03
    42    1.780054275388e-02
    43    1.485569728868e-03
    44   -1.573436685695e-02
    45   -1.051826193242e+00
    46   -1.647561726598e-02
    47   -9.265069570314e-03
    48   -1.317748209209e-03
Sym=X
Ene= 0.303291
Spin=Alpha
Occup=0
     1   -2.045503042336e-02
     2    1.693654791606e+00
     3   -2.301258180523e-02
     4    3.443257625265e-04
     5   -1.076452617035e-03
     6   -3.895842417699e-05
     7    1.805375970313e-04
     8   -1.788587994169e-03
     9   -1.340097070190e-01
    10   -1.399590362621e-01
    11   -1.463737511598e-02
    12   -1.140637190281e+00
    13   -1.196750590655e+00
    14   -1.251336739689e-01
    15   -3.903482023091e-05
    16   -1.661388548660e-03
    17    1.858156452141e-03
    18   -3.277379451322e-02
    19   -1.646394278094e-03
    20    2.009699476604e-02
    21   -1.691723701692e+00
    22    1.544129774653e-03
    23   -2.291174842659e-02
    24   -1.277765225484e-03
    25   -6.778705470534e-05
    26    1.790267504074e-04
    27   -1.391167033732e-03
    28    1.342905470727e-01
    29    1.402887795657e-01
    30    1.475609443378e-02
    31    1.140685565203e+00
    32    1.195794518883e+00
    33    1.253690529344e-01
    34   -3.537790016868e-05
    35   -1.607036003113e-03
    36    1.912924940110e-03
    37   -3.267275743786e-02
    38   -1.647514126242e-03
    39    1.974686204709e-02
    40   -1.692623980471e+00
    41   -1.600423876401e-03
    42    2.292648251397e-02
    43    1.298368920021e-03
    44   -2.019390510497e-02
    45    1.694816102061e+00
    46    2.301469497696e-02
    47   -4.004534102227e-04
    48    1.063383533687e-03
Sym=X
Ene= 0.462332
Spin=Alpha
Occup=0
     1   -1.145059307568e-01
     2   -7.152135246505e-01
     3   -1.559262311513e-02
     4   -1.013092041944e-02
     5   -1.335470888186e-03
     6    6.097411646366e-02
     7    1.682339276316e-02
     8   -3.595372538113e+00
     9    1.037936186368e-01
    10   -9.914462374612e-02
    11   -1.005750983800e-03
    12    2.429071786881e+00
    13   -2.305411194229e+00
    14   -2.111410908967e-02
    15    5.328086139947e-02
    16   -3.314342524244e-03
    17   -4.597817942254e-03
    18   -7.957136617658e-04
    19    1.835504478579e-02
    20   -1.180584199840e-01
    21   -7.091294154577e-01
    22    8.821005034714e-03
    23    1.628633762007e-02
    24    1.383984720098e-03
    25   -6.105807941946e-02
    26   -1.629694464112e-02
    27    3.595946879748e+00
    28    1.046577200008e-01
    29   -1.000381654884e-01
    30   -1.209020611939e-03
    31    2.427256856324e+00
    32   -2.303042715188e+00
    33   -2.192693111402e-02
    34   -5.285602940683e-02
    35    3.295789074725e-03
    36    4.539510683743e-03
    37    8.201434185077e-04
    38   -1.885134373055e-02
    39    1.157454455126e-01
    40    7.103737718031e-01
    41    8.692648984093e-03
    42    1.619317911317e-02
    43    1.374537778590e-03
    44    1.119775612653e-01
    45    7.180275757513e-01
    46   -1.551167134481e-02
    47   -1.002471224217e-02
    48   -1.342370724078e-03
Sym=X
Ene= 0.577746
Spin=Alpha
Occup=0
     1    2.477828460925e-01
     2    4.445612455214e-02
     3   -1.858903544186e-02
     4    2.568938444668e-02
     5    6.431895738259e-04
     6   -4.848576003329e-03
     7   -1.583418219504e-01
     8   -4.522323992511e-01
     9    2.996536510808e-01
    10   -2.870582388618e-01
    11   -2.830166907570e-03
    12   -7.337590666760e-01
    13    7.054608003793e-01
    14    7.248693038925e-03
    15   -5.393325974999e-03
    16    3.861610249051e-03
    17    3.650287175651e-03
    18   -3.781638261380e-03
    19    6.011204647677e-02
    20    2.513148374577e-01
    21    3.906226111549e-02
    22   -2.667859801490e-02
    23    1.693451251532e-02
    24   -2.597668782441e-04
    25   -5.421737135502e-03
    26   -1.587087622385e-01
    27   -4.249608397292e-01
    28   -2.985928318130e-01
    29    2.861672157254e-01
    30    2.799227460139e-03
    31    7.529490249561e-01
    32   -7.236439183137e-01
    33   -7.615940160620e-03
    34   -5.398056110260e-03
    35    3.857402086933e-03
    36    3.657542780096e-03
    37   -3.840684427377e-03
    38    6.008601366197e-02
    39    2.509781133677e-01
    40    4.668712752810e-02
    41    2.692572591925e-02
    42   -1.707809505093e-02
    43    2.465652929428e-04
    44    2.468724918469e-01
    45    5.318492724122e-02
    46    1.876467652047e-02
    47   -2.595319775491e-02
    48   -6.703457817010e-04
Sym=X
Ene= 0.614629
Spin=Alpha
Occup=0
     1   -5.200692163914e-01
     2    2.024379994976e-01
     3   -6.114708982847e-02
     4    3.766152828950e-02
     5   -6.765982215487e-04
     6   -3.778325148383e-04
     7    6.673758170947e-04
     8   -1.669631483036e-02
     9   -3.997991066824e-02
    10   -4.018116859554e-02
    11   -4.309083563933e-03
    12    2.987117901875e-01
    13    2.891509608201e-01
    14    3.118896538758e-02
    15    1.368352644930e-03
    16   -7.554044574991e-03
    17    8.306133878065e-03
    18   -1.479404977090e-01
    19   -6.742283103452e-03
    20    5.116786478774e-01
    21   -2.034582278152e-01
    22    4.122837533300e-02
    23   -5.839202391693e-02
    24   -1.510806506479e-03
    25    3.841043174015e-04
    26   -5.380333237220e-04
    27    1.539931805092e-02
    28   -4.031791649793e-02
    29   -4.013410268365e-02
    30   -4.281756074770e-03
    31    3.006279766264e-01
    32    2.896011853339e-01
    33    3.166645892616e-02
    34   -1.339748085753e-03
    35    7.444926483185e-03
    36   -8.504482825624e-03
    37    1.485601581408e-01
    38    6.745925529477e-03
    39   -5.133084281665e-01
    40    2.067140753875e-01
    41    4.107708151171e-02
    42   -5.850162196431e-02
    43   -1.563466703419e-03
    44    5.216899909027e-01
    45   -2.045365339929e-01
    46   -6.119271145785e-02
    47    3.744330370045e-02
    48   -6.337877476678e-04
Sym=X
Ene= 0.689148
Spin=Alpha
Occup=0
     1    3.566428841484e-04
     2    1.676402134078e-04
     3    1.046742923258e-03
     4    1.279508333527e-03
     5   -2.101054555074e-02
     6    2.393906437058e-05
     7    2.248788816712e-04
     8    9.547800569845e-05
     9    3.161226224948e-02
    10    3.988240942947e-02
    11   -6.702530460281e-01
    12   -2.944095850650e-02
    13   -3.596438419431e-02
    14    6.135358351428e-01
    15   -1.365186372428e-03
    16    8.271160513262e-02
    17   -7.838051962322e-02
    18   -8.616505505921e-03
    19   -1.107775267671e-03
    20    3.852776453587e-04
    21    2.395261357015e-05
    22    9.494117400053e-04
    23    1.189406057560e-03
    24   -2.113607757417e-02
    25    6.192593927722e-06
    26    4.043256686522e-04
    27   -4.755823063598e-04
    28    3.188130219589e-02
    29    3.992228190714e-02
    30   -6.701697347900e-01
    31   -2.974753985941e-02
    32   -3.606075309025e-02
    33    6.133396718044e-01
    34    1.161203991673e-03
    35   -8.273098065171e-02
    36    7.843674294553e-02
    37    8.563769902244e-03
    38    1.181009209145e-03
    39    8.111553348130e-05
    40   -5.356827519629e-04
    41    1.007734058569e-03
    42    1.363128853925e-03
    43   -2.106565032916e-02
    44    4.789928694967e-05
    45   -3.911446410619e-04
    46    9.041537368092e-04
    47    1.264290027785e-03
    48   -2.105061610134e-02
Sym=X
Ene= 0.709243
Spin=Alpha
Occup=0
     1   -4.763959838384e-01
     2    1.533812119225e-01
     3   -8.047749785920e-02
     4   -4.443224918367e-02
     5   -6.483828917699e-03
     6   -4.746324784405e-02
     7   -3.206442378058e-01
     8    5.006227556326e-01
     9    2.031060786917e-01
    10   -1.909281081108e-01
    11   -2.089902403204e-03
    12   -8.455845672002e-02
    13    6.999500307688e-02
    14    1.995756041424e-04
    15    1.939123889898e-01
    16   -2.045747218144e-02
    17   -2.390970176956e-02
    18    3.020774398873e-03
    19   -7.695135888608e-02
    20   -4.761845274077e-01
    21    1.434551818724e-01
    22    4.086232478734e-02
    23    8.152046395558e-02
    24    6.740958207129e-03
    25   -4.709059489693e-02
    26   -3.206036224472e-01
    27    4.798682823246e-01
    28   -2.027619723231e-01
    29    1.911483617150e-01
    30    1.387681034039e-03
    31    7.033903188645e-02
    32   -5.782007523587e-02
    33    7.254799676791e-04
    34    1.940254759019e-01
    35   -2.046279701883e-02
    36   -2.395349117226e-02
    37    2.977538594065e-03
    38   -7.612064723160e-02
    39   -4.755497736960e-01
    40    1.396352668698e-01
    41   -4.079322698184e-02
    42   -8.145799303347e-02
    43   -6.786839257115e-03
    44   -4.757657837745e-01
    45    1.480307125655e-01
    46    8.043081843129e-02
    47    4.427728897419e-02
    48    6.463413569034e-03
Sym=X
Ene= 0.784587
Spin=Alpha
Occup=0
     1    5.294542154420e-01
     2   -4.658294966149e-01
     3    1.104208927539e-01
     4    2.632465552833e-02
     5    6.802139906402e-03
     6    9.110965536636e-02
     7   -2.141265838245e-01
     8   -6.385037681379e-01
     9    1.106818241741e-01
    10   -1.067320869311e-01
    11   -3.761184291293e-04
    12    3.081781053267e-01
    13   -2.834168410712e-01
    14   -3.475014786368e-03
    15   -2.071333604554e-01
    16    1.756191365182e-02
    17    2.182519721639e-02
    18   -9.916939829721e-04
    19    8.431717704091e-03
    20    5.367939219215e-01
    21   -4.624310357405e-01
    22   -2.015903515088e-02
    23   -1.123306664455e-01
    24   -7.602719237956e-03
    25   -9.118364733846e-02
    26    2.142183099122e-01
    27    6.426517185106e-01
    28    1.114561625954e-01
    29   -1.067998758529e-01
    30   -1.610600798791e-03
    31    3.044373536714e-01
    32   -2.816148824996e-01
    33   -1.040551389674e-03
    34    2.073007675336e-01
    35   -1.748451393669e-02
    36   -2.211878512184e-02
    37    9.613928689589e-04
    38   -8.143840803300e-03
    39   -5.388045172409e-01
    40    4.624217285011e-01
    41   -2.034933462707e-02
    42   -1.122752604582e-01
    43   -7.678481503027e-03
    44   -5.309478879286e-01
    45    4.640102477961e-01
    46    1.102984901762e-01
    47    2.645683660122e-02
    48    6.805741764100e-03
Sym=X
Ene= 0.807960
Spin=Alpha
Occup=0
     1    4.007858809251e-04
     2   -6.413254109224e-04
     3    1.729286051181e-03
     4    2.019148569799e-03
     5   -3.383059931978e-02
     6    8.292148420202e-05
     7   -3.124473335572e-04
     8   -4.535292950689e-05
     9    3.631616136915e-02
    10    4.499945298110e-02
    11   -7.630689242019e-01
    12   -5.316695148274e-02
    13   -6.684647029736e-02
    14    1.127017472362e+00
    15    7.782010968083e-04
    16   -6.520494964058e-02
    17    6.185153870539e-02
    18    6.827856147765e-03
    19    8.707883964209e-04
    20    4.016323121027e-04
    21   -2.318717495508e-04
    22    1.658863908797e-03
    23    1.961454818799e-03
    24   -3.441490602888e-02
    25   -6.902811735806e-05
    26    5.111660962553e-06
    27    2.127593213343e-04
    28   -3.608679846995e-02
    29   -4.575920603945e-02
    30    7.631608745977e-01
    31    5.381519449234e-02
    32    6.712170218420e-02
    33   -1.126984699974e+00
    34    1.238526060027e-03
    35   -6.523048076738e-02
    36    6.180683292997e-02
    37    6.717207760240e-03
    38    9.668986266064e-04
    39   -3.971538384237e-04
    40    3.217374507862e-04
    41   -1.571301860524e-03
    42   -2.198414833897e-03
    43    3.424461375270e-02
    44   -4.000874311790e-04
    45    7.190395703029e-04
    46   -1.400173499328e-03
    47   -2.023330284217e-03
    48    3.375046853802e-02
Sym=X
Ene= 0.862276
Spin=Alpha
Occup=0
     1    1.257892783092e-02
     2   -1.096008665658e+00
     3    1.483714807991e-01
     4    5.616115795378e-02
     5    1.034576921117e-02
     6   -4.265135865360e-05
     7   -1.115307463889e-03
     8    1.476802656597e-03
     9   -4.066303529550e-01
    10   -4.281549643054e-01
    11   -4.453026330554e-02
    12    9.461700432936e-01
    13    9.982433874761e-01
    14    1.037534864827e-01
    15    1.110102791374e-05
    16    1.177861148445e-02
    17   -1.357840667653e-02
    18    2.359501779721e-01
    19    1.064049315336e-02
    20   -1.388109691362e-02
    21    1.102257084950e+00
    22    4.930128512514e-02
    23    1.515253698908e-01
    24    1.134990984008e-02
    25    4.261296840068e-06
    26    3.452181838043e-04
    27   -8.981094877921e-04
    28   -4.075043265418e-01
    29   -4.291054815148e-01
    30   -4.507266510976e-02
    31    9.482959003617e-01
    32    1.000212187599e+00
    33    1.049656738845e-01
    34    1.718231473497e-04
    35   -1.179551909359e-02
    36    1.362864254782e-02
    37   -2.365756455687e-01
    38   -1.062316948017e-02
    39    1.342251508485e-02
    40   -1.103003066960e+00
    41    4.883039293633e-02
    42    1.518756251867e-01
    43    1.143485123238e-02
    44   -1.229145760740e-02
    45    1.096639529230e+00
    46    1.487672171547e-01
    47    5.562141857621e-02
    48    1.031144212474e-02
Sym=X
Ene= 0.936013
Spin=Alpha
Occup=0
     1    1.147365779500e-01
     2   -1.285432252482e+00
     3    1.822406088540e-01
     4   -4.955390541432e-03
     5    8.390092759098e-03
     6   -1.255004737747e-04
     7   -6.692347732598e-04
     8    1.678900031004e-03
     9   -4.747673622419e-01
    10   -4.979012995564e-01
    11   -5.205754018910e-02
    12    1.468800319240e+00
    13    1.535129668814e+00
    14    1.607597882387e-01
    15    9.279603257073e-04
    16    6.022074346150e-03
    17   -6.945345773152e-03
    18    1.212296575098e-01
    19    4.766225796483e-03
    20   -1.169052447840e-01
    21    1.282720023224e+00
    22   -1.306176030059e-02
    23    1.823782387762e-01
    24    1.014193249398e-02
    25    9.717032401558e-06
    26   -1.228432286386e-04
    27    3.120860561535e-03
    28    4.728809225908e-01
    29    4.984952638390e-01
    30    5.214877388930e-02
    31   -1.462715756033e+00
    32   -1.535590770648e+00
    33   -1.609126347965e-01
    34    5.690666301487e-04
    35    5.879290014431e-03
    36   -7.175694293061e-03
    37    1.209001457067e-01
    38    3.939869639749e-03
    39   -1.170856532712e-01
    40    1.282755244543e+00
    41    1.326367910971e-02
    42   -1.821821112441e-01
    43   -1.025352203896e-02
    44    1.150203541901e-01
    45   -1.281587099132e+00
    46   -1.817840957946e-01
    47    5.705266106657e-03
    48   -8.280808390702e-03
Sym=X
Ene= 0.972640
Spin=Alpha
Occup=0
     1   -6.514894248081e-02
     2    9.170625454733e-01
     3   -8.988625751140e-02
     4   -9.851283994900e-02
     5   -1.011615448098e-02
     6    2.517011502201e-02
     7    2.492418911430e-01
     8    5.238076567802e-01
     9    4.788141321487e-01
    10   -4.555885376030e-01
    11   -4.205450268978e-03
    12   -1.487312438840e+00
    13    1.415950087388e+00
    14    1.310573566427e-02
    15   -5.288474426319e-02
    16   -1.281457970418e-02
    17   -9.805723580749e-03
    18    1.475620812784e-02
    19   -3.003404529721e-01
    20   -6.302215345388e-02
    21    9.162933927144e-01
    22    9.475704877097e-02
    23    9.417708942113e-02
    24    1.009016835852e-02
    25   -2.511876602418e-02
    26   -2.440186396122e-01
    27   -5.324502119454e-01
    28    4.797320338051e-01
    29   -4.539800140129e-01
    30   -4.543265113020e-03
    31   -1.492362821187e+00
    32    1.410841488491e+00
    33    1.387802396036e-02
    34    5.251458430735e-02
    35    1.277445610391e-02
    36    9.796304785335e-03
    37   -1.431229316515e-02
    38    2.993562603468e-01
    39    6.342271880900e-02
    40   -9.096273881839e-01
    41    9.447025331535e-02
    42    9.332557058249e-02
    43    1.013255787161e-02
    44    6.540134215635e-02
    45   -9.187147509306e-01
    46   -9.011412018923e-02
    47   -9.817303311869e-02
    48   -1.002371966539e-02
[5D]

======= END OF MOLDEN-FORMATTED INPUT FILE =======


        *************************************************************
        *                                                           *
        *  Thank you very much for using Q-Chem.  Have a nice day.  *
        *                                                           *
        *************************************************************


