                  Welcome to Q-Chem
     A Quantum Leap Into The Future Of Chemistry


 Q-Chem 5.4 (devel), Q-Chem, Inc., Pleasanton, CA (2021)

 E. Epifanovsky,  A. T. B. Gilbert,  Xintian Feng,  Joonho Lee,  Yuezhi Mao,  
 N. Mardirossian,  P. Pokhilko,  A. White,  M. Wormit,  M. P. Coons,  
 A. L. Dempwolff,  Zhengting Gan,  D. Hait,  P. R. Horn,  L. D. Jacobson,  
 I. Kaliman,  J. Kussmann,  A. W. Lange,  Ka Un Lao,  D. S. Levine,  Jie Liu,  
 S. C. McKenzie,  A. F. Morrison,  K. Nanda,  F. Plasser,  D. R. Rehn,  
 M. L. Vidal,  Zhi-Qiang You,  Ying Zhu,  B. Alam,  B. Albrecht,  
 A. Aldossary,  E. Alguire,  J. H. Andersen,  D. Barton,  K. Begam,  A. Behn,  
 Y. A. Bernard,  E. J. Berquist,  H. Burton,  A. Carreras,  K. Carter-Fenk,  
 R. Chakraborty,  A. D. Chien,  K. D. Closser,  V. Cofer-Shabica,  
 S. Dasgupta,  Jia Deng,  M. de Wergifosse,  M. Diedenhofen,  Hainam Do,  
 S. Ehlert,  Po-Tung Fang,  S. Fatehi,  Qingguo Feng,  T. Friedhoff,  
 J. Gayvert,  Qinghui Ge,  G. Gidofalvi,  M. Goldey,  J. Gomes,  
 C. Gonzalez-Espinoza,  S. Gulania,  A. Gunina,  M. W. D. Hanson-Heine,  
 P. H. P. Harbach,  A. W. Hauser,  M. F. Herbst,  M. Hernandez Vera,  
 M. Hodecker,  Z. C. Holden,  S. Houck,  Xunkun Huang,  Kerwin Hui,  
 B. C. Huynh,  M. Ivanov,  Hyunjun Ji,  Hanjie Jiang,  B. Kaduk,  S. Kaehler,  
 K. Khistyaev,  Jaehoon Kim,  P. Klunzinger,  Z. Koczor-Benda,  
 Joong Hoon Koh,  D. Kosenkov,  L. Koulias,  T. Kowalczyk,  C. M. Krauter,  
 K. Kue,  A. Kunitsa,  T. Kus,  A. Landau,  K. V. Lawler,  D. Lefrancois,  
 S. Lehtola,  Rain Li,  Yi-Pei Li,  Jiashu Liang,  M. Liebenthal,  
 Hung-Hsuan Lin,  You-Sheng Lin,  Fenglai Liu,  Kuan-Yu Liu,  
 M. Loipersberger,  A. Luenser,  A. Manjanath,  P. Manohar,  E. Mansoor,  
 S. F. Manzer,  Shan-Ping Mao,  A. V. Marenich,  T. Markovich,  S. Mason,  
 S. A. Maurer,  P. F. McLaughlin,  M. F. S. J. Menger,  J.-M. Mewes,  
 S. A. Mewes,  P. Morgante,  J. W. Mullinax,  K. J. Oosterbaan,  G. Paran,  
 Alexander C. Paul,  Suranjan K. Paul,  F. Pavosevic,  Zheng Pei,  S. Prager,  
 E. I. Proynov,  E. Ramos,  B. Rana,  A. E. Rask,  A. Rettig,  R. M. Richard,  
 F. Rob,  E. Rossomme,  T. Scheele,  M. Scheurer,  M. Schneider,  
 N. Sergueev,  S. M. Sharada,  W. Skomorowski,  D. W. Small,  C. J. Stein,  
 Yu-Chuan Su,  E. J. Sundstrom,  Zhen Tao,  J. Thirman,  T. Tsuchimochi,  
 N. M. Tubman,  S. P. Veccham,  O. Vydrov,  J. Wenzel,  J. Witte,  A. Yamada,  
 Kun Yao,  S. Yeganeh,  S. R. Yost,  A. Zech,  Igor Ying Zhang,  Xing Zhang,  
 Yu Zhang,  D. Zuev,  A. Aspuru-Guzik,  A. T. Bell,  N. A. Besley,  
 K. B. Bravaya,  B. R. Brooks,  D. Casanova,  Jeng-Da Chai,  S. Coriani,  
 C. J. Cramer,  A. E. DePrince, III,  R. A. DiStasio Jr.,  A. Dreuw,  
 B. D. Dunietz,  T. R. Furlani,  W. A. Goddard III,  S. Grimme,  
 S. Hammes-Schiffer,  T. Head-Gordon,  W. J. Hehre,  Chao-Ping Hsu,  
 T.-C. Jagau,  Yousung Jung,  A. Klamt,  Jing Kong,  D. S. Lambrecht,  
 WanZhen Liang,  N. J. Mayhall,  C. W. McCurdy,  J. B. Neaton,  
 C. Ochsenfeld,  J. A. Parkhill,  R. Peverati,  V. A. Rassolov,  Yihan Shao,  
 L. V. Slipchenko,  T. Stauch,  R. P. Steele,  J. E. Subotnik,  
 A. J. W. Thom,  A. Tkatchenko,  D. G. Truhlar,  T. Van Voorhis,  
 T. A. Wesolowski,  K. B. Whaley,  H. L. Woodcock III,  P. M. Zimmerman,  
 S. Faraji,  P. M. W. Gill,  M. Head-Gordon,  J. M. Herbert,  A. I. Krylov

 Additional authors for Version 5.4.1: 
 S. Kotaru,  Shaozhi Li,  Xiangyuan Li,  F. Matz,  A. Molle,  Haisheng Ren,  
 Yingli Su,  Hung-Yi Tsai,  C. Utku,  Fang Wang

 Contributors to earlier versions of Q-Chem not listed above: 
 R. D. Adamson,  B. Austin,  R. Baer,  J. Baker,  G. J. O. Beran,  
 K. Brandhorst,  S. T. Brown,  E. F. C. Byrd,  A. K. Chakraborty,  
 G. K. L. Chan,  Chun-Min Chang,  Yunqing Chen,  C.-L. Cheng,  
 Siu Hung Chien,  D. M. Chipman,  D. L. Crittenden,  H. Dachsel,  
 R. J. Doerksen,  A. D. Dutoi,  R. G. Edgar,  J. Fosso-Tande,  
 L. Fusti-Molnar,  D. Ghosh,  A. Ghysels,  A. Golubeva-Zadorozhnaya,  
 J. Gonthier,  M. S. Gordon,  S. R. Gwaltney,  G. Hawkins,  J. E. Herr,  
 A. Heyden,  S. Hirata,  E. G. Hohenstein,  G. Kedziora,  F. J. Keil,  
 C. Kelley,  Jihan Kim,  R. A. King,  R. Z. Khaliullin,  P. P. Korambath,  
 W. Kurlancheek,  A. Laurent,  A. M. Lee,  M. S. Lee,  S. V. Levchenko,  
 Ching Yeh Lin,  D. Liotard,  E. Livshits,  R. C. Lochan,  I. Lotan,  
 L. A. Martinez-Martinez,  P. E. Maslen,  N. Nair,  D. P. O'Neill,  
 D. Neuhauser,  E. Neuscamman,  C. M. Oana,  R. Olivares-Amaya,  R. Olson,  
 T. M. Perrine,  B. Peters,  P. A. Pieniazek,  A. Prociuk,  Y. M. Rhee,  
 J. Ritchie,  M. A. Rohrdanz,  E. Rosta,  N. J. Russ,  H. F. Schaefer III,  
 M. W. Schmidt,  N. E. Schultz,  S. Sharma,  N. Shenvi,  C. D. Sherrill,  
 A. C. Simmonett,  A. Sodt,  T. Stein,  D. Stuck,  K. S. Thanthiriwatte,  
 V. Vanovschi,  L. Vogt,  Tao Wang,  A. Warshel,  M. A. Watson,  
 C. F. Williams,  Q. Wu,  X. Xu,  Jun Yang,  W. Zhang,  Yan Zhao

 Please cite Q-Chem as follows:
 Y. Shao et al., Mol. Phys. 113, 184-215 (2015)
 DOI: 10.1080/00268976.2014.952696

 Q-Chem 5.4.1 for Intel X86 EM64T Linux

 Parts of Q-Chem use Armadillo 9.800.1 (Horizon Scraper).
 http://arma.sourceforge.net/

 Q-Chem begins on Mon Mar 20 18:30:30 2023  

 Host: cpu186.baobab
0

     Scratch files written to /scratch/fum/qchem77993//
 Processing $rem in /home/share/wesolowski/qc5.aug2021.FDE/config/preferences:
 Processing $rem in /home/fum/.qchemrc:

 Checking the input file for inconsistencies... 	...done.

--------------------------------------------------------------
User input:
--------------------------------------------------------------
$comment
generated from CCJob.Templates
$end

$rem
sym_ignore = true
method = adc(2)
ee_states = 10
basis = cc-pVDZ
mem_static = 1024
mem_total = 40000
adc_davidson_maxiter = 900
adc_davidson_conv = 6
adc_print = 3
adc_prop_es = true
adc_prop_es2es = true
adc_prop_tpa = true
molden_format = True
state_analysis = true
print_orbitals = 15
gen_scfman = false
fde_export_density = true
fde_details = 3
$end

$molecule
0 1
H -0.023024136451870958 -0.24898674705917193 0.09687092360611402
C -1.0761908258078343 -0.5222694540605082 -0.03659008013803228
H -1.3028151016300686 -1.5949033932735004 -0.04594904019222515
C -2.046477401790551 0.391695837161846 0.040789179610443926
H -1.8198975269713153 1.4643332823699942 0.050258105739697405
H -3.099664594252327 0.11841991655797243 -0.09246272625841108                     
$end
--------------------------------------------------------------
 ----------------------------------------------------------------
             Standard Nuclear Orientation (Angstroms)
    I     Atom           X                Y                Z
 ----------------------------------------------------------------
    1      H      -0.0230241365    -0.2489867471     0.0968709236
    2      C      -1.0761908258    -0.5222694541    -0.0365900801
    3      H      -1.3028151016    -1.5949033933    -0.0459490402
    4      C      -2.0464774018     0.3916958372     0.0407891796
    5      H      -1.8198975270     1.4643332824     0.0502581057
    6      H      -3.0996645943     0.1184199166    -0.0924627263
 ----------------------------------------------------------------
 Nuclear Repulsion Energy =          33.16990384 hartrees
 There are        8 alpha and        8 beta electrons
 Requested basis set is cc-pVDZ
 There are 24 shells and 48 basis functions
 Total memory of 40000 MB is distributed as follows: 
   MEM_STATIC is set to 1024 MB
   QALLOC/CCMAN JOB total memory use is  38976 MB
 Warning: actual memory use might exceed 40000 MB

 Total QAlloc Memory Limit  40000 MB
 Mega-Array Size      1001 MB
 MEM_STATIC part      1024 MB

                       Distance Matrix (Angstroms)
             H (  1)   C (  2)   H (  3)   C (  4)   H (  5)
   C (  2)  1.096200
   H (  3)  1.862728  1.096353
   C (  4)  2.123201  1.335206  2.123001
   H (  5)  2.483222  2.123024  3.104120  1.096348
   H (  6)  3.104280  2.123217  2.483205  1.096193  1.862701

 A cutoff of  1.0D-11 yielded    300 shell pairs
 There are      1220 function pairs (      1329 Cartesian)
 Smallest overlap matrix eigenvalue = 4.87E-03

 Scale SEOQF with 1.000000e-01/1.000000e-01/1.000000e+00

 Standard Electronic Orientation quadrupole field applied
 Nucleus-field energy     =     0.0000000021 hartrees
 Guess from superposition of atomic densities
 Warning:  Energy on first SCF cycle will be non-variational
 SAD guess density has 16.000000 electrons
 A restricted Hartree-Fock SCF calculation will be
 performed using Pulay DIIS extrapolation
 SCF converges when DIIS error is below 1.0E-08
 using 10 threads for integral computing
 -------------------------------------------------------
 OpenMP Integral computing Module                
 Release: version 1.0, May 2013, Q-Chem Inc. Pittsburgh 
 -------------------------------------------------------
 ---------------------------------------
  Cycle       Energy         DIIS Error
 ---------------------------------------
    1     -78.3900954946      9.89E-02
    2     -78.0158095565      7.10E-03
    3     -78.0361436632      1.81E-03
    4     -78.0376113581      5.58E-04
    5     -78.0377263146      5.85E-05
    6     -78.0377282194      9.44E-06
    7     -78.0377282839      2.04E-06
    8     -78.0377282871      2.99E-07
    9     -78.0377282872      9.37E-08
   10     -78.0377282872      1.45E-08
   11     -78.0377282872      1.88E-09 Convergence criterion met
 ---------------------------------------
 SCF time:  CPU 2.13 s  wall 2.74 s
 SCF   energy in the final basis set = -78.03772829
 Total energy in the final basis set = -78.03772829
Exporting Density Matrix to file 'Densmat_SCF.txt'.
Export successful
================================================================================
|                                                                              |
|                                 A D C  M A N                                 |
|                                                                              |
 ------------------------------------------------------------------------------ 
|                                                                              |
| Components:                                                                  |
|                                                                              |
| - libvmm - 1.3-trunk                                                         |
|   Authors:                                                                   |
|   Evgeny Epifanovsky, Ilya Kaliman                                           |
|                                                                              |
| - libtensor - 2.5-trunk                                                      |
|   Authors:                                                                   |
|   Evgeny Epifanovsky, Michael Wormit, Dmitry Zuev, Sam Manzer,               |
|   Ilya Kaliman                                                               |
|                                                                              |
| - libwfa - 1.1-trunk                                                         |
|   Authors:                                                                   |
|   Felix Plasser, Stefanie Mewes (Baeppler), Benjamin Thomitzni,              |
|   Michael Wormit, Feng Chen, Anna I. Krylov, Pavel Pokhilko                  |
|                                                                              |
| - libadc - 1.1-trunk                                                         |
|   Authors:                                                                   |
|   Michael Wormit, Adrian L. Dempwolff, Philipp H. P. Harbach,                |
|   Caroline Krauter, Dirk Rehn, Matthias Schneider, Jan Wenzel                |
|                                                                              |
| - adcman - 2.6-trunk                                                         |
|   Authors:                                                                   |
|   Michael Wormit, Adrian L. Dempwolff, Philipp H. P. Harbach,                |
|   Caroline Krauter, Daniel Lefrancois, Jan-Michael Mewes, Dirk Rehn,         |
|   Matthias Schneider, Jan Wenzel, Andreas Dreuw                              |
|                                                                              |
| Authors of earlier versions of ADCMAN:                                       |
| Andreas Dreuw, Jan Hendrik Starcke, Dirk Rehn, Michael Wormit                |
|                                                                              |
================================================================================

 Created directory /scratch/fum/qchem77993/plots
  Import QC data ...  CPU 0.00 s  wall 0.00 s

 Alpha MOs, Restricted
 -- Occupied --                  
-11.240 -11.238  -1.030  -0.785  -0.634  -0.581  -0.498  -0.375
  1 A     2 A     3 A     4 A     5 A     6 A     7 A     8 A                  
 -- Virtual --                   
  0.165   0.203   0.231   0.236   0.303   0.461   0.580   0.609
  9 A    10 A    11 A    12 A    13 A    14 A    15 A    16 A                  
  0.690   0.709   0.777   0.806   0.858   0.923   0.968   1.005
 17 A    18 A    19 A    20 A    21 A    22 A    23 A    24 A                  
  1.072   1.237   1.260   1.285   1.288   1.584   1.727   1.745
 25 A    26 A    27 A    28 A    29 A    30 A    31 A    32 A                  
  1.818   1.853   1.855   1.901   1.959   1.965   2.212   2.252
 33 A    34 A    35 A    36 A    37 A    38 A    39 A    40 A                  
  2.343   2.422   2.500   2.612   2.676   2.803   3.074   3.335
 41 A    42 A    43 A    44 A    45 A    46 A    47 A    48 A                  

 Beta MOs, Restricted
 -- Occupied --                  
-11.240 -11.238  -1.030  -0.785  -0.634  -0.581  -0.498  -0.375
  1 A     2 A     3 A     4 A     5 A     6 A     7 A     8 A                  
 -- Virtual --                   
  0.165   0.203   0.231   0.236   0.303   0.461   0.580   0.609
  9 A    10 A    11 A    12 A    13 A    14 A    15 A    16 A                  
  0.690   0.709   0.777   0.806   0.858   0.923   0.968   1.005
 17 A    18 A    19 A    20 A    21 A    22 A    23 A    24 A                  
  1.072   1.237   1.260   1.285   1.288   1.584   1.727   1.745
 25 A    26 A    27 A    28 A    29 A    30 A    31 A    32 A                  
  1.818   1.853   1.855   1.901   1.959   1.965   2.212   2.252
 33 A    34 A    35 A    36 A    37 A    38 A    39 A    40 A                  
  2.343   2.422   2.500   2.612   2.676   2.803   3.074   3.335
 41 A    42 A    43 A    44 A    45 A    46 A    47 A    48 A                  
  Import AO data ...  CPU 0.00 s  wall 0.00 s
  Using point group: C1
  Irreducible representations in point group: A
  Molecular orbitals: 
  Occupied MOs:
  Block   0:   1 (  A) A   2 (  A) A   3 (  A) A   4 (  A) A   5 (  A) A
                  -11.24      -11.24       -1.03     -0.7854      -0.634
               6 (  A) A   7 (  A) A   8 (  A) A
                  -0.581     -0.4984     -0.3747
  Block   1:   1 (  A) B   2 (  A) B   3 (  A) B   4 (  A) B   5 (  A) B
                  -11.24      -11.24       -1.03     -0.7854      -0.634
               6 (  A) B   7 (  A) B   8 (  A) B
                  -0.581     -0.4984     -0.3747
  Virtual MOs:
  Block   0:   9 (  A) A  10 (  A) A  11 (  A) A  12 (  A) A  13 (  A) A
                   0.165      0.2027       0.231      0.2361      0.3026
              14 (  A) A  15 (  A) A  16 (  A) A  17 (  A) A  18 (  A) A
                   0.461      0.5801      0.6085      0.6903      0.7089
              19 (  A) A  20 (  A) A  21 (  A) A  22 (  A) A
                  0.7768      0.8064      0.8581      0.9232
  Block   1:  23 (  A) A  24 (  A) A  25 (  A) A  26 (  A) A  27 (  A) A
                  0.9683       1.005       1.072       1.237        1.26
              28 (  A) A  29 (  A) A  30 (  A) A  31 (  A) A  32 (  A) A
                   1.285       1.288       1.584       1.727       1.745
              33 (  A) A  34 (  A) A  35 (  A) A  36 (  A) A
                   1.818       1.853       1.855       1.901
  Block   2:  37 (  A) A  38 (  A) A  39 (  A) A  40 (  A) A  41 (  A) A
                   1.959       1.965       2.212       2.252       2.343
              42 (  A) A  43 (  A) A  44 (  A) A  45 (  A) A  46 (  A) A
                   2.422         2.5       2.612       2.676       2.803
              47 (  A) A  48 (  A) A
                   3.074       3.335
  Block   3:   9 (  A) B  10 (  A) B  11 (  A) B  12 (  A) B  13 (  A) B
                   0.165      0.2027       0.231      0.2361      0.3026
              14 (  A) B  15 (  A) B  16 (  A) B  17 (  A) B  18 (  A) B
                   0.461      0.5801      0.6085      0.6903      0.7089
              19 (  A) B  20 (  A) B  21 (  A) B  22 (  A) B
                  0.7768      0.8064      0.8581      0.9232
  Block   4:  23 (  A) B  24 (  A) B  25 (  A) B  26 (  A) B  27 (  A) B
                  0.9683       1.005       1.072       1.237        1.26
              28 (  A) B  29 (  A) B  30 (  A) B  31 (  A) B  32 (  A) B
                   1.285       1.288       1.584       1.727       1.745
              33 (  A) B  34 (  A) B  35 (  A) B  36 (  A) B
                   1.818       1.853       1.855       1.901
  Block   5:  37 (  A) B  38 (  A) B  39 (  A) B  40 (  A) B  41 (  A) B
                   1.959       1.965       2.212       2.252       2.343
              42 (  A) B  43 (  A) B  44 (  A) B  45 (  A) B  46 (  A) B
                   2.422         2.5       2.612       2.676       2.803
              47 (  A) B  48 (  A) B
                   3.074       3.335
  Import MO data ...  CPU 0.03 s  wall 0.01 s
  Import HF data ...  CPU 0.23 s  wall 0.09 s
  Import 2e integrals ...  CPU 1.24 s  wall 0.23 s

--------------------------------------------------------------------------------
                                   HF Summary                                   
--------------------------------------------------------------------------------
  Energy:                                                  -78.0377282872 a.u.
  Dip. moment [a.u.]:                  [  -0.000028,    0.000015,    0.000089]
  Total dipole [Debye]:                                               0.000241
  <r^2> [a.u.]:                        [ 175.883630,   35.268093,   11.752441]
  Total <r^2> [a.u.]:                                               222.904164
--------------------------------------------------------------------------------
  HF properties ...  CPU 0.03 s  wall 0.01 s
  MP(1) calculation ...  CPU 0.01 s  wall 0.01 s
  N^6 prerequesite intermediates ...  CPU 0.60 s  wall 0.11 s
  Difference density matrix of state mp2_gs printed to ASCII file 'State_mp2_gs_Difference.txt'
Exporting MP density matrix to file 'Densmat_MP.txt'.
Export successful
  Total density matrix of state mp2_gs printed to ASCII file 'State_mp2_gs_Total.txt'
Exporting MP density matrix to file 'Densmat_MP.txt'.
Export successful

--------------------------------------------------------------------------------
                                 MP(2) Summary                                  
--------------------------------------------------------------------------------
  MP energy contribution:                                   -0.2810306862 a.u.
  Total energy:                                            -78.3187589734 a.u.
  Dip. moment [a.u.]:                  [  -0.000024,    0.000011,    0.000087]
  Total dipole [Debye]:                                               0.000232
  <r^2> [a.u.]:                        [ 175.923704,   35.302465,   11.579708]
  Total <r^2> [a.u.]:                                               222.805878

  Density matrix analysis:
  ------------------------
  NOs
    Occupation of frontier NOs:
       0.0462   1.9374
    Number of electrons: 16.000000
    Number of unpaired electrons: n_u =  0.40952, n_u,nl =  0.04649
    NO participation ratio (PR_NO): 13.836740
  
  
  Mulliken Population Analysis
  Atom      Charge (e)              h+              e-           Del q
  --------------------------------------------------------------------
   1 H        0.055990        0.013969       -0.011390        0.002579
   2 C       -0.111977        0.095208       -0.100364       -0.005156
   3 H        0.055986        0.013970       -0.011390        0.002581
   4 C       -0.111970        0.095202       -0.100366       -0.005164
   5 H        0.055985        0.013971       -0.011390        0.002581
   6 H        0.055986        0.013969       -0.011390        0.002579
  --------------------------------------------------------------------
  Sum:       -0.000000        0.246290       -0.246290       -0.000000
  
  Multipole moment analysis of the density matrix
    Molecular charge:                      -0.000000
    Number of electrons:                   16.000000
      Center of electronic charge [Ang]: [ -1.561337,  -0.065287,   0.002117]
    Total nuclear charge:                  16.000000
      Center of nuclear charge [Ang]:    [ -1.561338,  -0.065286,   0.002119]
    Dipole moment [D]:                     0.000232
      Cartesian components [D]:          [ -0.000061,   0.000029,   0.000222]
    RMS size of the density [Ang]:         1.207253
      Cartesian components [Ang]:        [  0.800752,   0.783322,   0.450179]
  
  Exciton analysis of the difference density matrix
    <r_h> [Ang]:                  [ -1.561328,  -0.065293,   0.002102]
    <r_e> [Ang]:                  [ -1.561337,  -0.065285,   0.002106]
    |<r_e - r_h>| [Ang]:            0.000012
    Hole size [Ang]:                1.402279
      Cartesian components [Ang]: [  0.853432,   0.839813,   0.729900]
    Electron size [Ang]:            1.361841
      Cartesian components [Ang]: [  0.879707,   0.862768,   0.579964]
--------------------------------------------------------------------------------
  MP(2) calculation ...  CPU 0.37 s  wall 0.21 s
  Start ADC(2)-s ...  CPU 0.02 s  wall 0.01 s
  ADC(2) intermediates ...  CPU 0.04 s  wall 0.01 s
  Starting Davidson for singlet states of irrep A ... 
--------------------------------------------------------------------------------
   It NVec Conv  Avg. Norm  Max. Norm  Conv. states           Remark
--------------------------------------------------------------------------------
        10    0  1.329e-01  4.684e-01  0.4112 n n n n n n n n Guess.
    1   20    0  3.593e-02  2.757e-01  0.3243 n n n n n n n n 
    2   30    0  7.407e-03  3.695e-02  0.3196 n n n n n n n n 
    3   40    0  3.549e-03  2.585e-02  0.3192 n n n n n n n n 
    4   50    0  2.072e-03  1.808e-02  0.3192 n n n n n n n n 
    5   20    0  1.153e-03  1.016e-02  0.3192 n n n n n n n n Subspace collapsed.
    6   30    0  1.514e-03  1.329e-02  0.3192 n n n n n n n n 
    7   40    0  1.239e-03  1.024e-02  0.3192 n n n n n n n n 
    8   50    0  5.860e-04  4.571e-03  0.3192 n n n n n n n n 
    9   20    1  2.007e-04  1.430e-03  0.3192 n n n y n n n n Subspace collapsed.
   10   30    1  9.889e-05  7.450e-04  0.3192 n n n y n n n n 
   11   40    4  4.258e-05  2.999e-04  0.3192 y y y y n n n n 
   12   50    4  3.919e-05  2.847e-04  0.3192 y y y y n n n n 
   13   20    5  2.159e-05  1.538e-04  0.3192 y y y y y n n n Subspace collapsed.
   14   30    6  3.361e-05  2.597e-04  0.3192 y y y y y y n n 
   15   40    6  2.957e-05  2.582e-04  0.3192 y y y y y y n n 
   16   50    6  2.004e-05  1.810e-04  0.3192 y y y y y y n n 
   17   20    6  8.753e-06  8.053e-05  0.3192 y y y y y y n n Subspace collapsed.
   18   30    7  8.571e-06  7.865e-05  0.3192 y y y y y y y n 
   19   40    7  6.809e-06  6.283e-05  0.3192 y y y y y y y n 
   20   50    8  3.262e-06  3.076e-05  0.3192 y y y y y y y n 
   21   20    8  2.496e-06  2.357e-05  0.3192 y y y y y y y n Subspace collapsed.
   22   30    8  2.964e-06  2.852e-05  0.3192 y y y y y y y n 
   23   39    7  3.302e-06  3.212e-05  0.3192 y y y y y y y n 
   24   46    8  2.244e-06  2.204e-05  0.3192 y y y y y y y n 
   25   50    8  2.226e-06  2.186e-05  0.3192 y y y y y y y n 
   26   17    8  1.328e-06  1.305e-05  0.3192 y y y y y y y n Subspace collapsed.
   27   24    8  9.756e-07  9.579e-06  0.3192 y y y y y y y n 
   28   30    8  7.655e-07  7.543e-06  0.3192 y y y y y y y n 
   29   35    9  6.416e-07  6.355e-06  0.3192 y y y y y y y y 
   30   40    9  4.643e-07  4.611e-06  0.3192 y y y y y y y y 
   31   44    9  4.022e-07  4.000e-06  0.3192 y y y y y y y y 
   32   48    9  3.272e-07  3.255e-06  0.3192 y y y y y y y y 
   33   50    9  1.751e-07  1.742e-06  0.3192 y y y y y y y y 
   34   14   10  9.410e-08  9.360e-07  0.3192 y y y y y y y y Converged.
--------------------------------------------------------------------------------
  Davidson Summary: 
 ------------------------------------------------------------
  State  0: excitation energy =   0.3192 a.u.   (converged)
  State  1: excitation energy =   0.3261 a.u.   (converged)
  State  2: excitation energy =   0.3366 a.u.   (converged)
  State  3: excitation energy =   0.3581 a.u.   (converged)
  State  4: excitation energy =   0.3723 a.u.   (converged)
  State  5: excitation energy =   0.3845 a.u.   (converged)
  State  6: excitation energy =   0.4191 a.u.   (converged)
  State  7: excitation energy =   0.4411 a.u.   (converged)
  State  8: excitation energy =   0.4526 a.u.   (converged)
  State  9: excitation energy =   0.4576 a.u.   (converged)
 ------------------------------------------------------------

  Singlet states of irrep A ...  CPU 223.01 s  wall 70.33 s
  TDMs ...  CPU 2.02 s  wall 0.81 s
  SDMs ...  CPU 4.85 s  wall 1.41 s
  Starting TPA DIIS iterations ... 
------------------------------------ 
   It     Res. Norm  Remark
------------------------------------
                       Guess.
    1     4.441e+00  
    2     5.913e+00  
    3     1.098e+00  
    4     2.707e-01  
    5     6.699e-02  
    6     2.800e-02  
    7     8.511e-03  
    8     1.577e-03  
    9     5.938e-04  
   10     1.007e-04  
   11     3.229e-05  
   12     5.157e-06  
   13     1.744e-06  
   14     5.031e-07  Converged.
   ... Converged in 14 steps (norm: 5.03111e-07)
------------------------------------
  Starting TPA DIIS iterations ... 
------------------------------------ 
   It     Res. Norm  Remark
------------------------------------
                       Guess.
    1     4.144e+00  
    2     5.513e+00  
    3     1.038e+00  
    4     2.704e-01  
    5     6.695e-02  
    6     2.823e-02  
    7     8.416e-03  
    8     1.624e-03  
    9     6.151e-04  
   10     1.006e-04  
   11     3.295e-05  
   12     5.106e-06  
   13     1.798e-06  
   14     4.969e-07  Converged.
   ... Converged in 14 steps (norm: 4.96854e-07)
------------------------------------
  Starting TPA DIIS iterations ... 
------------------------------------ 
   It     Res. Norm  Remark
------------------------------------
                       Guess.
    1     1.088e+00  
    2     1.159e+00  
    3     2.382e-01  
    4     1.332e-01  
    5     1.767e-02  
    6     6.624e-03  
    7     1.119e-03  
    8     4.941e-04  
    9     1.390e-04  
   10     2.662e-05  
   11     5.521e-06  
   12     1.856e-06  
   13     5.222e-07  Converged.
   ... Converged in 13 steps (norm: 5.22187e-07)
------------------------------------
  Starting TPA DIIS iterations ... 
------------------------------------ 
   It     Res. Norm  Remark
------------------------------------
                       Guess.
    1     4.608e+00  
    2     6.213e+00  
    3     1.146e+00  
    4     2.881e-01  
    5     7.186e-02  
    6     3.021e-02  
    7     9.171e-03  
    8     1.699e-03  
    9     6.426e-04  
   10     1.093e-04  
   11     3.528e-05  
   12     5.657e-06  
   13     1.930e-06  
   14     5.550e-07  Converged.
   ... Converged in 14 steps (norm: 5.54952e-07)
------------------------------------
  Starting TPA DIIS iterations ... 
------------------------------------ 
   It     Res. Norm  Remark
------------------------------------
                       Guess.
    1     4.299e+00  
    2     5.793e+00  
    3     1.083e+00  
    4     2.875e-01  
    5     7.182e-02  
    6     3.047e-02  
    7     9.070e-03  
    8     1.752e-03  
    9     6.658e-04  
   10     1.092e-04  
   11     3.598e-05  
   12     5.599e-06  
   13     1.989e-06  
   14     5.484e-07  Converged.
   ... Converged in 14 steps (norm: 5.48386e-07)
------------------------------------
  Starting TPA DIIS iterations ... 
------------------------------------ 
   It     Res. Norm  Remark
------------------------------------
                       Guess.
    1     1.117e+00  
    2     1.211e+00  
    3     2.468e-01  
    4     1.388e-01  
    5     1.857e-02  
    6     7.045e-03  
    7     1.203e-03  
    8     5.434e-04  
    9     1.545e-04  
   10     2.824e-05  
   11     6.058e-06  
   12     2.043e-06  
   13     5.614e-07  Converged.
   ... Converged in 13 steps (norm: 5.61413e-07)
------------------------------------
  Starting TPA DIIS iterations ... 
------------------------------------ 
   It     Res. Norm  Remark
------------------------------------
                       Guess.
    1     4.887e+00  
    2     6.721e+00  
    3     1.225e+00  
    4     3.181e-01  
    5     8.023e-02  
    6     3.403e-02  
    7     1.031e-02  
    8     1.908e-03  
    9     7.273e-04  
   10     1.242e-04  
   11     4.056e-05  
   12     6.538e-06  
   13     2.266e-06  
   14     6.485e-07  Converged.
   ... Converged in 14 steps (norm: 6.48491e-07)
------------------------------------
  Starting TPA DIIS iterations ... 
------------------------------------ 
   It     Res. Norm  Remark
------------------------------------
                       Guess.
    1     4.558e+00  
    2     6.266e+00  
    3     1.157e+00  
    4     3.171e-01  
    5     8.021e-02  
    6     3.435e-02  
    7     1.020e-02  
    8     1.971e-03  
    9     7.536e-04  
   10     1.241e-04  
   11     4.132e-05  
   12     6.467e-06  
   13     2.334e-06  
   14     6.415e-07  Converged.
   ... Converged in 14 steps (norm: 6.41525e-07)
------------------------------------
  Starting TPA DIIS iterations ... 
------------------------------------ 
   It     Res. Norm  Remark
------------------------------------
                       Guess.
    1     1.165e+00  
    2     1.299e+00  
    3     2.609e-01  
    4     1.481e-01  
    5     2.009e-02  
    6     7.772e-03  
    7     1.351e-03  
    8     6.298e-04  
    9     1.816e-04  
   10     3.042e-05  
   11     7.053e-06  
   12     2.385e-06  
   13     6.492e-07  Converged.
   ... Converged in 13 steps (norm: 6.49172e-07)
------------------------------------
  Starting TPA DIIS iterations ... 
------------------------------------ 
   It     Res. Norm  Remark
------------------------------------
                       Guess.
    1     5.546e+00  
    2     7.957e+00  
    3     1.412e+00  
    4     3.937e-01  
    5     1.014e-01  
    6     4.379e-02  
    7     1.319e-02  
    8     2.438e-03  
    9     9.442e-04  
   10     1.623e-04  
   11     5.440e-05  
   12     8.854e-06  
   13     3.197e-06  
   14     9.148e-07  Converged.
   ... Converged in 14 steps (norm: 9.1475e-07)
------------------------------------
  Starting TPA DIIS iterations ... 
------------------------------------ 
   It     Res. Norm  Remark
------------------------------------
                       Guess.
    1     5.171e+00  
    2     7.417e+00  
    3     1.332e+00  
    4     3.914e-01  
    5     1.014e-01  
    6     4.426e-02  
    7     1.306e-02  
    8     2.527e-03  
    9     9.780e-04  
   10     1.622e-04  
   11     5.526e-05  
   12     8.742e-06  
   13     3.279e-06  
   14     9.066e-07  Converged.
   ... Converged in 14 steps (norm: 9.06585e-07)
------------------------------------
  Starting TPA DIIS iterations ... 
------------------------------------ 
   It     Res. Norm  Remark
------------------------------------
                       Guess.
    1     1.278e+00  
    2     1.512e+00  
    3     2.936e-01  
    4     1.702e-01  
    5     2.376e-02  
    6     9.606e-03  
    7     1.741e-03  
    8     8.458e-04  
    9     2.491e-04  
   10     3.379e-05  
   11     9.981e-06  
   12     3.376e-06  
   13     9.390e-07  Converged.
   ... Converged in 13 steps (norm: 9.39037e-07)
------------------------------------
  Starting TPA DIIS iterations ... 
------------------------------------ 
   It     Res. Norm  Remark
------------------------------------
                       Guess.
    1     6.064e+00  
    2     8.959e+00  
    3     1.557e+00  
    4     4.574e-01  
    5     1.191e-01  
    6     5.211e-02  
    7     1.562e-02  
    8     2.883e-03  
    9     1.130e-03  
   10     1.949e-04  
   11     6.651e-05  
   12     1.090e-05  
   13     4.073e-06  
   14     1.184e-06  
   15     4.323e-07  Converged.
   ... Converged in 15 steps (norm: 4.32265e-07)
------------------------------------
  Starting TPA DIIS iterations ... 
------------------------------------ 
   It     Res. Norm  Remark
------------------------------------
                       Guess.
    1     5.653e+00  
    2     8.351e+00  
    3     1.469e+00  
    4     4.538e-01  
    5     1.192e-01  
    6     5.272e-02  
    7     1.546e-02  
    8     2.995e-03  
    9     1.169e-03  
   10     1.949e-04  
   11     6.739e-05  
   12     1.074e-05  
   13     4.153e-06  
   14     1.172e-06  
   15     4.282e-07  Converged.
   ... Converged in 15 steps (norm: 4.28243e-07)
------------------------------------
  Starting TPA DIIS iterations ... 
------------------------------------ 
   It     Res. Norm  Remark
------------------------------------
                       Guess.
    1     1.366e+00  
    2     1.685e+00  
    3     3.185e-01  
    4     1.875e-01  
    5     2.673e-02  
    6     1.115e-02  
    7     2.084e-03  
    8     1.015e-03  
    9     3.029e-04  
   10     3.618e-05  
   11     1.291e-05  
   12     4.386e-06  
   13     1.213e-06  
   14     1.026e-06  
   15     2.340e-07  Converged.
   ... Converged in 15 steps (norm: 2.33952e-07)
------------------------------------
  Starting TPA DIIS iterations ... 
------------------------------------ 
   It     Res. Norm  Remark
------------------------------------
                       Guess.
    1     6.579e+00  
    2     9.981e+00  
    3     1.701e+00  
    4     5.241e-01  
    5     1.377e-01  
    6     6.091e-02  
    7     1.817e-02  
    8     3.349e-03  
    9     1.327e-03  
   10     2.296e-04  
   11     7.952e-05  
   12     1.313e-05  
   13     5.080e-06  
   14     1.522e-06  
   15     5.681e-07  Converged.
   ... Converged in 15 steps (norm: 5.68114e-07)
------------------------------------
  Starting TPA DIIS iterations ... 
------------------------------------ 
   It     Res. Norm  Remark
------------------------------------
                       Guess.
    1     6.132e+00  
    2     9.303e+00  
    3     1.604e+00  
    4     5.191e-01  
    5     1.378e-01  
    6     6.167e-02  
    7     1.799e-02  
    8     3.487e-03  
    9     1.372e-03  
   10     2.295e-04  
   11     8.035e-05  
   12     1.291e-05  
   13     5.141e-06  
   14     1.502e-06  
   15     5.586e-07  Converged.
   ... Converged in 15 steps (norm: 5.58638e-07)
------------------------------------
  Starting TPA DIIS iterations ... 
------------------------------------ 
   It     Res. Norm  Remark
------------------------------------
                       Guess.
    1     1.454e+00  
    2     1.861e+00  
    3     3.427e-01  
    4     2.047e-01  
    5     2.975e-02  
    6     1.276e-02  
    7     2.455e-03  
    8     1.173e-03  
    9     3.556e-04  
   10     3.961e-05  
   11     1.638e-05  
   12     5.654e-06  
   13     1.555e-06  
   14     1.529e-06  
   15     3.010e-07  Converged.
   ... Converged in 15 steps (norm: 3.00979e-07)
------------------------------------
  Starting TPA DIIS iterations ... 
------------------------------------ 
   It     Res. Norm  Remark
------------------------------------
                       Guess.
    1     8.489e+00  
    2     1.398e+01  
    3     2.226e+00  
    4     7.967e-01  
    5     2.138e-01  
    6     9.774e-02  
    7     2.863e-02  
    8     5.259e-03  
    9     2.160e-03  
   10     3.758e-04  
   11     1.345e-04  
   12     2.370e-05  
   13     1.012e-05  
   14     3.652e-06  
   15     1.299e-06  
   16     4.725e-07  Converged.
   ... Converged in 16 steps (norm: 4.72532e-07)
------------------------------------
  Starting TPA DIIS iterations ... 
------------------------------------ 
   It     Res. Norm  Remark
------------------------------------
                       Guess.
    1     7.909e+00  
    2     1.303e+01  
    3     2.097e+00  
    4     7.843e-01  
    5     2.141e-01  
    6     9.912e-02  
    7     2.834e-02  
    8     5.507e-03  
    9     2.217e-03  
   10     3.750e-04  
   11     1.346e-04  
   12     2.289e-05  
   13     9.893e-06  
   14     3.516e-06  
   15     1.255e-06  
   16     4.688e-07  Converged.
   ... Converged in 16 steps (norm: 4.68804e-07)
------------------------------------
  Starting TPA DIIS iterations ... 
------------------------------------ 
   It     Res. Norm  Remark
------------------------------------
                       Guess.
    1     1.778e+00  
    2     2.545e+00  
    3     4.279e-01  
    4     2.684e-01  
    5     4.148e-02  
    6     1.917e-02  
    7     4.046e-03  
    8     1.614e-03  
    9     5.402e-04  
   10     6.571e-05  
   11     3.368e-05  
   12     1.304e-05  
   13     4.055e-06  
   14     4.479e-06  
   15     1.638e-06  
   16     5.044e-07  Converged.
   ... Converged in 16 steps (norm: 5.04372e-07)
------------------------------------
  Starting TPA DIIS iterations ... 
------------------------------------ 
   It     Res. Norm  Remark
------------------------------------
                       Guess.
    1     1.022e+01  
    2     1.784e+01  
    3     2.689e+00  
    4     1.070e+00  
    5     2.907e-01  
    6     1.360e-01  
    7     3.926e-02  
    8     7.206e-03  
    9     3.043e-03  
   10     5.315e-04  
   11     1.915e-04  
   12     3.821e-05  
   13     1.681e-05  
   14     7.146e-06  
   15     2.233e-06  
   16     8.280e-07  Converged.
   ... Converged in 16 steps (norm: 8.27975e-07)
------------------------------------
  Starting TPA DIIS iterations ... 
------------------------------------ 
   It     Res. Norm  Remark
------------------------------------
                       Guess.
    1     9.517e+00  
    2     1.663e+01  
    3     2.532e+00  
    4     1.049e+00  
    5     2.912e-01  
    6     1.380e-01  
    7     3.885e-02  
    8     7.565e-03  
    9     3.094e-03  
   10     5.279e-04  
   11     1.901e-04  
   12     3.583e-05  
   13     1.599e-05  
   14     6.725e-06  
   15     2.167e-06  
   16     8.176e-07  Converged.
   ... Converged in 16 steps (norm: 8.17638e-07)
------------------------------------
  Starting TPA DIIS iterations ... 
------------------------------------ 
   It     Res. Norm  Remark
------------------------------------
                       Guess.
    1     2.070e+00  
    2     3.204e+00  
    3     5.000e-01  
    4     3.256e-01  
    5     5.275e-02  
    6     2.516e-02  
    7     5.688e-03  
    8     1.842e-03  
    9     6.945e-04  
   10     9.991e-05  
   11     5.335e-05  
   12     2.279e-05  
   13     7.024e-06  
   14     7.970e-06  
   15     3.288e-06  
   16     8.393e-07  Converged.
   ... Converged in 16 steps (norm: 8.39293e-07)
------------------------------------
  Starting TPA DIIS iterations ... 
------------------------------------ 
   It     Res. Norm  Remark
------------------------------------
                       Guess.
    1     1.135e+01  
    2     2.049e+01  
    3     2.988e+00  
    4     1.260e+00  
    5     3.449e-01  
    6     1.634e-01  
    7     4.677e-02  
    8     8.588e-03  
    9     3.688e-03  
   10     6.462e-04  
   11     2.329e-04  
   12     5.163e-05  
   13     2.265e-05  
   14     1.046e-05  
   15     3.074e-06  
   16     1.112e-06  
   17     3.359e-07  Converged.
   ... Converged in 17 steps (norm: 3.35946e-07)
------------------------------------
  Starting TPA DIIS iterations ... 
------------------------------------ 
   It     Res. Norm  Remark
------------------------------------
                       Guess.
    1     1.057e+01  
    2     1.910e+01  
    3     2.813e+00  
    4     1.232e+00  
    5     3.455e-01  
    6     1.658e-01  
    7     4.625e-02  
    8     9.022e-03  
    9     3.721e-03  
   10     6.390e-04  
   11     2.298e-04  
   12     4.725e-05  
   13     2.125e-05  
   14     9.700e-06  
   15     2.980e-06  
   16     1.087e-06  
   17     3.397e-07  Converged.
   ... Converged in 17 steps (norm: 3.39746e-07)
------------------------------------
  Starting TPA DIIS iterations ... 
------------------------------------ 
   It     Res. Norm  Remark
------------------------------------
                       Guess.
    1     2.261e+00  
    2     3.655e+00  
    3     5.452e-01  
    4     3.629e-01  
    5     6.047e-02  
    6     2.896e-02  
    7     6.828e-03  
    8     1.943e-03  
    9     7.909e-04  
   10     1.235e-04  
   11     6.703e-05  
   12     3.010e-05  
   13     8.863e-06  
   14     1.057e-05  
   15     4.570e-06  
   16     1.157e-06  
   17     3.141e-07  Converged.
   ... Converged in 17 steps (norm: 3.14147e-07)
------------------------------------
  Starting TPA DIIS iterations ... 
------------------------------------ 
   It     Res. Norm  Remark
------------------------------------
                       Guess.
    1     1.190e+01  
    2     2.181e+01  
    3     3.131e+00  
    4     1.355e+00  
    5     3.721e-01  
    6     1.773e-01  
    7     5.055e-02  
    8     9.287e-03  
    9     4.018e-03  
   10     7.056e-04  
   11     2.544e-04  
   12     5.950e-05  
   13     2.600e-05  
   14     1.241e-05  
   15     3.582e-06  
   16     1.282e-06  
   17     4.227e-07  Converged.
   ... Converged in 17 steps (norm: 4.22707e-07)
------------------------------------
  Starting TPA DIIS iterations ... 
------------------------------------ 
   It     Res. Norm  Remark
------------------------------------
                       Guess.
    1     1.109e+01  
    2     2.033e+01  
    3     2.947e+00  
    4     1.323e+00  
    5     3.727e-01  
    6     1.799e-01  
    7     4.997e-02  
    8     9.757e-03  
    9     4.040e-03  
   10     6.960e-04  
   11     2.502e-04  
   12     5.380e-05  
   13     2.423e-05  
   14     1.142e-05  
   15     3.459e-06  
   16     1.246e-06  
   17     4.286e-07  Converged.
   ... Converged in 17 steps (norm: 4.28645e-07)
------------------------------------
  Starting TPA DIIS iterations ... 
------------------------------------ 
   It     Res. Norm  Remark
------------------------------------
                       Guess.
    1     2.354e+00  
    2     3.879e+00  
    3     5.666e-01  
    4     3.809e-01  
    5     6.430e-02  
    6     3.073e-02  
    7     7.393e-03  
    8     1.986e-03  
    9     8.364e-04  
   10     1.346e-04  
   11     7.361e-05  
   12     3.376e-05  
   13     9.710e-06  
   14     1.188e-05  
   15     5.249e-06  
   16     1.350e-06  
   17     3.520e-07  Converged.
   ... Converged in 17 steps (norm: 3.5199e-07)
------------------------------------
  Two-photon absorbption ...  CPU 163.54 s  wall 43.90 s
  Transition density matrix of state singlet_A_1 printed to ASCII file 'State_singlet_A_1_Transition.txt'
  Transition density matrix of state singlet_A_2 printed to ASCII file 'State_singlet_A_2_Transition.txt'
  Transition density matrix of state singlet_A_3 printed to ASCII file 'State_singlet_A_3_Transition.txt'
  Transition density matrix of state singlet_A_4 printed to ASCII file 'State_singlet_A_4_Transition.txt'
  Transition density matrix of state singlet_A_5 printed to ASCII file 'State_singlet_A_5_Transition.txt'
  Transition density matrix of state singlet_A_6 printed to ASCII file 'State_singlet_A_6_Transition.txt'
  Transition density matrix of state singlet_A_7 printed to ASCII file 'State_singlet_A_7_Transition.txt'
  Transition density matrix of state singlet_A_8 printed to ASCII file 'State_singlet_A_8_Transition.txt'
  Transition density matrix of state singlet_A_9 printed to ASCII file 'State_singlet_A_9_Transition.txt'
  Transition density matrix of state singlet_A_10 printed to ASCII file 'State_singlet_A_10_Transition.txt'
  Transition properties ...  CPU 0.33 s  wall 0.61 s
  Difference density matrix of state singlet_A_1 printed to ASCII file 'State_singlet_A_1_Difference.txt'
  Total density matrix of state singlet_A_1 printed to ASCII file 'State_singlet_A_1_Total.txt'
  Difference density matrix of state singlet_A_2 printed to ASCII file 'State_singlet_A_2_Difference.txt'
  Total density matrix of state singlet_A_2 printed to ASCII file 'State_singlet_A_2_Total.txt'
  Difference density matrix of state singlet_A_3 printed to ASCII file 'State_singlet_A_3_Difference.txt'
  Total density matrix of state singlet_A_3 printed to ASCII file 'State_singlet_A_3_Total.txt'
  Difference density matrix of state singlet_A_4 printed to ASCII file 'State_singlet_A_4_Difference.txt'
  Total density matrix of state singlet_A_4 printed to ASCII file 'State_singlet_A_4_Total.txt'
  Difference density matrix of state singlet_A_5 printed to ASCII file 'State_singlet_A_5_Difference.txt'
  Total density matrix of state singlet_A_5 printed to ASCII file 'State_singlet_A_5_Total.txt'
  Difference density matrix of state singlet_A_6 printed to ASCII file 'State_singlet_A_6_Difference.txt'
  Total density matrix of state singlet_A_6 printed to ASCII file 'State_singlet_A_6_Total.txt'
  Difference density matrix of state singlet_A_7 printed to ASCII file 'State_singlet_A_7_Difference.txt'
  Total density matrix of state singlet_A_7 printed to ASCII file 'State_singlet_A_7_Total.txt'
  Difference density matrix of state singlet_A_8 printed to ASCII file 'State_singlet_A_8_Difference.txt'
  Total density matrix of state singlet_A_8 printed to ASCII file 'State_singlet_A_8_Total.txt'
  Difference density matrix of state singlet_A_9 printed to ASCII file 'State_singlet_A_9_Difference.txt'
  Total density matrix of state singlet_A_9 printed to ASCII file 'State_singlet_A_9_Total.txt'
  Difference density matrix of state singlet_A_10 printed to ASCII file 'State_singlet_A_10_Difference.txt'
  Total density matrix of state singlet_A_10 printed to ASCII file 'State_singlet_A_10_Total.txt'
  Properties ...  CPU 0.62 s  wall 1.04 s
  ISR TDMS ...  CPU 25.87 s  wall 8.65 s
  ISR transition properties ...  CPU 0.67 s  wall 0.30 s
  Sum-over-states TPA ...  CPU 0.00 s  wall 0.00 s

--------------------------------------------------------------------------------
                   State-averaged natural transition orbitals
--------------------------------------------------------------------------------
--------------------------------------------------------------------------------
  SA-NTO decomposition ...  CPU 0.01 s  wall 0.03 s

--------------------------------------------------------------------------------
                             Excited State Summary
--------------------------------------------------------------------------------
--------------------------------------------------------------------------------

  Excited state 1 (singlet, A)                                     [converged]
  ----------------------------------------------------------------------------
  Term symbol:  2 (1) A                                     R^2 =  4.61440e-13

  Total energy:                                            -77.9995503971 a.u.
  Excitation energy:                                               8.686107 eV

  Osc. strength:                                                      0.434081
  Trans. dip. moment [a.u.]:           [   1.037857,   -0.976134,   -0.099068]
  <i|r^2|0> [a.u.]:                    [   6.124462,   -0.241039,    0.000844]
  Two-photon absorption cross-section (SoS) [a.u.]:                   0.000001
  Two-photon absorption matrix (SoS) [a.u.]:
                                       |    0.000205    0.000003    0.000022 |
                                       |    0.000003   -0.000331    0.000192 |
                                       |    0.000022    0.000192   -0.000178 |
  Two-photon absorption cross-section [a.u.]:                         0.000005
  Two-photon absorption matrix [a.u.]:
                                       |    0.000306    0.000020   -0.000376 |
                                       |    0.000020   -0.000751   -0.000116 |
                                       |   -0.000376   -0.000116   -0.000160 |

  Dip. moment [a.u.]:                  [  -0.000076,    0.000050,    0.000097]
  Total dipole [Debye]:                                               0.000338
  <r^2> [a.u.]:                        [ 176.797501,   36.117569,   11.958391]
  Total <r^2> [a.u.]:                                               224.873461

  V1^2 = 0.9706, V2^2 = 0.0294

  Important amplitudes:
      occ i     occ j     vir a      vir b          v   
    -----------------------------------------------------
     8 (A) A              9 (A) A                 0.6792
     6 (A) A             14 (A) A                 0.0614
     4 (A) A             10 (A) A                -0.0587
     7 (A) A             16 (A) A                 0.0561
     5 (A) A             13 (A) A                -0.0525
     6 (A) A             23 (A) A                 0.0482
     8 (A) A             10 (A) A                -0.0476
     8 (A) A             20 (A) A                -0.0337
     6 (A) A             19 (A) A                -0.0296
     3 (A) A             12 (A) A                -0.0280
     5 (A) A             22 (A) A                -0.0214
     4 (A) A              9 (A) A                 0.0206
     4 (A) A             24 (A) A                -0.0185
     7 (A) A             11 (A) A                 0.0184
     3 (A) A             26 (A) A                -0.0183
     8 (A) A   8 (A) B   17 (A) A   20 (A) B      0.0181
     8 (A) A   8 (A) B    9 (A) A   27 (A) B     -0.0165
     6 (A) A             26 (A) A                 0.0159
     7 (A) A             21 (A) A                 0.0151
     3 (A) A             14 (A) A                -0.0141
     6 (A) A             12 (A) A                -0.0133
     3 (A) A   4 (A) B    9 (A) A    9 (A) B      0.0128
     3 (A) A             19 (A) A                 0.0118
     8 (A) A   8 (A) B   18 (A) A   19 (A) B     -0.0106
     7 (A) A             32 (A) A                 0.0093
     8 (A) A             24 (A) A                -0.0090
     7 (A) A             36 (A) A                -0.0084
     3 (A) A             23 (A) A                -0.0082
     6 (A) A             35 (A) A                -0.0068
     8 (A) A   8 (A) B   25 (A) A   29 (A) B     -0.0067
     5 (A) A             28 (A) A                -0.0065
     3 (A) A   6 (A) B    9 (A) A   27 (A) B      0.0064
     5 (A) A   8 (A) B   11 (A) A    9 (A) B      0.0063
     6 (A) A             40 (A) A                 0.0063
     5 (A) A   7 (A) B    9 (A) A    9 (A) B     -0.0060
     7 (A) A   8 (A) B   13 (A) A   20 (A) B     -0.0059
     5 (A) A   8 (A) B   11 (A) A   20 (A) B      0.0059
     5 (A) A   8 (A) B   16 (A) A    9 (A) B     -0.0059
     6 (A) A   8 (A) A   19 (A) A   27 (A) A     -0.0057
     7 (A) A   8 (A) B   22 (A) A   20 (A) B     -0.0056
    -----------------------------------------------------

  Density matrix analysis:
  ------------------------
  NOs
    Occupation of frontier NOs:
       0.9509   1.0202
    Number of electrons: 16.000000
    Number of unpaired electrons: n_u =  2.31802, n_u,nl =  2.03336
    NO participation ratio (PR_NO):  2.866509
  
  
  Mulliken Population Analysis
  Atom      Charge (e)              h+              e-           Del q
  --------------------------------------------------------------------
   1 H        0.058814        0.021645       -0.018820        0.002825
   2 C       -0.117641        0.490351       -0.496015       -0.005664
   3 H        0.058816        0.021662       -0.018832        0.002830
   4 C       -0.117644        0.490347       -0.496021       -0.005674
   5 H        0.058818        0.021640       -0.018807        0.002834
   6 H        0.058836        0.021665       -0.018815        0.002850
  --------------------------------------------------------------------
  Sum:       -0.000000        1.067309       -1.067309       -0.000000
  
  Multipole moment analysis of the density matrix
    Molecular charge:                      -0.000000
    Number of electrons:                   16.000000
      Center of electronic charge [Ang]: [ -1.561336,  -0.065288,   0.002116]
    Total nuclear charge:                  16.000000
      Center of nuclear charge [Ang]:    [ -1.561338,  -0.065286,   0.002119]
    Dipole moment [D]:                     0.000338
      Cartesian components [D]:          [ -0.000193,   0.000126,   0.000247]
    RMS size of the density [Ang]:         1.222150
      Cartesian components [Ang]:        [  0.810248,   0.792376,   0.457481]
  
  Exciton analysis of the difference density matrix
    <r_h> [Ang]:                  [ -1.561346,  -0.065310,   0.002073]
    <r_e> [Ang]:                  [ -1.561320,  -0.065329,   0.002068]
    |<r_e - r_h>| [Ang]:            0.000032
    Hole size [Ang]:                1.292778
      Cartesian components [Ang]: [  0.735382,   0.717283,   0.784852]
    Electron size [Ang]:            1.487891
      Cartesian components [Ang]: [  0.877567,   0.853434,   0.845782]

  Transition density matrix analysis:
  -----------------------------------
  
  CT numbers (Mulliken)
    omega =     0.9521
    <Phe> =    -0.1593
  
  Exciton analysis of the transition density matrix
    Trans. dipole moment [D]:             1.815080
      Cartesian components [D]:         [  1.318985,  -1.240542,  -0.125903]
    <r_h> [Ang]:                        [ -1.561343,  -0.065302,   0.002080]
    <r_e> [Ang]:                        [ -1.561314,  -0.065324,   0.002062]
    |<r_e - r_h>| [Ang]:                  0.000041
    Hole size [Ang]:                      1.215976
      Cartesian components [Ang]:       [  0.651308,   0.636173,   0.806026]
    Electron size [Ang]:                  1.513496
      Cartesian components [Ang]:       [  0.889828,   0.863528,   0.867868]
    RMS electron-hole separation [Ang]:   1.958889
      Cartesian components [Ang]:       [  1.127679,   1.092148,   1.171665]
    Covariance(r_h, r_e) [Ang^2]:        -0.033990
    Correlation coefficient:             -0.018469
    Center-of-mass size [Ang]:            0.961937
      Cartesian components [Ang]:       [  0.538594,   0.526310,   0.598529]

  Decomposition into state-averaged NTOs
    H- 0 -> L+ 0: -0.6631 ( 87.9%)
    H- 0 -> L+ 1:  0.0930 (  1.7%)
    H- 2 -> L+ 5: -0.0824 (  1.4%)
                   omega =  95.2%
  ----------------------------------------------------------------------------


  Excited state 2 (singlet, A)                                     [converged]
  ----------------------------------------------------------------------------
  Term symbol:  3 (1) A                                     R^2 =  4.48854e-13

  Total energy:                                            -77.9926873051 a.u.
  Excitation energy:                                               8.872861 eV

  Osc. strength:                                                      0.000000
  Trans. dip. moment [a.u.]:           [   0.000670,   -0.000547,   -0.000035]
  <i|r^2|0> [a.u.]:                    [  -0.141455,    0.297200,   -0.151905]
  Two-photon absorption cross-section (SoS) [a.u.]:                   4.461671
  Two-photon absorption matrix (SoS) [a.u.]:
                                       |   -0.230493    0.038664   -0.486256 |
                                       |    0.038664    0.338065   -0.480091 |
                                       |   -0.486256   -0.480091   -0.105580 |
  Two-photon absorption cross-section [a.u.]:                         7.281419
  Two-photon absorption matrix [a.u.]:
                                       |   -0.945415   -0.060767    0.070112 |
                                       |   -0.060767    0.918651    0.179784 |
                                       |    0.070112    0.179784    0.027606 |

  Dip. moment [a.u.]:                  [  -0.000113,   -0.000044,    0.000190]
  Total dipole [Debye]:                                               0.000572
  <r^2> [a.u.]:                        [ 174.953927,   34.235294,   13.328475]
  Total <r^2> [a.u.]:                                               222.517696

  V1^2 = 0.9538, V2^2 = 0.0462

  Important amplitudes:
      occ i     occ j     vir a      vir b          v   
    -----------------------------------------------------
     7 (A) A              9 (A) A                -0.6708
     8 (A) A             11 (A) A                -0.1344
     7 (A) A             20 (A) A                 0.0755
     7 (A) A             10 (A) A                -0.0433
     5 (A) A   8 (A) B    9 (A) A    9 (A) B      0.0315
     8 (A) A             16 (A) A                 0.0261
     8 (A) A             21 (A) A                -0.0157
     5 (A) A             27 (A) A                 0.0150
     4 (A) A   7 (A) B    9 (A) A   19 (A) B     -0.0135
     5 (A) A   7 (A) B    9 (A) A   16 (A) B     -0.0134
     7 (A) A   8 (A) B   20 (A) A   17 (A) B     -0.0105
     7 (A) A   8 (A) A    9 (A) A   27 (A) A     -0.0097
     5 (A) A   8 (A) B    9 (A) A   20 (A) B     -0.0094
     4 (A) A   6 (A) B    9 (A) A   16 (A) B      0.0091
     5 (A) A   6 (A) A    9 (A) A   23 (A) A     -0.0091
     5 (A) A   6 (A) A    9 (A) A   14 (A) A     -0.0089
     5 (A) A   6 (A) B    9 (A) A   19 (A) B      0.0086
     4 (A) A   5 (A) A    9 (A) A   10 (A) A     -0.0086
     6 (A) A   7 (A) B    9 (A) A   18 (A) B     -0.0085
     8 (A) A   7 (A) B    9 (A) A   27 (A) B      0.0085
     5 (A) A   6 (A) B    9 (A) A   23 (A) B     -0.0080
     3 (A) A   7 (A) B    9 (A) A   18 (A) B     -0.0079
     5 (A) A   7 (A) A    9 (A) A   16 (A) A     -0.0078
     7 (A) A   8 (A) B   17 (A) A   20 (A) B     -0.0075
     4 (A) A   7 (A) B   19 (A) A    9 (A) B     -0.0074
     5 (A) A   5 (A) B    9 (A) A   13 (A) B      0.0072
     4 (A) A   5 (A) B    9 (A) A   18 (A) B      0.0069
     7 (A) A   8 (A) B   19 (A) A   18 (A) B      0.0068
     5 (A) A   8 (A) A    9 (A) A   20 (A) A     -0.0068
     4 (A) A   8 (A) B    9 (A) A   25 (A) B     -0.0068
     7 (A) A   8 (A) B   17 (A) A    9 (A) B      0.0067
     7 (A) A   7 (A) B   20 (A) A   22 (A) B      0.0066
     5 (A) A   6 (A) B    9 (A) A   14 (A) B     -0.0063
     4 (A) A   5 (A) B   10 (A) A    9 (A) B      0.0062
     5 (A) A   7 (A) B   11 (A) A   20 (A) B     -0.0062
     4 (A) A   7 (A) A    9 (A) A   19 (A) A     -0.0060
     5 (A) A             38 (A) A                 0.0059
     4 (A) A   6 (A) B   16 (A) A    9 (A) B      0.0058
     6 (A) A   7 (A) A   19 (A) A   27 (A) A      0.0055
     5 (A) A   7 (A) A   11 (A) A   20 (A) A     -0.0054
    -----------------------------------------------------

  Density matrix analysis:
  ------------------------
  NOs
    Occupation of frontier NOs:
       0.9663   1.0453
    Number of electrons: 16.000000
    Number of unpaired electrons: n_u =  2.35954, n_u,nl =  2.05838
    NO participation ratio (PR_NO):  2.989379
  
  
  Mulliken Population Analysis
  Atom      Charge (e)              h+              e-           Del q
  --------------------------------------------------------------------
   1 H        0.158629        0.125887       -0.023248        0.102639
   2 C       -0.317606        0.273067       -0.478696       -0.205629
   3 H        0.158979        0.126240       -0.023247        0.102993
   4 C       -0.317616        0.273069       -0.478714       -0.205646
   5 H        0.158970        0.126261       -0.023275        0.102986
   6 H        0.158643        0.125870       -0.023213        0.102657
  --------------------------------------------------------------------
  Sum:       -0.000000        1.050393       -1.050393       -0.000000
  
  Multipole moment analysis of the density matrix
    Molecular charge:                      0.000000
    Number of electrons:                   16.000000
      Center of electronic charge [Ang]: [ -1.561334,  -0.065285,   0.002113]
    Total nuclear charge:                  16.000000
      Center of nuclear charge [Ang]:    [ -1.561338,  -0.065286,   0.002119]
    Dipole moment [D]:                     0.000572
      Cartesian components [D]:          [ -0.000286,  -0.000113,   0.000482]
    RMS size of the density [Ang]:         1.205166
      Cartesian components [Ang]:        [  0.790089,   0.771308,   0.482978]
  
  Exciton analysis of the difference density matrix
    <r_h> [Ang]:                  [ -1.561330,  -0.065263,   0.002133]
    <r_e> [Ang]:                  [ -1.561286,  -0.065235,   0.002081]
    |<r_e - r_h>| [Ang]:            0.000074
    Hole size [Ang]:                1.497165
      Cartesian components [Ang]: [  1.015074,   1.003719,   0.451306]
    Electron size [Ang]:            1.471333
      Cartesian components [Ang]: [  0.878623,   0.850267,   0.818467]

  Transition density matrix analysis:
  -----------------------------------
  
  CT numbers (Mulliken)
    omega =     0.9208
    <Phe> =    -0.0126
  
  Exciton analysis of the transition density matrix
    Trans. dipole moment [D]:             0.001100
      Cartesian components [D]:         [  0.000852,  -0.000695,  -0.000044]
    <r_h> [Ang]:                        [ -1.561337,  -0.065266,   0.002144]
    <r_e> [Ang]:                        [ -1.561280,  -0.065231,   0.002068]
    |<r_e - r_h>| [Ang]:                  0.000102
    Hole size [Ang]:                      1.531037
      Cartesian components [Ang]:       [  1.041773,   1.030881,   0.442796]
    Electron size [Ang]:                  1.466094
      Cartesian components [Ang]:       [  0.866654,   0.836247,   0.836083]
    RMS electron-hole separation [Ang]:   2.099540
      Cartesian components [Ang]:       [  1.338894,   1.312174,   0.945320]
    Covariance(r_h, r_e) [Ang^2]:         0.042721
    Correlation coefficient:              0.019032
    Center-of-mass size [Ang]:            1.069924
      Cartesian components [Ang]:       [  0.685589,   0.671239,   0.473438]

  Decomposition into state-averaged NTOs
    H- 1 -> L+ 0: -0.6642 ( 88.2%)
    H- 0 -> L+ 2: -0.1344 (  3.6%)
                   omega =  92.1%
  ----------------------------------------------------------------------------


  Excited state 3 (singlet, A)                                     [converged]
  ----------------------------------------------------------------------------
  Term symbol:  4 (1) A                                     R^2 =  3.17212e-13

  Total energy:                                            -77.9821208044 a.u.
  Excitation energy:                                               9.160390 eV

  Osc. strength:                                                      0.038216
  Trans. dip. moment [a.u.]:           [   0.174585,   -0.128708,   -0.351053]
  <i|r^2|0> [a.u.]:                    [   1.029937,   -0.031593,    0.002831]
  Two-photon absorption cross-section (SoS) [a.u.]:                   0.000022
  Two-photon absorption matrix (SoS) [a.u.]:
                                       |   -0.001273   -0.000079   -0.000261 |
                                       |   -0.000079    0.001602   -0.000081 |
                                       |   -0.000261   -0.000081    0.000747 |
  Two-photon absorption cross-section [a.u.]:                         0.000016
  Two-photon absorption matrix [a.u.]:
                                       |   -0.000704   -0.000184   -0.000175 |
                                       |   -0.000184    0.001511   -0.000002 |
                                       |   -0.000175   -0.000002    0.000460 |

  Dip. moment [a.u.]:                  [   0.000163,    0.000096,   -0.000094]
  Total dipole [Debye]:                                               0.000537
  <r^2> [a.u.]:                        [ 181.293697,   40.834193,   11.173250]
  Total <r^2> [a.u.]:                                               233.301140

  V1^2 = 0.9584, V2^2 = 0.0416

  Important amplitudes:
      occ i     occ j     vir a      vir b          v   
    -----------------------------------------------------
     8 (A) A             10 (A) A                 0.6870
     8 (A) A             24 (A) A                 0.0498
     8 (A) A              9 (A) A                 0.0460
     8 (A) A             18 (A) A                -0.0334
     8 (A) A   8 (A) B    9 (A) A   12 (A) B     -0.0216
     4 (A) A              9 (A) A                -0.0209
     8 (A) A   8 (A) B   10 (A) A   17 (A) B      0.0169
     5 (A) A   8 (A) B   11 (A) A   10 (A) B      0.0167
     8 (A) A             15 (A) A                 0.0150
     7 (A) A   8 (A) B   13 (A) A   10 (A) B     -0.0141
     4 (A) A             10 (A) A                -0.0125
     6 (A) A   8 (A) A   10 (A) A   15 (A) A      0.0111
     4 (A) A   8 (A) B   12 (A) A   10 (A) B      0.0110
     6 (A) A   8 (A) B   15 (A) A   10 (A) B     -0.0108
     4 (A) A   8 (A) A   10 (A) A   12 (A) A     -0.0107
     7 (A) A   8 (A) B   22 (A) A   10 (A) B     -0.0107
     7 (A) A   8 (A) A   10 (A) A   13 (A) A      0.0098
     7 (A) A   8 (A) A   10 (A) A   22 (A) A      0.0097
     6 (A) A             14 (A) A                 0.0097
     5 (A) A   8 (A) A   10 (A) A   11 (A) A     -0.0096
     7 (A) A             16 (A) A                 0.0093
     5 (A) A   8 (A) B   21 (A) A   10 (A) B      0.0092
     5 (A) A             13 (A) A                -0.0088
     6 (A) A   8 (A) B   10 (A) A   10 (A) B      0.0086
     6 (A) A   8 (A) A   10 (A) A   18 (A) A      0.0084
     7 (A) A   8 (A) A   12 (A) A   16 (A) A     -0.0083
     8 (A) A             20 (A) A                -0.0081
     3 (A) A   4 (A) B   10 (A) A    9 (A) B      0.0079
     5 (A) A   8 (A) A   10 (A) A   21 (A) A     -0.0078
     6 (A) A             23 (A) A                 0.0077
     4 (A) A   8 (A) B   19 (A) A   10 (A) B     -0.0074
     8 (A) A   8 (A) B    9 (A) A   23 (A) B      0.0074
     8 (A) A   8 (A) B   10 (A) A   27 (A) B     -0.0074
     3 (A) A   8 (A) A   10 (A) A   24 (A) A     -0.0071
     7 (A) A   8 (A) B   16 (A) A   12 (A) B      0.0071
     5 (A) A   8 (A) B   10 (A) A   11 (A) B      0.0070
     3 (A) A   8 (A) B   10 (A) A   10 (A) B      0.0066
     3 (A) A   8 (A) B   10 (A) A   18 (A) B     -0.0065
     6 (A) A   8 (A) B   18 (A) A   10 (A) B     -0.0063
     8 (A) A   8 (A) B    9 (A) A   19 (A) B      0.0062
    -----------------------------------------------------

  Density matrix analysis:
  ------------------------
  NOs
    Occupation of frontier NOs:
       0.9819   0.9843
    Number of electrons: 16.000000
    Number of unpaired electrons: n_u =  2.29086, n_u,nl =  2.02539
    NO participation ratio (PR_NO):  2.705509
  
  
  Mulliken Population Analysis
  Atom      Charge (e)              h+              e-           Del q
  --------------------------------------------------------------------
   1 H       -0.149578        0.053810       -0.259378       -0.205568
   2 C        0.299276        0.536122       -0.124870        0.411252
   3 H       -0.149687        0.053816       -0.259489       -0.205673
   4 C        0.299287        0.536125       -0.124869        0.411257
   5 H       -0.149659        0.053814       -0.259457       -0.205643
   6 H       -0.149638        0.053809       -0.259433       -0.205624
  --------------------------------------------------------------------
  Sum:       -0.000000        1.287496       -1.287496       -0.000000
  
  Multipole moment analysis of the density matrix
    Molecular charge:                      -0.000000
    Number of electrons:                   16.000000
      Center of electronic charge [Ang]: [ -1.561344,  -0.065289,   0.002123]
    Total nuclear charge:                  16.000000
      Center of nuclear charge [Ang]:    [ -1.561338,  -0.065286,   0.002119]
    Dipole moment [D]:                     0.000537
      Cartesian components [D]:          [  0.000414,   0.000243,  -0.000240]
    RMS size of the density [Ang]:         1.281064
      Cartesian components [Ang]:        [  0.857420,   0.842857,   0.442207]
  
  Exciton analysis of the difference density matrix
    <r_h> [Ang]:                  [ -1.561335,  -0.065290,   0.002093]
    <r_e> [Ang]:                  [ -1.561412,  -0.065324,   0.002168]
    |<r_e - r_h>| [Ang]:            0.000113
    Hole size [Ang]:                1.412143
      Cartesian components [Ang]: [  0.836210,   0.819607,   0.789395]
    Electron size [Ang]:            2.067996
      Cartesian components [Ang]: [  1.366372,   1.369268,   0.731260]

  Transition density matrix analysis:
  -----------------------------------
  
  CT numbers (Mulliken)
    omega =     0.9255
    <Phe> =    -0.0142
  
  Exciton analysis of the transition density matrix
    Trans. dipole moment [D]:             0.524431
      Cartesian components [D]:         [  0.221875,  -0.163571,  -0.446144]
    <r_h> [Ang]:                        [ -1.561324,  -0.065292,   0.002069]
    <r_e> [Ang]:                        [ -1.561438,  -0.065339,   0.002186]
    |<r_e - r_h>| [Ang]:                  0.000169
    Hole size [Ang]:                      1.214927
      Cartesian components [Ang]:       [  0.640184,   0.620982,   0.824982]
    Electron size [Ang]:                  2.282850
      Cartesian components [Ang]:       [  1.507158,   1.512680,   0.807266]
    RMS electron-hole separation [Ang]:   2.576531
      Cartesian components [Ang]:       [  1.630204,   1.628516,   1.152773]
    Covariance(r_h, r_e) [Ang^2]:         0.024469
    Correlation coefficient:              0.008822
    Center-of-mass size [Ang]:            1.297728
      Cartesian components [Ang]:       [  0.822368,   0.820910,   0.577854]

  Decomposition into state-averaged NTOs
    H- 0 -> L+ 1: -0.6729 ( 90.5%)
    H- 0 -> L+ 0: -0.0918 (  1.7%)
                   omega =  92.5%
  ----------------------------------------------------------------------------


  Excited state 4 (singlet, A)                                     [converged]
  ----------------------------------------------------------------------------
  Term symbol:  5 (1) A                                     R^2 =  4.94309e-13

  Total energy:                                            -77.9606396728 a.u.
  Excitation energy:                                               9.744922 eV

  Osc. strength:                                                      0.000000
  Trans. dip. moment [a.u.]:           [  -0.000164,    0.000144,    0.000022]
  <i|r^2|0> [a.u.]:                    [  -0.024986,    0.059356,   -0.035339]
  Two-photon absorption cross-section (SoS) [a.u.]:                 144.854547
  Two-photon absorption matrix (SoS) [a.u.]:
                                       |   -0.757730    0.260940   -2.865831 |
                                       |    0.260940    1.388070   -2.894288 |
                                       |   -2.865831   -2.894288   -0.629909 |
  Two-photon absorption cross-section [a.u.]:                       105.173650
  Two-photon absorption matrix [a.u.]:
                                       |   -1.444998    0.160244   -2.279881 |
                                       |    0.160244    1.935606   -2.210306 |
                                       |   -2.279881   -2.210306   -0.490761 |

  Dip. moment [a.u.]:                  [  -0.000066,   -0.000034,   -0.000129]
  Total dipole [Debye]:                                               0.000378
  <r^2> [a.u.]:                        [ 181.593014,   41.061747,   10.819841]
  Total <r^2> [a.u.]:                                               233.474601

  V1^2 = 0.9632, V2^2 = 0.0368

  Important amplitudes:
      occ i     occ j     vir a      vir b          v   
    -----------------------------------------------------
     8 (A) A             11 (A) A                -0.6723
     7 (A) A              9 (A) A                 0.1365
     8 (A) A             21 (A) A                -0.0782
     8 (A) A             16 (A) A                 0.0682
     8 (A) A   8 (A) B    9 (A) A   13 (A) B      0.0169
     5 (A) A   8 (A) B   11 (A) A   11 (A) B     -0.0157
     8 (A) A   8 (A) B   11 (A) A   17 (A) B     -0.0136
     7 (A) A   8 (A) B   13 (A) A   11 (A) B      0.0128
     7 (A) A             20 (A) A                -0.0119
     4 (A) A   8 (A) B   12 (A) A   11 (A) B     -0.0111
     5 (A) A   8 (A) A   11 (A) A   21 (A) A      0.0110
     8 (A) A   8 (A) B    9 (A) A   22 (A) B      0.0109
     7 (A) A   8 (A) A   11 (A) A   22 (A) A     -0.0095
     6 (A) A   8 (A) B   10 (A) A   11 (A) B     -0.0090
     6 (A) A   8 (A) B   15 (A) A   11 (A) B      0.0090
     7 (A) A   8 (A) B   22 (A) A   11 (A) B      0.0088
     3 (A) A   4 (A) B   11 (A) A    9 (A) B     -0.0083
     6 (A) A   8 (A) A   11 (A) A   15 (A) A     -0.0080
     7 (A) A   8 (A) A   13 (A) A   16 (A) A      0.0079
     3 (A) A   8 (A) B   11 (A) A   18 (A) B      0.0079
     7 (A) A   8 (A) A   11 (A) A   13 (A) A     -0.0075
     4 (A) A   8 (A) B   19 (A) A   11 (A) B      0.0070
     5 (A) A   8 (A) B   21 (A) A   11 (A) B     -0.0070
     4 (A) A   8 (A) A   11 (A) A   12 (A) A      0.0062
     5 (A) A   8 (A) B    9 (A) A    9 (A) B     -0.0062
     3 (A) A   6 (A) B   11 (A) A   27 (A) B     -0.0060
     6 (A) A   8 (A) A   11 (A) A   18 (A) A     -0.0059
     6 (A) A   8 (A) B   18 (A) A   11 (A) B      0.0058
     7 (A) A   8 (A) B   16 (A) A   13 (A) B     -0.0057
     3 (A) A   8 (A) B   11 (A) A   30 (A) B      0.0056
     7 (A) A   8 (A) B   12 (A) A   10 (A) B      0.0056
     6 (A) A   8 (A) B   11 (A) A   10 (A) B     -0.0055
     5 (A) A   8 (A) B   10 (A) A   10 (A) B     -0.0055
     8 (A) A   8 (A) B   20 (A) A   22 (A) B     -0.0054
     3 (A) A   8 (A) A   11 (A) A   18 (A) A      0.0053
     3 (A) A   8 (A) A   11 (A) A   24 (A) A      0.0053
     5 (A) A   8 (A) A   11 (A) A   16 (A) A     -0.0050
     3 (A) A   5 (A) B   11 (A) A   25 (A) B      0.0048
     6 (A) A   8 (A) A   10 (A) A   16 (A) A     -0.0047
     7 (A) A             10 (A) A                 0.0047
    -----------------------------------------------------

  Density matrix analysis:
  ------------------------
  NOs
    Occupation of frontier NOs:
       0.9486   1.0193
    Number of electrons: 16.000000
    Number of unpaired electrons: n_u =  2.32300, n_u,nl =  2.04457
    NO participation ratio (PR_NO):  2.878052
  
  
  Mulliken Population Analysis
  Atom      Charge (e)              h+              e-           Del q
  --------------------------------------------------------------------
   1 H       -0.127329        0.044833       -0.228152       -0.183318
   2 C        0.254576        0.500579       -0.134027        0.366552
   3 H       -0.127254        0.044876       -0.228116       -0.183240
   4 C        0.254584        0.500577       -0.134022        0.366554
   5 H       -0.127274        0.044876       -0.228134       -0.183259
   6 H       -0.127304        0.044833       -0.228122       -0.183290
  --------------------------------------------------------------------
  Sum:       -0.000000        1.180573       -1.180573       -0.000000
  
  Multipole moment analysis of the density matrix
    Molecular charge:                      -0.000000
    Number of electrons:                   16.000000
      Center of electronic charge [Ang]: [ -1.561336,  -0.065285,   0.002124]
    Total nuclear charge:                  16.000000
      Center of nuclear charge [Ang]:    [ -1.561338,  -0.065286,   0.002119]
    Dipole moment [D]:                     0.000378
      Cartesian components [D]:          [ -0.000169,  -0.000085,  -0.000327]
    RMS size of the density [Ang]:         1.282258
      Cartesian components [Ang]:        [  0.860483,   0.845217,   0.435157]
  
  Exciton analysis of the difference density matrix
    <r_h> [Ang]:                  [ -1.561329,  -0.065287,   0.002089]
    <r_e> [Ang]:                  [ -1.561310,  -0.065267,   0.002185]
    |<r_e - r_h>| [Ang]:            0.000101
    Hole size [Ang]:                1.392860
      Cartesian components [Ang]: [  0.817528,   0.801819,   0.792964]
    Electron size [Ang]:            2.114405
      Cartesian components [Ang]: [  1.418857,   1.417392,   0.669741]

  Transition density matrix analysis:
  -----------------------------------
  
  CT numbers (Mulliken)
    omega =     0.9288
    <Phe> =    -0.0139
  
  Exciton analysis of the transition density matrix
    Trans. dipole moment [D]:             0.000279
      Cartesian components [D]:         [ -0.000209,   0.000183,   0.000029]
    <r_h> [Ang]:                        [ -1.561327,  -0.065289,   0.002072]
    <r_e> [Ang]:                        [ -1.561305,  -0.065263,   0.002200]
    |<r_e - r_h>| [Ang]:                  0.000132
    Hole size [Ang]:                      1.227226
      Cartesian components [Ang]:       [  0.658977,   0.642071,   0.812144]
    Electron size [Ang]:                  2.253431
      Cartesian components [Ang]:       [  1.511898,   1.511932,   0.711461]
    RMS electron-hole separation [Ang]:   2.554783
      Cartesian components [Ang]:       [  1.640486,   1.634426,   1.079060]
    Covariance(r_h, r_e) [Ang^2]:         0.028560
    Correlation coefficient:              0.010327
    Center-of-mass size [Ang]:            1.288522
      Cartesian components [Ang]:       [  0.829002,   0.825384,   0.540171]

  Decomposition into state-averaged NTOs
    H- 0 -> L+ 2: -0.6675 ( 89.1%)
    H- 1 -> L+ 0:  0.1346 (  3.6%)
                   omega =  92.9%
  ----------------------------------------------------------------------------


  Excited state 5 (singlet, A)                                     [converged]
  ----------------------------------------------------------------------------
  Term symbol:  6 (1) A                                     R^2 =  1.67681e-13

  Total energy:                                            -77.9464918429 a.u.
  Excitation energy:                                              10.129904 eV

  Osc. strength:                                                      0.000000
  Trans. dip. moment [a.u.]:           [  -0.000037,   -0.000012,    0.000015]
  <i|r^2|0> [a.u.]:                    [   0.053865,   -0.136491,    0.000517]
  Two-photon absorption cross-section (SoS) [a.u.]:                 200.840865
  Two-photon absorption matrix (SoS) [a.u.]:
                                       |   -0.587429    0.793563   -3.467828 |
                                       |    0.793563   -1.242492    3.275051 |
                                       |   -3.467828    3.275051    0.067086 |
  Two-photon absorption cross-section [a.u.]:                       110.477086
  Two-photon absorption matrix [a.u.]:
                                       |   -1.141846    0.080067   -2.388194 |
                                       |    0.080067   -1.623095    2.110843 |
                                       |   -2.388194    2.110843    0.190603 |

  Dip. moment [a.u.]:                  [   0.000028,   -0.000056,    0.000031]
  Total dipole [Debye]:                                               0.000179
  <r^2> [a.u.]:                        [ 179.517978,   38.859182,   11.917865]
[...]
    16   -4.937152733913e-03
    17    1.576775541185e-03
    18    4.855605050729e-04
    19   -2.768077715266e-03
    20    9.280046807597e-03
    21    9.228431012182e-01
    22   -4.203107102257e-04
    23    1.377696846516e-02
    24   -9.924486283027e-04
    25    6.964115202786e-02
    26   -5.158301773593e-02
    27   -1.369527150570e+00
    28    9.674257251143e-02
    29   -9.585627299603e-02
    30    3.617806193581e-02
    31    3.765380585542e-01
    32   -3.731994461335e-01
    33    1.438554475848e-01
    34    1.523999700133e-02
    35   -4.932683889299e-03
    36    1.575367185679e-03
    37    4.856009916490e-04
    38   -2.767793147727e-03
    39    9.278021349691e-03
    40    9.228747577891e-01
    41    4.195322295764e-04
    42   -1.377714819040e-02
    43    9.915615229142e-04
    44    9.282907812974e-03
    45    9.231906101535e-01
    46    1.360974168134e-02
    47    7.827240737363e-05
    48    2.463622770914e-03
Sym=X
Ene= 0.231046
Spin=Alpha
Occup=0
     1    3.043150134348e-02
     2    1.167216746716e+00
     3   -1.297002846000e-02
     4   -3.519409409970e-03
     5   -1.646743449192e-03
     6    5.417981995250e-05
     7   -8.272774430257e-05
     8   -6.609918456578e-04
     9   -1.548968319419e-01
    10   -1.629150075844e-01
    11   -1.730619124580e-02
    12   -5.300458668680e-01
    13   -5.568323126800e-01
    14   -5.917081522919e-02
    15   -6.007851522419e-04
    16   -3.035020890447e-03
    17   -3.341312335973e-03
    18    1.342665683835e-03
    19    4.116462956178e-04
    20   -3.043537491913e-02
    21   -1.165907500999e+00
    22   -2.922286089281e-03
    23   -1.320458125909e-02
    24   -1.300222256305e-04
    25   -5.277950400791e-05
    26    8.146365405907e-05
    27    6.295850940323e-04
    28   -1.548952828353e-01
    29   -1.629198546390e-01
    30   -1.727825467443e-02
    31   -5.300410771090e-01
    32   -5.568576392455e-01
    33   -5.905933648152e-02
    34    6.007453908566e-04
    35    3.031749176934e-03
    36    3.340450118153e-03
    37   -1.340491575639e-03
    38   -4.112320607246e-04
    39    3.043331683085e-02
    40    1.165935878553e+00
    41   -2.921886831128e-03
    42   -1.320536185294e-02
    43   -1.287744157359e-04
    44   -3.043285927170e-02
    45   -1.167196599977e+00
    46   -1.297009104252e-02
    47   -3.519108257599e-03
    48   -1.644952786962e-03
Sym=X
Ene= 0.236076
Spin=Alpha
Occup=0
     1    1.941164092332e-02
     2    1.068924544698e+00
     3   -1.559176067935e-02
     4   -8.989997300830e-03
     5   -2.564560958050e-03
     6    8.701195779781e-02
     7   -8.147311214388e-02
     8   -1.545064961325e+00
     9   -5.832998454023e-02
    10    5.737286782488e-02
    11   -1.614706261635e-02
    12   -2.359988923431e-01
    13    2.303122136425e-01
    14   -4.979893116787e-02
    15    2.064181794841e-02
    16   -2.644487147524e-03
    17   -2.622285462210e-03
    18    6.278230454107e-04
    19   -1.239972046569e-02
    20    1.944303872182e-02
    21    1.070026555554e+00
    22    8.328086677817e-03
    23    1.617181075584e-02
    24    1.049927625816e-04
    25   -8.701001917949e-02
    26    8.146986189378e-02
    27    1.545055494779e+00
    28   -5.833481286659e-02
    29    5.737293328436e-02
    30   -1.607268499887e-02
    31   -2.360064811922e-01
    32    2.303123539059e-01
    33   -4.949560723537e-02
    34   -2.064161076630e-02
    35    2.636969391277e-03
    36    2.627454609811e-03
    37   -6.275742759585e-04
    38    1.239962799781e-02
    39   -1.944753346734e-02
    40   -1.070027823313e+00
    41    8.328439270877e-03
    42    1.617175487568e-02
    43    1.092499451300e-04
    44   -1.941571008110e-02
    45   -1.068884093464e+00
    46   -1.559167891332e-02
    47   -8.991342347629e-03
    48   -2.559495411949e-03
Sym=X
Ene= 0.302643
Spin=Alpha
Occup=0
     1   -2.022672823368e-02
     2    1.642325877197e+00
     3   -2.328999141801e-02
     4    4.145447849321e-04
     5   -7.652390891473e-04
     6   -1.872184922623e-06
     7    1.073455134763e-05
     8   -4.126025020520e-04
     9   -1.362085883434e-01
    10   -1.432245717330e-01
    11   -1.520366831561e-02
    12   -1.114206577124e+00
    13   -1.171815872090e+00
    14   -1.243619135876e-01
    15   -4.299304452069e-04
    16   -4.086887668524e-03
    17   -5.700550616997e-04
    18   -3.334269288834e-02
    19   -1.445756983003e-03
    20    2.016064087007e-02
    21   -1.641847570238e+00
    22    1.645963943401e-03
    23   -2.318587830265e-02
    24   -1.650421409840e-03
    25    1.742348954731e-07
    26    1.029350359137e-05
    27   -4.861099410029e-04
    28    1.362103872861e-01
    29    1.432266193148e-01
    30    1.518941913572e-02
    31    1.114183612647e+00
    32    1.171832790711e+00
    33    1.243158096877e-01
    34   -4.255749476831e-04
    35   -4.074808617163e-03
    36   -5.589001965333e-04
    37   -3.334342753954e-02
    38   -1.447932037940e-03
    39    2.016235521918e-02
    40   -1.641850514058e+00
    41   -1.647501826891e-03
    42    2.318480023896e-02
    43    1.652930993318e-03
    44   -2.023066494621e-02
    45    1.642374319929e+00
    46    2.329085753872e-02
    47   -4.148316029033e-04
    48    7.605340865305e-04
Sym=X
Ene= 0.460994
Spin=Alpha
Occup=0
     1   -1.134512255876e-01
     2   -6.854894837497e-01
     3   -1.481295842884e-02
     4   -9.982470259797e-03
     5   -8.003782782229e-04
     6    6.278778585501e-02
     7    1.550942395958e-02
     8   -3.610416416346e+00
     9    1.037403550279e-01
    10   -1.018139531797e-01
    11    2.977272693904e-02
    12    2.413521074768e+00
    13   -2.276533599220e+00
    14   -1.630902019915e-01
    15    5.259264767680e-02
    16   -3.796994485864e-03
    17   -3.909694582354e-03
    18   -1.017269057766e-03
    19    2.059473960380e-02
    20   -1.138177417049e-01
    21   -6.845139264339e-01
    22    9.117668954673e-03
    23    1.525856190932e-02
    24    1.876391079069e-03
    25   -6.278740791530e-02
    26   -1.549719543147e-02
    27    3.610375931886e+00
    28    1.037573346402e-01
    29   -1.018174191481e-01
    30    2.972994631291e-02
    31    2.413528982195e+00
    32   -2.276496148367e+00
    33   -1.632744628084e-01
    34   -5.259198539109e-02
    35    3.796322876577e-03
    36    3.901259463005e-03
    37    1.015220427438e-03
    38   -2.059827637756e-02
    39    1.137959603927e-01
    40    6.845386151761e-01
    41    9.118320394682e-03
    42    1.525872721187e-02
    43    1.872853289941e-03
    44    1.134272623269e-01
    45    6.855514222556e-01
    46   -1.481232232628e-02
    47   -9.981692497159e-03
    48   -8.006905758344e-04
Sym=X
Ene= 0.580064
Spin=Alpha
Occup=0
     1    2.354165855047e-01
     2    4.632742546253e-02
     3   -2.216971385863e-02
     4    2.669780865517e-02
     5   -6.252977842477e-04
     6   -6.473130803616e-03
     7   -1.707665976799e-01
     8   -4.091050263466e-01
     9    3.075632571637e-01
    10   -2.903945877481e-01
    11   -2.031602456954e-02
    12   -7.453736197054e-01
    13    7.114163961352e-01
    14   -2.342195240598e-02
    15   -1.076204596738e-03
    16    3.452109868906e-03
    17    3.330168923121e-03
    18   -3.140238867201e-03
    19    6.006180583333e-02
    20    2.357495201399e-01
    21    4.553457787064e-02
    22   -2.770223010499e-02
    23    2.087533392579e-02
    24   -1.239383591474e-03
    25   -6.478850259668e-03
    26   -1.707726290811e-01
    27   -4.087950148247e-01
    28   -3.075574264059e-01
    29    2.903815250069e-01
    30    2.031861950411e-02
    31    7.456300464315e-01
    32   -7.116229905887e-01
    33    2.336211647253e-02
    34   -1.075683235523e-03
    35    3.453293478752e-03
    36    3.329155621450e-03
    37   -3.134667875871e-03
    38    6.006110859085e-02
    39    2.357191410305e-01
    40    4.565966354166e-02
    41    2.770855123106e-02
    42   -2.087998989363e-02
    43    1.235280502108e-03
    44    2.354363368618e-01
    45    4.642249180603e-02
    46    2.216990407260e-02
    47   -2.669919735007e-02
    48    6.212753083952e-04
Sym=X
Ene= 0.608525
Spin=Alpha
Occup=0
     1   -5.199355945196e-01
     2    2.496264814371e-01
     3   -5.956127949899e-02
     4    3.699277145307e-02
     5   -3.003343779505e-03
     6   -2.212807311952e-05
     7   -1.301552610317e-05
     8   -1.322648598979e-03
     9   -3.516181736506e-02
    10   -3.680611200097e-02
    11   -3.853290472112e-03
    12    2.594141172197e-01
    13    2.702591026984e-01
    14    2.873253150374e-02
    15   -1.378479976545e-03
    16   -1.576813523154e-02
    17    3.283651802092e-05
    18   -1.486770718310e-01
    19   -6.628183277917e-03
    20    5.194362425178e-01
    21   -2.503192368384e-01
    22    3.980330482105e-02
    23   -5.778208239639e-02
    24    8.030601745200e-04
    25    2.267820171581e-05
    26    2.349098603790e-05
    27    1.341819004583e-03
    28   -3.514103418211e-02
    29   -3.681554171620e-02
    30   -3.862346245544e-03
    31    2.593819490900e-01
    32    2.703074775723e-01
    33    2.867298739564e-02
    34    1.369810009356e-03
    35    1.573643168173e-02
    36   -6.355813363480e-05
    37    1.486811067085e-01
    38    6.631081781551e-03
    39   -5.194489672833e-01
    40    2.503179090749e-01
    41    3.980148987816e-02
    42   -5.778062811963e-02
    43    7.909928348705e-04
    44    5.199277745283e-01
    45   -2.496320341013e-01
    46   -5.956476932172e-02
    47    3.699320496482e-02
    48   -2.994945035975e-03
Sym=X
Ene= 0.690294
Spin=Alpha
Occup=0
     1   -3.933011036440e-02
     2   -7.020547939117e-02
     3    6.377137841402e-03
     4   -4.390503804143e-03
     5   -1.822366418016e-02
     6   -2.108059471839e-03
     7    2.385220231360e-02
     8   -8.336315420589e-02
     9    3.636209382618e-02
    10    3.642696711932e-02
    11   -6.692288368823e-01
    12    1.071986095544e-01
    13   -1.664034325774e-01
    14    6.085090996482e-01
    15   -1.077937253525e-02
    16    8.108538274191e-02
    17   -7.679357615131e-02
    18   -7.759278952821e-03
    19   -1.655275930996e-02
    20   -3.928297592708e-02
    21   -7.011969808182e-02
    22    6.644108121699e-03
    23   -4.117289053475e-03
    24   -1.816708151376e-02
    25    2.114307974252e-03
    26   -2.371953092113e-02
    27    8.326983593030e-02
    28    3.635886599716e-02
    29    3.638082488840e-02
    30   -6.692456283408e-01
    31    1.072254456844e-01
    32   -1.663615633805e-01
    33    6.085213307242e-01
    34    1.073396055560e-02
    35   -8.108055162168e-02
    36    7.679702105616e-02
    37    7.767245955031e-03
    38    1.657088896484e-02
    39    3.938168250786e-02
    40    7.006404154927e-02
    41    6.649122041117e-03
    42   -4.085755351313e-03
    43   -1.816762432984e-02
    44    3.943966294705e-02
    45    7.010014115301e-02
    46    6.341115586317e-03
    47   -4.404986850189e-03
    48   -1.822997118383e-02
Sym=X
Ene= 0.708938
Spin=Alpha
Occup=0
     1   -4.897210741108e-01
     2    1.669412666757e-01
     3   -7.903785381097e-02
     4   -4.621771080759e-02
     5   -8.298342378041e-04
     6   -4.590964020313e-02
     7   -2.934735830675e-01
     8    4.512974480317e-01
     9    1.955785765102e-01
    10   -1.857446078485e-01
    11   -1.457094023682e-03
    12   -6.057456930754e-02
    13    4.686278390925e-02
    14    9.782896212220e-02
    15    1.917866724106e-01
    16   -1.751481109961e-02
    17   -2.716637664185e-02
    18    3.471106878755e-03
    19   -7.838549238915e-02
    20   -4.899014529450e-01
    21    1.669115840090e-01
    22    4.156903958567e-02
    23    8.055290084789e-02
    24    1.262145036762e-02
    25   -4.591830134531e-02
    26   -2.934696502826e-01
    27    4.511888056071e-01
    28   -1.955408676102e-01
    29    1.857300273121e-01
    30    1.293829505560e-03
    31    6.045850486531e-02
    32   -4.678701193943e-02
    33   -9.763272376621e-02
    34    1.918211220483e-01
    35   -1.750280091758e-02
    36   -2.716193776004e-02
    37    3.473102600945e-03
    38   -7.836897213540e-02
    39   -4.899547492997e-01
    40    1.669364331739e-01
    41   -4.156576456244e-02
    42   -8.056732500944e-02
    43   -1.262451268169e-02
    44   -4.897694095825e-01
    45    1.669507441610e-01
    46    7.904937276234e-02
    47    4.621691412468e-02
    48    8.201056931879e-04
Sym=X
Ene= 0.776829
Spin=Alpha
Occup=0
     1   -5.384930343541e-01
     2    4.874199553112e-01
     3   -1.080718391527e-01
     4   -2.641412955631e-02
     5   -6.113798027107e-03
     6   -8.840210192397e-02
     7    2.318246152953e-01
     8    5.563456867189e-01
     9   -1.030754821008e-01
    10    9.489315951747e-02
    11    2.635299050238e-02
    12   -3.016435682526e-01
    13    2.858985081268e-01
    14    1.091845658682e-02
    15    2.026736786833e-01
    16   -2.662307388393e-02
    17   -1.295149491127e-02
    18    1.280672590092e-03
    19   -7.485183478845e-03
    20   -5.390170823467e-01
    21    4.882596757945e-01
    22    2.081141361515e-02
    23    1.092712682788e-01
    24    8.267031889959e-03
    25    8.839677282862e-02
    26   -2.318330518052e-01
    27   -5.563882456175e-01
    28   -1.031172815873e-01
    29    9.490831424246e-02
    30    2.654930476108e-02
    31   -3.015846457402e-01
    32    2.858772951716e-01
    33    1.048901059806e-02
    34   -2.026540633619e-01
    35    2.656950975516e-02
    36    1.296104078716e-02
    37   -1.280588325452e-03
    38    7.472262035392e-03
    39    5.389758725137e-01
    40   -4.882200871062e-01
    41    2.080360492164e-02
    42    1.092614893388e-01
    43    8.262914638952e-03
    44    5.384323277597e-01
    45   -4.873622273150e-01
    46   -1.080594291931e-01
    47   -2.640766264751e-02
    48   -6.104063511007e-03
Sym=X
Ene= 0.806431
Spin=Alpha
Occup=0
     1    1.942308276816e-03
     2    1.100703442970e-02
     3   -1.076757140409e-02
     4    1.005945887829e-03
     5    3.109341542122e-02
     6    2.037629390900e-03
     7   -3.840960209863e-02
     8    1.884774435869e-02
     9   -2.743050562115e-02
    10   -5.496547716238e-02
    11    7.630801976917e-01
    12    3.094305823887e-02
    13    8.992449678235e-02
    14   -1.122442890716e+00
    15   -6.570726625910e-03
    16    6.444375374932e-02
    17   -6.083652465378e-02
    18   -6.412121660456e-03
    19   -7.847730024413e-03
    20    1.966283127434e-03
    21    1.118724723746e-02
    22   -4.871634690634e-03
    23    7.227286282785e-03
    24    3.176039903588e-02
    25    2.060701838589e-03
    26   -3.846422337182e-02
    27    1.887814978827e-02
    28    2.728798120189e-02
    29    5.500369244127e-02
    30   -7.630748103606e-01
    31   -3.088172860223e-02
    32   -8.982212114402e-02
    33    1.122440908692e+00
    34   -6.648702335762e-03
    35    6.445003023261e-02
    36   -6.083068750540e-02
    37   -6.430557251041e-03
    38   -7.871845653637e-03
    39    2.089976939723e-03
    40    1.094178274982e-02
    41    4.863440431300e-03
    42   -7.168824200175e-03
    43   -3.175643303757e-02
    44    2.061919297368e-03
    45    1.090853569322e-02
    46    1.072358807137e-02
    47   -9.905162014507e-04
    48   -3.109342265539e-02
Sym=X
Ene= 0.858050
Spin=Alpha
Occup=0
     1    1.419908281640e-02
     2   -1.074030272900e+00
     3    1.456534107912e-01
     4    5.521408031506e-02
     5    2.043519855671e-02
     6    4.344084813266e-05
     7   -9.771049021072e-05
     8    2.507698847963e-04
     9   -4.124431024537e-01
    10   -4.342114504485e-01
    11   -4.607376323215e-02
    12    9.366852794296e-01
    13    9.858498413006e-01
    14    1.046242428874e-01
    15    1.451271936070e-03
    16    2.089992981059e-02
    17   -3.660449264430e-03
    18    2.297184649813e-01
    19    1.059479298348e-02
    20   -1.394113404724e-02
    21    1.074211121020e+00
    22    4.886286996026e-02
    23    1.492708018983e-01
    24    1.263682399945e-03
    25   -4.396120176033e-05
    26    1.034658982357e-04
    27   -2.556476337264e-04
    28   -4.124058997776e-01
    29   -4.341762894437e-01
    30   -4.598856132689e-02
    31    9.365224038300e-01
    32    9.857017133190e-01
    33    1.044293125573e-01
    34   -1.447239554086e-03
    35   -2.089793025552e-02
    36    3.664310816592e-03
    37   -2.297331371280e-01
    38   -1.060010801894e-02
    39    1.394461895309e-02
    40   -1.074102995990e+00
    41    4.885821993571e-02
    42    1.492619306513e-01
    43    1.267123437506e-03
    44   -1.421173989371e-02
    45    1.073927223561e+00
    46    1.456475294775e-01
    47    5.521532961033e-02
    48    2.041972233947e-02
Sym=X
Ene= 0.923249
Spin=Alpha
Occup=0
     1    1.135322023964e-01
     2   -1.237058722886e+00
     3    1.798738311963e-01
     4   -6.432877301218e-03
     5    2.296658488697e-03
     6    1.013030310005e-05
     7    5.354707548993e-04
     8   -6.370329146894e-04
     9   -4.759653310146e-01
    10   -5.008190296594e-01
    11   -5.316547226119e-02
    12    1.440562080140e+00
    13    1.515314950773e+00
    14    1.608249952556e-01
    15   -9.856393674855e-04
    16    1.372345802762e-03
    17   -1.142046931761e-02
    18    1.150777228010e-01
    19    6.252976444247e-03
    20   -1.136668871092e-01
    21    1.237485385571e+00
    22   -1.611834015932e-02
    23    1.786935008348e-01
    24    1.596762033847e-02
    25    1.169285339930e-05
    26    5.470428475595e-04
    27   -6.394637522393e-04
    28    4.759831083692e-01
    29    5.008771392174e-01
    30    5.314466378995e-02
    31   -1.440607375155e+00
    32   -1.515440612286e+00
    33   -1.607648266829e-01
    34   -9.971211482621e-04
    35    1.325518068053e-03
    36   -1.144766391290e-02
    37    1.150942089297e-01
    38    6.252342153566e-03
    39   -1.136692987458e-01
    40    1.237618629197e+00
    41    1.611320996038e-02
    42   -1.787040199758e-01
    43   -1.597887037957e-02
    44    1.135351916025e-01
    45   -1.237156539865e+00
    46   -1.798817721733e-01
    47    6.429308336779e-03
    48   -2.270854036795e-03
Sym=X
Ene= 0.968283
Spin=Alpha
Occup=0
     1   -5.850326534715e-02
     2    8.904931889721e-01
     3   -8.517262385969e-02
     4   -9.533671800438e-02
     5   -2.247311010345e-02
     6    2.714085475372e-02
     7    2.449213553664e-01
     8    5.337714900296e-01
     9    4.839039218541e-01
    10   -4.599838999886e-01
    11    1.209594087883e-03
    12   -1.475095328109e+00
    13    1.399683114405e+00
    14    1.855107734876e-02
    15   -5.934905749318e-02
    16   -3.591659006083e-02
    17    1.361154756002e-02
    18    1.753651393813e-02
    19   -2.946059452673e-01
    20   -5.833072442489e-02
    21    8.895263218187e-01
    22    9.229015928478e-02
    23    9.113413993759e-02
    24   -2.677948334820e-03
    25   -2.713851074955e-02
    26   -2.448435882036e-01
    27   -5.338776863582e-01
    28    4.839227946185e-01
    29   -4.599552759222e-01
    30    1.108422793944e-03
    31   -1.475130252395e+00
    32    1.399652570884e+00
    33    1.883877344929e-02
    34    5.933073805262e-02
    35    3.591550093196e-02
    36   -1.359900149550e-02
    37   -1.752656339982e-02
    38    2.946000497926e-01
    39    5.832274978926e-02
    40   -8.894661887141e-01
    41    9.228636592300e-02
    42    9.112462682342e-02
    43   -2.655442265351e-03
    44    5.854094426514e-02
    45   -8.905077007969e-01
    46   -8.518164106842e-02
    47   -9.533720514318e-02
    48   -2.244991986361e-02
[5D]

======= END OF MOLDEN-FORMATTED INPUT FILE =======


        *************************************************************
        *                                                           *
        *  Thank you very much for using Q-Chem.  Have a nice day.  *
        *                                                           *
        *************************************************************


