                  Welcome to Q-Chem
     A Quantum Leap Into The Future Of Chemistry


 Q-Chem 5.4 (devel), Q-Chem, Inc., Pleasanton, CA (2021)

 E. Epifanovsky,  A. T. B. Gilbert,  Xintian Feng,  Joonho Lee,  Yuezhi Mao,  
 N. Mardirossian,  P. Pokhilko,  A. White,  M. Wormit,  M. P. Coons,  
 A. L. Dempwolff,  Zhengting Gan,  D. Hait,  P. R. Horn,  L. D. Jacobson,  
 I. Kaliman,  J. Kussmann,  A. W. Lange,  Ka Un Lao,  D. S. Levine,  Jie Liu,  
 S. C. McKenzie,  A. F. Morrison,  K. Nanda,  F. Plasser,  D. R. Rehn,  
 M. L. Vidal,  Zhi-Qiang You,  Ying Zhu,  B. Alam,  B. Albrecht,  
 A. Aldossary,  E. Alguire,  J. H. Andersen,  D. Barton,  K. Begam,  A. Behn,  
 Y. A. Bernard,  E. J. Berquist,  H. Burton,  A. Carreras,  K. Carter-Fenk,  
 R. Chakraborty,  A. D. Chien,  K. D. Closser,  V. Cofer-Shabica,  
 S. Dasgupta,  Jia Deng,  M. de Wergifosse,  M. Diedenhofen,  Hainam Do,  
 S. Ehlert,  Po-Tung Fang,  S. Fatehi,  Qingguo Feng,  T. Friedhoff,  
 J. Gayvert,  Qinghui Ge,  G. Gidofalvi,  M. Goldey,  J. Gomes,  
 C. Gonzalez-Espinoza,  S. Gulania,  A. Gunina,  M. W. D. Hanson-Heine,  
 P. H. P. Harbach,  A. W. Hauser,  M. F. Herbst,  M. Hernandez Vera,  
 M. Hodecker,  Z. C. Holden,  S. Houck,  Xunkun Huang,  Kerwin Hui,  
 B. C. Huynh,  M. Ivanov,  Hyunjun Ji,  Hanjie Jiang,  B. Kaduk,  S. Kaehler,  
 K. Khistyaev,  Jaehoon Kim,  P. Klunzinger,  Z. Koczor-Benda,  
 Joong Hoon Koh,  D. Kosenkov,  L. Koulias,  T. Kowalczyk,  C. M. Krauter,  
 K. Kue,  A. Kunitsa,  T. Kus,  A. Landau,  K. V. Lawler,  D. Lefrancois,  
 S. Lehtola,  Rain Li,  Yi-Pei Li,  Jiashu Liang,  M. Liebenthal,  
 Hung-Hsuan Lin,  You-Sheng Lin,  Fenglai Liu,  Kuan-Yu Liu,  
 M. Loipersberger,  A. Luenser,  A. Manjanath,  P. Manohar,  E. Mansoor,  
 S. F. Manzer,  Shan-Ping Mao,  A. V. Marenich,  T. Markovich,  S. Mason,  
 S. A. Maurer,  P. F. McLaughlin,  M. F. S. J. Menger,  J.-M. Mewes,  
 S. A. Mewes,  P. Morgante,  J. W. Mullinax,  K. J. Oosterbaan,  G. Paran,  
 Alexander C. Paul,  Suranjan K. Paul,  F. Pavosevic,  Zheng Pei,  S. Prager,  
 E. I. Proynov,  E. Ramos,  B. Rana,  A. E. Rask,  A. Rettig,  R. M. Richard,  
 F. Rob,  E. Rossomme,  T. Scheele,  M. Scheurer,  M. Schneider,  
 N. Sergueev,  S. M. Sharada,  W. Skomorowski,  D. W. Small,  C. J. Stein,  
 Yu-Chuan Su,  E. J. Sundstrom,  Zhen Tao,  J. Thirman,  T. Tsuchimochi,  
 N. M. Tubman,  S. P. Veccham,  O. Vydrov,  J. Wenzel,  J. Witte,  A. Yamada,  
 Kun Yao,  S. Yeganeh,  S. R. Yost,  A. Zech,  Igor Ying Zhang,  Xing Zhang,  
 Yu Zhang,  D. Zuev,  A. Aspuru-Guzik,  A. T. Bell,  N. A. Besley,  
 K. B. Bravaya,  B. R. Brooks,  D. Casanova,  Jeng-Da Chai,  S. Coriani,  
 C. J. Cramer,  A. E. DePrince, III,  R. A. DiStasio Jr.,  A. Dreuw,  
 B. D. Dunietz,  T. R. Furlani,  W. A. Goddard III,  S. Grimme,  
 S. Hammes-Schiffer,  T. Head-Gordon,  W. J. Hehre,  Chao-Ping Hsu,  
 T.-C. Jagau,  Yousung Jung,  A. Klamt,  Jing Kong,  D. S. Lambrecht,  
 WanZhen Liang,  N. J. Mayhall,  C. W. McCurdy,  J. B. Neaton,  
 C. Ochsenfeld,  J. A. Parkhill,  R. Peverati,  V. A. Rassolov,  Yihan Shao,  
 L. V. Slipchenko,  T. Stauch,  R. P. Steele,  J. E. Subotnik,  
 A. J. W. Thom,  A. Tkatchenko,  D. G. Truhlar,  T. Van Voorhis,  
 T. A. Wesolowski,  K. B. Whaley,  H. L. Woodcock III,  P. M. Zimmerman,  
 S. Faraji,  P. M. W. Gill,  M. Head-Gordon,  J. M. Herbert,  A. I. Krylov

 Additional authors for Version 5.4.1: 
 S. Kotaru,  Shaozhi Li,  Xiangyuan Li,  F. Matz,  A. Molle,  Haisheng Ren,  
 Yingli Su,  Hung-Yi Tsai,  C. Utku,  Fang Wang

 Contributors to earlier versions of Q-Chem not listed above: 
 R. D. Adamson,  B. Austin,  R. Baer,  J. Baker,  G. J. O. Beran,  
 K. Brandhorst,  S. T. Brown,  E. F. C. Byrd,  A. K. Chakraborty,  
 G. K. L. Chan,  Chun-Min Chang,  Yunqing Chen,  C.-L. Cheng,  
 Siu Hung Chien,  D. M. Chipman,  D. L. Crittenden,  H. Dachsel,  
 R. J. Doerksen,  A. D. Dutoi,  R. G. Edgar,  J. Fosso-Tande,  
 L. Fusti-Molnar,  D. Ghosh,  A. Ghysels,  A. Golubeva-Zadorozhnaya,  
 J. Gonthier,  M. S. Gordon,  S. R. Gwaltney,  G. Hawkins,  J. E. Herr,  
 A. Heyden,  S. Hirata,  E. G. Hohenstein,  G. Kedziora,  F. J. Keil,  
 C. Kelley,  Jihan Kim,  R. A. King,  R. Z. Khaliullin,  P. P. Korambath,  
 W. Kurlancheek,  A. Laurent,  A. M. Lee,  M. S. Lee,  S. V. Levchenko,  
 Ching Yeh Lin,  D. Liotard,  E. Livshits,  R. C. Lochan,  I. Lotan,  
 L. A. Martinez-Martinez,  P. E. Maslen,  N. Nair,  D. P. O'Neill,  
 D. Neuhauser,  E. Neuscamman,  C. M. Oana,  R. Olivares-Amaya,  R. Olson,  
 T. M. Perrine,  B. Peters,  P. A. Pieniazek,  A. Prociuk,  Y. M. Rhee,  
 J. Ritchie,  M. A. Rohrdanz,  E. Rosta,  N. J. Russ,  H. F. Schaefer III,  
 M. W. Schmidt,  N. E. Schultz,  S. Sharma,  N. Shenvi,  C. D. Sherrill,  
 A. C. Simmonett,  A. Sodt,  T. Stein,  D. Stuck,  K. S. Thanthiriwatte,  
 V. Vanovschi,  L. Vogt,  Tao Wang,  A. Warshel,  M. A. Watson,  
 C. F. Williams,  Q. Wu,  X. Xu,  Jun Yang,  W. Zhang,  Yan Zhao

 Please cite Q-Chem as follows:
 Y. Shao et al., Mol. Phys. 113, 184-215 (2015)
 DOI: 10.1080/00268976.2014.952696

 Q-Chem 5.4.1 for Intel X86 EM64T Linux

 Parts of Q-Chem use Armadillo 9.800.1 (Horizon Scraper).
 http://arma.sourceforge.net/

 Q-Chem begins on Tue Mar 21 11:32:30 2023  

 Host: cpu186.baobab
0

     Scratch files written to /scratch/fum/qchem58153//
 Processing $rem in /home/share/wesolowski/qc5.aug2021.FDE/config/preferences:
 Processing $rem in /home/fum/.qchemrc:

 Checking the input file for inconsistencies... 	...done.

--------------------------------------------------------------
User input:
--------------------------------------------------------------
$comment
generated from CCJob.Templates
$end

$rem
sym_ignore = true
method = adc(2)
ee_states = 10
basis = cc-pVDZ
mem_static = 1024
mem_total = 40000
adc_davidson_maxiter = 900
adc_davidson_conv = 6
adc_print = 3
adc_prop_es = true
adc_prop_es2es = true
adc_prop_tpa = true
molden_format = True
state_analysis = true
print_orbitals = 15
gen_scfman = false
fde_export_density = true
fde_details = 3
$end

$molecule
0 1
H -0.019694130997638302 -0.24645580173066287 0.06524765733925746
C -1.078447254974241 -0.523907739133845 -0.0023582083984355798
H -1.3016296168389239 -1.5949226728114634 -0.07782985054353589
C -2.0442240166258383 0.3933320622339295 0.006605127898429077
H -1.8210809557611878 1.4643573939110577 0.08205647604349686
H -3.102986135701977 0.115891399230776 -0.06092198803919504                     
$end
--------------------------------------------------------------
 ----------------------------------------------------------------
             Standard Nuclear Orientation (Angstroms)
    I     Atom           X                Y                Z
 ----------------------------------------------------------------
    1      H      -0.0196941310    -0.2464558017     0.0652476573
    2      C      -1.0784472550    -0.5239077391    -0.0023582084
    3      H      -1.3016296168    -1.5949226728    -0.0778298505
    4      C      -2.0442240166     0.3933320622     0.0066051279
    5      H      -1.8210809558     1.4643573939     0.0820564760
    6      H      -3.1029861357     0.1158913992    -0.0609219880
 ----------------------------------------------------------------
 Nuclear Repulsion Energy =          33.19688261 hartrees
 There are        8 alpha and        8 beta electrons
 Requested basis set is cc-pVDZ
 There are 24 shells and 48 basis functions
 Total memory of 40000 MB is distributed as follows: 
   MEM_STATIC is set to 1024 MB
   QALLOC/CCMAN JOB total memory use is  38976 MB
 Warning: actual memory use might exceed 40000 MB

 Total QAlloc Memory Limit  40000 MB
 Mega-Array Size      1001 MB
 MEM_STATIC part      1024 MB

                       Distance Matrix (Angstroms)
             H (  1)   C (  2)   H (  3)   C (  4)   H (  5)
   C (  2)  1.096589
   H (  3)  1.866063  1.096622
   C (  4)  2.124027  1.331966  2.124084
   H (  5)  2.484383  2.124107  3.107183  1.096623
   H (  6)  3.107073  2.124036  2.484362  1.096590  1.866034

 A cutoff of  1.0D-11 yielded    300 shell pairs
 There are      1220 function pairs (      1329 Cartesian)
 Smallest overlap matrix eigenvalue = 4.78E-03

 Scale SEOQF with 1.000000e-01/1.000000e-01/1.000000e+00

 Standard Electronic Orientation quadrupole field applied
 Nucleus-field energy     =     0.0000000022 hartrees
 Guess from superposition of atomic densities
 Warning:  Energy on first SCF cycle will be non-variational
 SAD guess density has 16.000000 electrons
 A restricted Hartree-Fock SCF calculation will be
 performed using Pulay DIIS extrapolation
 SCF converges when DIIS error is below 1.0E-08
 using 10 threads for integral computing
 -------------------------------------------------------
 OpenMP Integral computing Module                
 Release: version 1.0, May 2013, Q-Chem Inc. Pittsburgh 
 -------------------------------------------------------
 ---------------------------------------
  Cycle       Energy         DIIS Error
 ---------------------------------------
    1     -78.3941840530      9.92E-02
    2     -78.0174932658      7.13E-03
    3     -78.0379508891      1.83E-03
    4     -78.0394282546      5.66E-04
    5     -78.0395465750      5.81E-05
    6     -78.0395484373      9.30E-06
    7     -78.0395484987      1.95E-06
    8     -78.0395485014      1.67E-07
    9     -78.0395485014      1.75E-08
   10     -78.0395485014      4.61E-09 Convergence criterion met
 ---------------------------------------
 SCF time:  CPU 1.90 s  wall 2.37 s
 SCF   energy in the final basis set = -78.03954850
 Total energy in the final basis set = -78.03954850
Exporting Density Matrix to file 'Densmat_SCF.txt'.
Export successful
================================================================================
|                                                                              |
|                                 A D C  M A N                                 |
|                                                                              |
 ------------------------------------------------------------------------------ 
|                                                                              |
| Components:                                                                  |
|                                                                              |
| - libvmm - 1.3-trunk                                                         |
|   Authors:                                                                   |
|   Evgeny Epifanovsky, Ilya Kaliman                                           |
|                                                                              |
| - libtensor - 2.5-trunk                                                      |
|   Authors:                                                                   |
|   Evgeny Epifanovsky, Michael Wormit, Dmitry Zuev, Sam Manzer,               |
|   Ilya Kaliman                                                               |
|                                                                              |
| - libwfa - 1.1-trunk                                                         |
|   Authors:                                                                   |
|   Felix Plasser, Stefanie Mewes (Baeppler), Benjamin Thomitzni,              |
|   Michael Wormit, Feng Chen, Anna I. Krylov, Pavel Pokhilko                  |
|                                                                              |
| - libadc - 1.1-trunk                                                         |
|   Authors:                                                                   |
|   Michael Wormit, Adrian L. Dempwolff, Philipp H. P. Harbach,                |
|   Caroline Krauter, Dirk Rehn, Matthias Schneider, Jan Wenzel                |
|                                                                              |
| - adcman - 2.6-trunk                                                         |
|   Authors:                                                                   |
|   Michael Wormit, Adrian L. Dempwolff, Philipp H. P. Harbach,                |
|   Caroline Krauter, Daniel Lefrancois, Jan-Michael Mewes, Dirk Rehn,         |
|   Matthias Schneider, Jan Wenzel, Andreas Dreuw                              |
|                                                                              |
| Authors of earlier versions of ADCMAN:                                       |
| Andreas Dreuw, Jan Hendrik Starcke, Dirk Rehn, Michael Wormit                |
|                                                                              |
================================================================================

 Created directory /scratch/fum/qchem58153/plots
  Import QC data ...  CPU 0.00 s  wall 0.00 s

 Alpha MOs, Restricted
 -- Occupied --                  
-11.239 -11.237  -1.030  -0.785  -0.634  -0.582  -0.499  -0.375
  1 A     2 A     3 A     4 A     5 A     6 A     7 A     8 A                  
 -- Virtual --                   
  0.168   0.202   0.231   0.236   0.303   0.463   0.580   0.609
  9 A    10 A    11 A    12 A    13 A    14 A    15 A    16 A                  
  0.688   0.704   0.775   0.808   0.858   0.927   0.971   1.005
 17 A    18 A    19 A    20 A    21 A    22 A    23 A    24 A                  
  1.130   1.237   1.241   1.263   1.291   1.591   1.727   1.743
 25 A    26 A    27 A    28 A    29 A    30 A    31 A    32 A                  
  1.810   1.852   1.853   1.900   1.962   1.971   2.224   2.247
 33 A    34 A    35 A    36 A    37 A    38 A    39 A    40 A                  
  2.353   2.419   2.490   2.621   2.673   2.791   3.094   3.365
 41 A    42 A    43 A    44 A    45 A    46 A    47 A    48 A                  

 Beta MOs, Restricted
 -- Occupied --                  
-11.239 -11.237  -1.030  -0.785  -0.634  -0.582  -0.499  -0.375
  1 A     2 A     3 A     4 A     5 A     6 A     7 A     8 A                  
 -- Virtual --                   
  0.168   0.202   0.231   0.236   0.303   0.463   0.580   0.609
  9 A    10 A    11 A    12 A    13 A    14 A    15 A    16 A                  
  0.688   0.704   0.775   0.808   0.858   0.927   0.971   1.005
 17 A    18 A    19 A    20 A    21 A    22 A    23 A    24 A                  
  1.130   1.237   1.241   1.263   1.291   1.591   1.727   1.743
 25 A    26 A    27 A    28 A    29 A    30 A    31 A    32 A                  
  1.810   1.852   1.853   1.900   1.962   1.971   2.224   2.247
 33 A    34 A    35 A    36 A    37 A    38 A    39 A    40 A                  
  2.353   2.419   2.490   2.621   2.673   2.791   3.094   3.365
 41 A    42 A    43 A    44 A    45 A    46 A    47 A    48 A                  
  Import AO data ...  CPU 0.00 s  wall 0.00 s
  Using point group: C1
  Irreducible representations in point group: A
  Molecular orbitals: 
  Occupied MOs:
  Block   0:   1 (  A) A   2 (  A) A   3 (  A) A   4 (  A) A   5 (  A) A
                  -11.24      -11.24       -1.03     -0.7848     -0.6344
               6 (  A) A   7 (  A) A   8 (  A) A
                 -0.5824     -0.4985     -0.3749
  Block   1:   1 (  A) B   2 (  A) B   3 (  A) B   4 (  A) B   5 (  A) B
                  -11.24      -11.24       -1.03     -0.7848     -0.6344
               6 (  A) B   7 (  A) B   8 (  A) B
                 -0.5824     -0.4985     -0.3749
  Virtual MOs:
  Block   0:   9 (  A) A  10 (  A) A  11 (  A) A  12 (  A) A  13 (  A) A
                  0.1683      0.2025      0.2306      0.2361       0.303
              14 (  A) A  15 (  A) A  16 (  A) A  17 (  A) A  18 (  A) A
                   0.463      0.5796      0.6085      0.6882      0.7038
              19 (  A) A  20 (  A) A  21 (  A) A  22 (  A) A
                  0.7749      0.8075      0.8576       0.927
  Block   1:  23 (  A) A  24 (  A) A  25 (  A) A  26 (  A) A  27 (  A) A
                   0.971       1.005        1.13       1.237       1.241
              28 (  A) A  29 (  A) A  30 (  A) A  31 (  A) A  32 (  A) A
                   1.263       1.291       1.591       1.727       1.743
              33 (  A) A  34 (  A) A  35 (  A) A  36 (  A) A
                    1.81       1.852       1.853         1.9
  Block   2:  37 (  A) A  38 (  A) A  39 (  A) A  40 (  A) A  41 (  A) A
                   1.962       1.971       2.224       2.247       2.353
              42 (  A) A  43 (  A) A  44 (  A) A  45 (  A) A  46 (  A) A
                   2.419        2.49       2.621       2.673       2.791
              47 (  A) A  48 (  A) A
                   3.094       3.365
  Block   3:   9 (  A) B  10 (  A) B  11 (  A) B  12 (  A) B  13 (  A) B
                  0.1683      0.2025      0.2306      0.2361       0.303
              14 (  A) B  15 (  A) B  16 (  A) B  17 (  A) B  18 (  A) B
                   0.463      0.5796      0.6085      0.6882      0.7038
              19 (  A) B  20 (  A) B  21 (  A) B  22 (  A) B
                  0.7749      0.8075      0.8576       0.927
  Block   4:  23 (  A) B  24 (  A) B  25 (  A) B  26 (  A) B  27 (  A) B
                   0.971       1.005        1.13       1.237       1.241
              28 (  A) B  29 (  A) B  30 (  A) B  31 (  A) B  32 (  A) B
                   1.263       1.291       1.591       1.727       1.743
              33 (  A) B  34 (  A) B  35 (  A) B  36 (  A) B
                    1.81       1.852       1.853         1.9
  Block   5:  37 (  A) B  38 (  A) B  39 (  A) B  40 (  A) B  41 (  A) B
                   1.962       1.971       2.224       2.247       2.353
              42 (  A) B  43 (  A) B  44 (  A) B  45 (  A) B  46 (  A) B
                   2.419        2.49       2.621       2.673       2.791
              47 (  A) B  48 (  A) B
                   3.094       3.365
  Import MO data ...  CPU 0.03 s  wall 0.02 s
  Import HF data ...  CPU 0.80 s  wall 0.25 s
  Import 2e integrals ...  CPU 1.21 s  wall 0.23 s

--------------------------------------------------------------------------------
                                   HF Summary                                   
--------------------------------------------------------------------------------
  Energy:                                                  -78.0395485014 a.u.
  Dip. moment [a.u.]:                  [  -0.000005,    0.000002,    0.000016]
  Total dipole [Debye]:                                               0.000043
  <r^2> [a.u.]:                        [ 175.843574,   35.320148,   11.684911]
  Total <r^2> [a.u.]:                                               222.848632
--------------------------------------------------------------------------------
  HF properties ...  CPU 0.03 s  wall 0.02 s
  MP(1) calculation ...  CPU 0.01 s  wall 0.01 s
  N^6 prerequesite intermediates ...  CPU 0.61 s  wall 0.10 s
  Difference density matrix of state mp2_gs printed to ASCII file 'State_mp2_gs_Difference.txt'
Exporting MP density matrix to file 'Densmat_MP.txt'.
Export successful
  Total density matrix of state mp2_gs printed to ASCII file 'State_mp2_gs_Total.txt'
Exporting MP density matrix to file 'Densmat_MP.txt'.
Export successful

--------------------------------------------------------------------------------
                                 MP(2) Summary                                  
--------------------------------------------------------------------------------
  MP energy contribution:                                   -0.2805342813 a.u.
  Total energy:                                            -78.3200827827 a.u.
  Dip. moment [a.u.]:                  [  -0.000005,    0.000002,    0.000016]
  Total dipole [Debye]:                                               0.000042
  <r^2> [a.u.]:                        [ 175.883196,   35.355343,   11.512832]
  Total <r^2> [a.u.]:                                               222.751371

  Density matrix analysis:
  ------------------------
  NOs
    Occupation of frontier NOs:
       0.0454   1.9381
    Number of electrons: 16.000000
    Number of unpaired electrons: n_u =  0.40749, n_u,nl =  0.04579
    NO participation ratio (PR_NO): 13.916462
  
  
  Mulliken Population Analysis
  Atom      Charge (e)              h+              e-           Del q
  --------------------------------------------------------------------
   1 H        0.055531        0.013875       -0.011327        0.002548
   2 C       -0.111067        0.094700       -0.099795       -0.005095
   3 H        0.055541        0.013874       -0.011327        0.002547
   4 C       -0.111075        0.094699       -0.099795       -0.005096
   5 H        0.055540        0.013874       -0.011327        0.002547
   6 H        0.055529        0.013875       -0.011327        0.002548
  --------------------------------------------------------------------
  Sum:        0.000000        0.244897       -0.244897       -0.000000
  
  Multipole moment analysis of the density matrix
    Molecular charge:                      0.000000
    Number of electrons:                   16.000000
      Center of electronic charge [Ang]: [ -1.561338,  -0.065287,   0.002127]
    Total nuclear charge:                  16.000000
      Center of nuclear charge [Ang]:    [ -1.561339,  -0.065286,   0.002127]
    Dipole moment [D]:                     0.000042
      Cartesian components [D]:          [ -0.000012,   0.000005,   0.000041]
    RMS size of the density [Ang]:         1.206856
      Cartesian components [Ang]:        [  0.800307,   0.783913,   0.448877]
  
  Exciton analysis of the difference density matrix
    <r_h> [Ang]:                  [ -1.561338,  -0.065287,   0.002124]
    <r_e> [Ang]:                  [ -1.561338,  -0.065286,   0.002125]
    |<r_e - r_h>| [Ang]:            0.000001
    Hole size [Ang]:                1.402193
      Cartesian components [Ang]: [  0.853667,   0.840933,   0.728170]
    Electron size [Ang]:            1.361959
      Cartesian components [Ang]: [  0.879802,   0.864530,   0.577467]
--------------------------------------------------------------------------------
  MP(2) calculation ...  CPU 0.50 s  wall 0.25 s
  Start ADC(2)-s ...  CPU 0.02 s  wall 0.01 s
  ADC(2) intermediates ...  CPU 0.23 s  wall 0.04 s
  Starting Davidson for singlet states of irrep A ... 
--------------------------------------------------------------------------------
   It NVec Conv  Avg. Norm  Max. Norm  Conv. states           Remark
--------------------------------------------------------------------------------
        10    0  1.329e-01  4.687e-01  0.4119 n n n n n n n n Guess.
    1   20    0  2.311e-02  1.124e-01  0.3266 n n n n n n n n 
    2   30    0  5.845e-03  2.462e-02  0.3218 n n n n n n n n 
    3   40    0  1.756e-03  1.050e-02  0.3214 n n n n n n n n 
    4   50    0  4.991e-04  3.445e-03  0.3214 n n n n n n n n 
    5   20    0  2.574e-04  1.699e-03  0.3214 n n n n n n n n Subspace collapsed.
    6   30    0  1.098e-04  7.717e-04  0.3214 n n n n n n n n 
    7   40    0  8.476e-05  7.717e-04  0.3214 n n n n n n n n 
    8   50    0  3.972e-05  3.444e-04  0.3214 n n n n n n n n 
    9   20    1  2.911e-05  2.708e-04  0.3214 n n n y n n n n Subspace collapsed.
   10   30    5  2.079e-05  1.936e-04  0.3214 n y y y y y n n 
   11   40    6  9.169e-06  8.466e-05  0.3214 y y y y y y n n 
   12   50    6  3.395e-06  2.865e-05  0.3214 y y y y y y n n 
   13   20    6  1.890e-06  1.581e-05  0.3214 y y y y y y n n Subspace collapsed.
   14   30    6  1.447e-06  1.334e-05  0.3214 y y y y y y n n 
   15   40    8  6.980e-07  6.085e-06  0.3214 y y y y y y n y 
   16   50    8  3.440e-07  2.554e-06  0.3214 y y y y y y n y 
   17   20    9  1.798e-07  1.461e-06  0.3214 y y y y y y n y Subspace collapsed.
   18   30    9  1.459e-07  1.113e-06  0.3214 y y y y y y n y 
   19   40   10  1.130e-07  7.670e-07  0.3214 y y y y y y y y Converged.
--------------------------------------------------------------------------------
  Davidson Summary: 
 ------------------------------------------------------------
  State  0: excitation energy =   0.3214 a.u.   (converged)
  State  1: excitation energy =   0.3286 a.u.   (converged)
  State  2: excitation energy =   0.3359 a.u.   (converged)
  State  3: excitation energy =   0.3574 a.u.   (converged)
  State  4: excitation energy =   0.3733 a.u.   (converged)
  State  5: excitation energy =   0.3870 a.u.   (converged)
  State  6: excitation energy =   0.4192 a.u.   (converged)
  State  7: excitation energy =   0.4435 a.u.   (converged)
  State  8: excitation energy =   0.4538 a.u.   (converged)
  State  9: excitation energy =   0.4572 a.u.   (converged)
 ------------------------------------------------------------

  Singlet states of irrep A ...  CPU 139.45 s  wall 43.96 s
  TDMs ...  CPU 2.36 s  wall 0.92 s
  SDMs ...  CPU 5.78 s  wall 1.72 s
  Starting TPA DIIS iterations ... 
------------------------------------ 
   It     Res. Norm  Remark
------------------------------------
                       Guess.
    1     4.376e+00  
    2     5.800e+00  
    3     1.084e+00  
    4     2.632e-01  
    5     6.523e-02  
    6     2.777e-02  
    7     8.467e-03  
    8     1.569e-03  
    9     5.911e-04  
   10     9.883e-05  
   11     3.211e-05  
   12     4.950e-06  
   13     1.688e-06  
   14     4.880e-07  Converged.
   ... Converged in 14 steps (norm: 4.88e-07)
------------------------------------
  Starting TPA DIIS iterations ... 
------------------------------------ 
   It     Res. Norm  Remark
------------------------------------
                       Guess.
    1     4.168e+00  
    2     5.513e+00  
    3     1.035e+00  
    4     2.613e-01  
    5     6.497e-02  
    6     2.777e-02  
    7     8.324e-03  
    8     1.588e-03  
    9     6.001e-04  
   10     9.835e-05  
   11     3.241e-05  
   12     4.919e-06  
   13     1.716e-06  
   14     4.834e-07  Converged.
   ... Converged in 14 steps (norm: 4.83352e-07)
------------------------------------
  Starting TPA DIIS iterations ... 
------------------------------------ 
   It     Res. Norm  Remark
------------------------------------
                       Guess.
    1     6.857e-01  
    2     4.789e-01  
    3     1.683e-01  
    4     6.309e-02  
    5     1.882e-02  
    6     6.722e-03  
    7     1.082e-03  
    8     4.624e-04  
    9     1.272e-04  
   10     3.127e-05  
   11     5.115e-06  
   12     1.854e-06  
   13     8.711e-07  Converged.
   ... Converged in 13 steps (norm: 8.71147e-07)
------------------------------------
  Starting TPA DIIS iterations ... 
------------------------------------ 
   It     Res. Norm  Remark
------------------------------------
                       Guess.
    1     4.549e+00  
    2     6.109e+00  
    3     1.134e+00  
    4     2.809e-01  
    5     7.022e-02  
    6     3.008e-02  
    7     9.161e-03  
    8     1.697e-03  
    9     6.421e-04  
   10     1.077e-04  
   11     3.520e-05  
   12     5.458e-06  
   13     1.870e-06  
   14     5.392e-07  Converged.
   ... Converged in 14 steps (norm: 5.39247e-07)
------------------------------------
  Starting TPA DIIS iterations ... 
------------------------------------ 
   It     Res. Norm  Remark
------------------------------------
                       Guess.
    1     4.332e+00  
    2     5.807e+00  
    3     1.082e+00  
    4     2.787e-01  
    5     6.995e-02  
    6     3.009e-02  
    7     9.007e-03  
    8     1.719e-03  
    9     6.520e-04  
   10     1.072e-04  
   11     3.553e-05  
   12     5.422e-06  
   13     1.901e-06  
   14     5.339e-07  Converged.
   ... Converged in 14 steps (norm: 5.33947e-07)
------------------------------------
  Starting TPA DIIS iterations ... 
------------------------------------ 
   It     Res. Norm  Remark
------------------------------------
                       Guess.
    1     6.931e-01  
    2     4.894e-01  
    3     1.741e-01  
    4     6.808e-02  
    5     1.970e-02  
    6     7.096e-03  
    7     1.164e-03  
    8     5.118e-04  
    9     1.429e-04  
   10     3.430e-05  
   11     5.520e-06  
   12     2.051e-06  
   13     9.951e-07  Converged.
   ... Converged in 13 steps (norm: 9.95112e-07)
------------------------------------
  Starting TPA DIIS iterations ... 
------------------------------------ 
   It     Res. Norm  Remark
------------------------------------
                       Guess.
    1     4.735e+00  
    2     6.446e+00  
    3     1.187e+00  
    4     3.005e-01  
    5     7.575e-02  
    6     3.265e-02  
    7     9.929e-03  
    8     1.838e-03  
    9     6.987e-04  
   10     1.177e-04  
   11     3.868e-05  
   12     6.029e-06  
   13     2.076e-06  
   14     5.969e-07  Converged.
   ... Converged in 14 steps (norm: 5.96941e-07)
------------------------------------
  Starting TPA DIIS iterations ... 
------------------------------------ 
   It     Res. Norm  Remark
------------------------------------
                       Guess.
    1     4.508e+00  
    2     6.126e+00  
    3     1.132e+00  
    4     2.980e-01  
    5     7.545e-02  
    6     3.267e-02  
    7     9.764e-03  
    8     1.863e-03  
    9     7.098e-04  
   10     1.171e-04  
   11     3.903e-05  
   12     5.987e-06  
   13     2.112e-06  
   14     5.909e-07  Converged.
   ... Converged in 14 steps (norm: 5.90922e-07)
------------------------------------
  Starting TPA DIIS iterations ... 
------------------------------------ 
   It     Res. Norm  Remark
------------------------------------
                       Guess.
    1     7.008e-01  
    2     5.003e-01  
    3     1.804e-01  
    4     7.368e-02  
    5     2.063e-02  
    6     7.507e-03  
    7     1.257e-03  
    8     5.685e-04  
    9     1.609e-04  
   10     3.725e-05  
   11     5.963e-06  
   12     2.276e-06  
   13     1.142e-06  
   14     4.293e-07  Converged.
   ... Converged in 14 steps (norm: 4.29279e-07)
------------------------------------
  Starting TPA DIIS iterations ... 
------------------------------------ 
   It     Res. Norm  Remark
------------------------------------
                       Guess.
    1     5.362e+00  
    2     7.611e+00  
    3     1.365e+00  
    4     3.704e-01  
    5     9.549e-02  
    6     4.194e-02  
    7     1.268e-02  
    8     2.343e-03  
    9     9.033e-04  
   10     1.536e-04  
   11     5.150e-05  
   12     8.138e-06  
   13     2.851e-06  
   14     8.113e-07  Converged.
   ... Converged in 14 steps (norm: 8.1134e-07)
------------------------------------
  Starting TPA DIIS iterations ... 
------------------------------------ 
   It     Res. Norm  Remark
------------------------------------
                       Guess.
    1     5.103e+00  
    2     7.233e+00  
    3     1.302e+00  
    4     3.666e-01  
    5     9.514e-02  
    6     4.201e-02  
    7     1.248e-02  
    8     2.379e-03  
    9     9.186e-04  
   10     1.529e-04  
   11     5.190e-05  
   12     8.070e-06  
   13     2.904e-06  
   14     8.029e-07  Converged.
   ... Converged in 14 steps (norm: 8.02886e-07)
------------------------------------
  Starting TPA DIIS iterations ... 
------------------------------------ 
   It     Res. Norm  Remark
------------------------------------
                       Guess.
    1     7.243e-01  
    2     5.356e-01  
    3     2.010e-01  
    4     9.420e-02  
    5     2.373e-02  
    6     8.977e-03  
    7     1.598e-03  
    8     7.821e-04  
    9     2.276e-04  
   10     4.435e-05  
   11     7.522e-06  
   12     3.124e-06  
   13     1.746e-06  
   14     6.131e-07  Converged.
   ... Converged in 14 steps (norm: 6.13116e-07)
------------------------------------
  Starting TPA DIIS iterations ... 
------------------------------------ 
   It     Res. Norm  Remark
------------------------------------
                       Guess.
    1     5.918e+00  
    2     8.678e+00  
    3     1.522e+00  
    4     4.370e-01  
    5     1.143e-01  
    6     5.090e-02  
    7     1.531e-02  
    8     2.823e-03  
    9     1.101e-03  
   10     1.883e-04  
   11     6.411e-05  
   12     1.022e-05  
   13     3.632e-06  
   14     1.027e-06  
   15     3.346e-07  Converged.
   ... Converged in 15 steps (norm: 3.34622e-07)
------------------------------------
  Starting TPA DIIS iterations ... 
------------------------------------ 
   It     Res. Norm  Remark
------------------------------------
                       Guess.
    1     5.631e+00  
    2     8.246e+00  
    3     1.451e+00  
    4     4.319e-01  
    5     1.139e-01  
    6     5.103e-02  
    7     1.506e-02  
    8     2.870e-03  
    9     1.120e-03  
   10     1.875e-04  
   11     6.452e-05  
   12     1.012e-05  
   13     3.700e-06  
   14     1.016e-06  
   15     3.339e-07  Converged.
   ... Converged in 15 steps (norm: 3.33874e-07)
------------------------------------
  Starting TPA DIIS iterations ... 
------------------------------------ 
   It     Res. Norm  Remark
------------------------------------
                       Guess.
    1     7.427e-01  
    2     5.647e-01  
    3     2.186e-01  
    4     1.143e-01  
    5     2.651e-02  
    6     1.038e-02  
    7     1.941e-03  
    8     9.881e-04  
    9     2.901e-04  
   10     4.747e-05  
   11     9.006e-06  
   12     3.972e-06  
   13     2.411e-06  
   14     7.972e-07  Converged.
   ... Converged in 14 steps (norm: 7.97181e-07)
------------------------------------
  Starting TPA DIIS iterations ... 
------------------------------------ 
   It     Res. Norm  Remark
------------------------------------
                       Guess.
    1     6.479e+00  
    2     9.784e+00  
    3     1.679e+00  
    4     5.082e-01  
    5     1.344e-01  
    6     6.058e-02  
    7     1.812e-02  
    8     3.335e-03  
    9     1.313e-03  
   10     2.258e-04  
   11     7.784e-05  
   12     1.248e-05  
   13     4.495e-06  
   14     1.270e-06  
   15     4.168e-07  Converged.
   ... Converged in 15 steps (norm: 4.16824e-07)
------------------------------------
  Starting TPA DIIS iterations ... 
------------------------------------ 
   It     Res. Norm  Remark
------------------------------------
                       Guess.
    1     6.163e+00  
    2     9.297e+00  
    3     1.600e+00  
    4     5.016e-01  
    5     1.339e-01  
    6     6.079e-02  
    7     1.783e-02  
    8     3.395e-03  
    9     1.337e-03  
   10     2.249e-04  
   11     7.825e-05  
   12     1.235e-05  
   13     4.579e-06  
   14     1.258e-06  
   15     4.156e-07  Converged.
   ... Converged in 15 steps (norm: 4.15555e-07)
------------------------------------
  Starting TPA DIIS iterations ... 
------------------------------------ 
   It     Res. Norm  Remark
------------------------------------
                       Guess.
    1     7.594e-01  
    2     5.925e-01  
    3     2.359e-01  
    4     1.361e-01  
    5     2.938e-02  
    6     1.189e-02  
    7     2.325e-03  
    8     1.197e-03  
    9     3.527e-04  
   10     4.909e-05  
   11     1.063e-05  
   12     4.898e-06  
   13     3.191e-06  
   14     9.994e-07  Converged.
   ... Converged in 14 steps (norm: 9.99355e-07)
------------------------------------
  Starting TPA DIIS iterations ... 
------------------------------------ 
   It     Res. Norm  Remark
------------------------------------
                       Guess.
    1     8.195e+00  
    2     1.335e+01  
    3     2.153e+00  
    4     7.482e-01  
    5     2.020e-01  
    6     9.389e-02  
    7     2.761e-02  
    8     5.056e-03  
    9     2.042e-03  
   10     3.541e-04  
   11     1.244e-04  
   12     2.030e-05  
   13     7.437e-06  
   14     2.185e-06  
   15     7.046e-07  Converged.
   ... Converged in 15 steps (norm: 7.04611e-07)
------------------------------------
  Starting TPA DIIS iterations ... 
------------------------------------ 
   It     Res. Norm  Remark
------------------------------------
                       Guess.
    1     7.792e+00  
    2     1.268e+01  
    3     2.050e+00  
    4     7.357e-01  
    5     2.014e-01  
    6     9.438e-02  
    7     2.719e-02  
    8     5.163e-03  
    9     2.081e-03  
   10     3.526e-04  
   11     1.247e-04  
   12     2.004e-05  
   13     7.567e-06  
   14     2.166e-06  
   15     7.012e-07  Converged.
   ... Converged in 15 steps (norm: 7.01163e-07)
------------------------------------
  Starting TPA DIIS iterations ... 
------------------------------------ 
   It     Res. Norm  Remark
------------------------------------
                       Guess.
    1     8.021e-01  
    2     6.696e-01  
    3     2.860e-01  
    4     2.097e-01  
    5     3.876e-02  
    6     1.698e-02  
    7     3.716e-03  
    8     1.736e-03  
    9     5.318e-04  
   10     5.598e-05  
   11     1.641e-05  
   12     7.967e-06  
   13     6.049e-06  
   14     1.700e-06  
   15     6.237e-07  Converged.
   ... Converged in 15 steps (norm: 6.23709e-07)
------------------------------------
  Starting TPA DIIS iterations ... 
------------------------------------ 
   It     Res. Norm  Remark
------------------------------------
                       Guess.
    1     1.002e+01  
    2     1.740e+01  
    3     2.644e+00  
    4     1.032e+00  
    5     2.827e-01  
    6     1.345e-01  
    7     3.893e-02  
    8     7.100e-03  
    9     2.926e-03  
   10     5.089e-04  
   11     1.780e-04  
   12     2.995e-05  
   13     1.081e-05  
   14     3.442e-06  
   15     1.112e-06  
   16     2.555e-07  Converged.
   ... Converged in 16 steps (norm: 2.55495e-07)
------------------------------------
  Starting TPA DIIS iterations ... 
------------------------------------ 
   It     Res. Norm  Remark
------------------------------------
                       Guess.
    1     9.525e+00  
    2     1.652e+01  
    3     2.517e+00  
    4     1.011e+00  
    5     2.819e-01  
    6     1.354e-01  
    7     3.835e-02  
    8     7.265e-03  
    9     2.983e-03  
   10     5.066e-04  
   11     1.783e-04  
   12     2.953e-05  
   13     1.099e-05  
   14     3.402e-06  
   15     1.111e-06  
   16     2.692e-07  Converged.
   ... Converged in 16 steps (norm: 2.69155e-07)
------------------------------------
  Starting TPA DIIS iterations ... 
------------------------------------ 
   It     Res. Norm  Remark
------------------------------------
                       Guess.
    1     8.379e-01  
    2     7.422e-01  
    3     3.355e-01  
    4     2.913e-01  
    5     4.953e-02  
    6     2.284e-02  
    7     5.471e-03  
    8     2.066e-03  
    9     7.020e-04  
   10     7.289e-05  
   11     2.375e-05  
   12     1.128e-05  
   13     9.331e-06  
   14     2.547e-06  
   15     8.548e-07  Converged.
   ... Converged in 15 steps (norm: 8.54791e-07)
------------------------------------
  Starting TPA DIIS iterations ... 
------------------------------------ 
   It     Res. Norm  Remark
------------------------------------
                       Guess.
    1     1.100e+01  
    2     1.968e+01  
    3     2.904e+00  
    4     1.194e+00  
    5     3.293e-01  
    6     1.584e-01  
    7     4.548e-02  
    8     8.277e-03  
    9     3.443e-03  
   10     5.988e-04  
   11     2.077e-04  
   12     3.579e-05  
   13     1.277e-05  
   14     4.225e-06  
   15     1.427e-06  
   16     3.260e-07  Converged.
   ... Converged in 16 steps (norm: 3.25962e-07)
------------------------------------
  Starting TPA DIIS iterations ... 
------------------------------------ 
   It     Res. Norm  Remark
------------------------------------
                       Guess.
    1     1.046e+01  
    2     1.869e+01  
    3     2.764e+00  
    4     1.168e+00  
    5     3.284e-01  
    6     1.595e-01  
    7     4.481e-02  
    8     8.478e-03  
    9     3.509e-03  
   10     5.959e-04  
   11     2.081e-04  
   12     3.526e-05  
   13     1.298e-05  
   14     4.166e-06  
   15     1.429e-06  
   16     3.425e-07  Converged.
   ... Converged in 16 steps (norm: 3.42527e-07)
------------------------------------
  Starting TPA DIIS iterations ... 
------------------------------------ 
   It     Res. Norm  Remark
------------------------------------
                       Guess.
    1     8.543e-01  
    2     7.784e-01  
    3     3.609e-01  
    4     3.337e-01  
    5     5.558e-02  
    6     2.604e-02  
    7     6.496e-03  
    8     2.161e-03  
    9     7.879e-04  
   10     8.459e-05  
   11     2.810e-05  
   12     1.303e-05  
   13     1.104e-05  
   14     3.031e-06  
   15     9.586e-07  Converged.
   ... Converged in 15 steps (norm: 9.58594e-07)
------------------------------------
  Starting TPA DIIS iterations ... 
------------------------------------ 
   It     Res. Norm  Remark
------------------------------------
                       Guess.
    1     1.137e+01  
    2     2.053e+01  
    3     2.999e+00  
    4     1.255e+00  
    5     3.469e-01  
    6     1.674e-01  
    7     4.795e-02  
    8     8.722e-03  
    9     3.639e-03  
   10     6.327e-04  
   11     2.188e-04  
   12     3.806e-05  
   13     1.353e-05  
   14     4.529e-06  
   15     1.565e-06  
   16     3.541e-07  Converged.
   ... Converged in 16 steps (norm: 3.54064e-07)
------------------------------------
  Starting TPA DIIS iterations ... 
------------------------------------ 
   It     Res. Norm  Remark
------------------------------------
                       Guess.
    1     1.080e+01  
    2     1.950e+01  
    3     2.854e+00  
    4     1.227e+00  
    5     3.459e-01  
    6     1.687e-01  
    7     4.725e-02  
    8     8.936e-03  
    9     3.709e-03  
   10     6.297e-04  
   11     2.193e-04  
   12     3.748e-05  
   13     1.375e-05  
   14     4.463e-06  
   15     1.567e-06  
   16     3.708e-07  Converged.
   ... Converged in 16 steps (norm: 3.70849e-07)
------------------------------------
  Starting TPA DIIS iterations ... 
------------------------------------ 
   It     Res. Norm  Remark
------------------------------------
                       Guess.
    1     8.600e-01  
    2     7.913e-01  
    3     3.700e-01  
    4     3.487e-01  
    5     5.784e-02  
    6     2.721e-02  
    7     6.882e-03  
    8     2.187e-03  
    9     8.187e-04  
   10     8.912e-05  
   11     2.975e-05  
   12     1.367e-05  
   13     1.165e-05  
   14     3.211e-06  
   15     9.939e-07  Converged.
   ... Converged in 15 steps (norm: 9.93936e-07)
------------------------------------
  Two-photon absorbption ...  CPU 167.60 s  wall 45.77 s
  Transition density matrix of state singlet_A_1 printed to ASCII file 'State_singlet_A_1_Transition.txt'
  Transition density matrix of state singlet_A_2 printed to ASCII file 'State_singlet_A_2_Transition.txt'
  Transition density matrix of state singlet_A_3 printed to ASCII file 'State_singlet_A_3_Transition.txt'
  Transition density matrix of state singlet_A_4 printed to ASCII file 'State_singlet_A_4_Transition.txt'
  Transition density matrix of state singlet_A_5 printed to ASCII file 'State_singlet_A_5_Transition.txt'
  Transition density matrix of state singlet_A_6 printed to ASCII file 'State_singlet_A_6_Transition.txt'
  Transition density matrix of state singlet_A_7 printed to ASCII file 'State_singlet_A_7_Transition.txt'
  Transition density matrix of state singlet_A_8 printed to ASCII file 'State_singlet_A_8_Transition.txt'
  Transition density matrix of state singlet_A_9 printed to ASCII file 'State_singlet_A_9_Transition.txt'
  Transition density matrix of state singlet_A_10 printed to ASCII file 'State_singlet_A_10_Transition.txt'
  Transition properties ...  CPU 0.35 s  wall 0.54 s
  Difference density matrix of state singlet_A_1 printed to ASCII file 'State_singlet_A_1_Difference.txt'
  Total density matrix of state singlet_A_1 printed to ASCII file 'State_singlet_A_1_Total.txt'
  Difference density matrix of state singlet_A_2 printed to ASCII file 'State_singlet_A_2_Difference.txt'
  Total density matrix of state singlet_A_2 printed to ASCII file 'State_singlet_A_2_Total.txt'
  Difference density matrix of state singlet_A_3 printed to ASCII file 'State_singlet_A_3_Difference.txt'
  Total density matrix of state singlet_A_3 printed to ASCII file 'State_singlet_A_3_Total.txt'
  Difference density matrix of state singlet_A_4 printed to ASCII file 'State_singlet_A_4_Difference.txt'
  Total density matrix of state singlet_A_4 printed to ASCII file 'State_singlet_A_4_Total.txt'
  Difference density matrix of state singlet_A_5 printed to ASCII file 'State_singlet_A_5_Difference.txt'
  Total density matrix of state singlet_A_5 printed to ASCII file 'State_singlet_A_5_Total.txt'
  Difference density matrix of state singlet_A_6 printed to ASCII file 'State_singlet_A_6_Difference.txt'
  Total density matrix of state singlet_A_6 printed to ASCII file 'State_singlet_A_6_Total.txt'
  Difference density matrix of state singlet_A_7 printed to ASCII file 'State_singlet_A_7_Difference.txt'
  Total density matrix of state singlet_A_7 printed to ASCII file 'State_singlet_A_7_Total.txt'
  Difference density matrix of state singlet_A_8 printed to ASCII file 'State_singlet_A_8_Difference.txt'
  Total density matrix of state singlet_A_8 printed to ASCII file 'State_singlet_A_8_Total.txt'
  Difference density matrix of state singlet_A_9 printed to ASCII file 'State_singlet_A_9_Difference.txt'
  Total density matrix of state singlet_A_9 printed to ASCII file 'State_singlet_A_9_Total.txt'
  Difference density matrix of state singlet_A_10 printed to ASCII file 'State_singlet_A_10_Difference.txt'
  Total density matrix of state singlet_A_10 printed to ASCII file 'State_singlet_A_10_Total.txt'
  Properties ...  CPU 0.63 s  wall 0.90 s
  ISR TDMS ...  CPU 29.97 s  wall 9.65 s
  ISR transition properties ...  CPU 0.59 s  wall 0.27 s
  Sum-over-states TPA ...  CPU 0.00 s  wall 0.00 s

--------------------------------------------------------------------------------
                   State-averaged natural transition orbitals
--------------------------------------------------------------------------------
--------------------------------------------------------------------------------
  SA-NTO decomposition ...  CPU 0.01 s  wall 0.03 s

--------------------------------------------------------------------------------
                             Excited State Summary
--------------------------------------------------------------------------------
--------------------------------------------------------------------------------

  Excited state 1 (singlet, A)                                     [converged]
  ----------------------------------------------------------------------------
  Term symbol:  2 (1) A                                     R^2 =  2.18157e-10

  Total energy:                                            -77.9987012610 a.u.
  Excitation energy:                                               8.745236 eV

  Osc. strength:                                                      0.446991
  Trans. dip. moment [a.u.]:           [   1.047294,   -0.994657,   -0.009713]
  <i|r^2|0> [a.u.]:                    [   6.180044,   -0.245482,    0.000165]
  Two-photon absorption cross-section (SoS) [a.u.]:                   0.000000
  Two-photon absorption matrix (SoS) [a.u.]:
                                       |    0.000030   -0.000011    0.000053 |
                                       |   -0.000011    0.000005    0.000089 |
                                       |    0.000053    0.000089    0.000035 |
  Two-photon absorption cross-section [a.u.]:                         0.000001
  Two-photon absorption matrix [a.u.]:
                                       |    0.000023    0.000016   -0.000267 |
                                       |    0.000016   -0.000010   -0.000221 |
                                       |   -0.000267   -0.000221   -0.000040 |

  Dip. moment [a.u.]:                  [  -0.000004,    0.000001,    0.000019]
  Total dipole [Debye]:                                               0.000050
  <r^2> [a.u.]:                        [ 176.629923,   36.041643,   11.926072]
  Total <r^2> [a.u.]:                                               224.597638

  V1^2 = 0.9713, V2^2 = 0.0287

  Important amplitudes:
      occ i     occ j     vir a      vir b          v   
    -----------------------------------------------------
     8 (A) A              9 (A) A                 0.6809
     4 (A) A             10 (A) A                 0.0618
     6 (A) A             14 (A) A                -0.0614
     7 (A) A             16 (A) A                -0.0576
     5 (A) A             13 (A) A                -0.0530
     6 (A) A             23 (A) A                -0.0485
     8 (A) A             20 (A) A                 0.0348
     6 (A) A             19 (A) A                -0.0299
     3 (A) A             12 (A) A                -0.0285
     5 (A) A             22 (A) A                 0.0219
     4 (A) A             24 (A) A                 0.0188
     3 (A) A             26 (A) A                 0.0187
     8 (A) A   8 (A) B   17 (A) A   20 (A) B     -0.0184
     7 (A) A             11 (A) A                 0.0183
     8 (A) A   8 (A) B    9 (A) A   28 (A) B     -0.0168
     6 (A) A             26 (A) A                 0.0163
     7 (A) A             21 (A) A                -0.0153
     3 (A) A             14 (A) A                -0.0143
     6 (A) A             12 (A) A                 0.0140
     3 (A) A   4 (A) B    9 (A) A    9 (A) B     -0.0129
     3 (A) A             19 (A) A                -0.0120
     8 (A) A   8 (A) B   18 (A) A   19 (A) B      0.0110
     7 (A) A             32 (A) A                -0.0098
     7 (A) A             36 (A) A                -0.0086
     3 (A) A             23 (A) A                -0.0083
     8 (A) A   8 (A) B   25 (A) A   29 (A) B     -0.0076
     6 (A) A             35 (A) A                 0.0071
     6 (A) A             40 (A) A                -0.0067
     3 (A) A   6 (A) B    9 (A) A   28 (A) B     -0.0064
     5 (A) A   8 (A) B   11 (A) A    9 (A) B     -0.0063
     7 (A) A   8 (A) B   13 (A) A   20 (A) B     -0.0060
     5 (A) A             27 (A) A                -0.0060
     5 (A) A   8 (A) B   11 (A) A   20 (A) B      0.0060
     5 (A) A   7 (A) B    9 (A) A    9 (A) B      0.0060
     5 (A) A   8 (A) B   16 (A) A    9 (A) B     -0.0059
     6 (A) A   8 (A) A   19 (A) A   28 (A) A     -0.0059
     3 (A) A   5 (A) B    9 (A) A   25 (A) B     -0.0058
     7 (A) A   8 (A) B   22 (A) A   20 (A) B      0.0057
     3 (A) A             40 (A) A                -0.0056
     8 (A) A   8 (A) B   19 (A) A   30 (A) B      0.0056
    -----------------------------------------------------

  Density matrix analysis:
  ------------------------
  NOs
    Occupation of frontier NOs:
       0.9490   1.0220
    Number of electrons: 16.000000
    Number of unpaired electrons: n_u =  2.31721, n_u,nl =  2.03334
    NO participation ratio (PR_NO):  2.875501
  
  
  Mulliken Population Analysis
  Atom      Charge (e)              h+              e-           Del q
  --------------------------------------------------------------------
   1 H        0.063631        0.020515       -0.012415        0.008099
   2 C       -0.127267        0.490754       -0.506954       -0.016200
   3 H        0.063642        0.020516       -0.012415        0.008101
   4 C       -0.127276        0.490753       -0.506955       -0.016202
   5 H        0.063641        0.020516       -0.012415        0.008101
   6 H        0.063629        0.020515       -0.012415        0.008100
  --------------------------------------------------------------------
  Sum:        0.000000        1.063569       -1.063569       -0.000000
  
  Multipole moment analysis of the density matrix
    Molecular charge:                      0.000000
    Number of electrons:                   16.000000
      Center of electronic charge [Ang]: [ -1.561339,  -0.065287,   0.002126]
    Total nuclear charge:                  16.000000
      Center of nuclear charge [Ang]:    [ -1.561339,  -0.065286,   0.002127]
    Dipole moment [D]:                     0.000050
      Cartesian components [D]:          [ -0.000011,   0.000001,   0.000049]
    RMS size of the density [Ang]:         1.220170
      Cartesian components [Ang]:        [  0.808431,   0.791537,   0.456862]
  
  Exciton analysis of the difference density matrix
    <r_h> [Ang]:                  [ -1.561336,  -0.065287,   0.002119]
    <r_e> [Ang]:                  [ -1.561336,  -0.065287,   0.002117]
    |<r_e - r_h>| [Ang]:            0.000002
    Hole size [Ang]:                1.287319
      Cartesian components [Ang]: [  0.730298,   0.714931,   0.782770]
    Electron size [Ang]:            1.464000
      Cartesian components [Ang]: [  0.854366,   0.831759,   0.849430]

  Transition density matrix analysis:
  -----------------------------------
  
  CT numbers (Mulliken)
    omega =     0.9531
    <Phe> =    -0.1598
  
  Exciton analysis of the transition density matrix
    Trans. dipole moment [D]:             1.835637
      Cartesian components [D]:         [  1.330978,  -1.264083,  -0.012344]
    <r_h> [Ang]:                        [ -1.561335,  -0.065288,   0.002120]
    <r_e> [Ang]:                        [ -1.561336,  -0.065287,   0.002116]
    |<r_e - r_h>| [Ang]:                  0.000005
    Hole size [Ang]:                      1.213844
      Cartesian components [Ang]:       [  0.649538,   0.636703,   0.803820]
    Electron size [Ang]:                  1.487086
      Cartesian components [Ang]:       [  0.864922,   0.840721,   0.869784]
    RMS electron-hole separation [Ang]:   1.936705
      Cartesian components [Ang]:       [  1.106330,   1.075881,   1.170188]
    Covariance(r_h, r_e) [Ang^2]:        -0.032991
    Correlation coefficient:             -0.018277
    Center-of-mass size [Ang]:            0.951165
      Cartesian components [Ang]:       [  0.528208,   0.516451,   0.599158]

  Decomposition into state-averaged NTOs
    H- 0 -> L+ 0:  0.6696 ( 89.7%)
    H- 2 -> L+ 5:  0.0827 (  1.4%)
                   omega =  95.3%
  ----------------------------------------------------------------------------


  Excited state 2 (singlet, A)                                     [converged]
  ----------------------------------------------------------------------------
  Term symbol:  3 (1) A                                     R^2 =  2.01081e-11

  Total energy:                                            -77.9914667369 a.u.
  Excitation energy:                                               8.942097 eV

  Osc. strength:                                                      0.000000
  Trans. dip. moment [a.u.]:           [  -0.000608,    0.000560,    0.000010]
  <i|r^2|0> [a.u.]:                    [  -0.069590,   -0.086789,    0.152931]
  Two-photon absorption cross-section (SoS) [a.u.]:                   4.544813
  Two-photon absorption matrix (SoS) [a.u.]:
                                       |   -0.049774   -0.057275    0.513250 |
                                       |   -0.057275   -0.065430    0.539796 |
                                       |    0.513250    0.539796    0.115204 |
  Two-photon absorption cross-section [a.u.]:                         0.187579
  Two-photon absorption matrix [a.u.]:
                                       |    0.009325    0.011596   -0.104302 |
                                       |    0.011596    0.014078   -0.109625 |
                                       |   -0.104302   -0.109625   -0.023404 |

  Dip. moment [a.u.]:                  [  -0.000046,    0.000050,    0.000037]
  Total dipole [Debye]:                                               0.000196
  <r^2> [a.u.]:                        [ 174.964473,   34.386561,   13.218582]
  Total <r^2> [a.u.]:                                               222.569615

  V1^2 = 0.9541, V2^2 = 0.0459

  Important amplitudes:
      occ i     occ j     vir a      vir b          v   
    -----------------------------------------------------
     7 (A) A              9 (A) A                -0.6683
     8 (A) A             11 (A) A                -0.1525
     7 (A) A             20 (A) A                -0.0756
     5 (A) A   8 (A) B    9 (A) A    9 (A) B     -0.0314
     8 (A) A             16 (A) A                -0.0282
     8 (A) A             21 (A) A                 0.0178
     5 (A) A             28 (A) A                -0.0150
     4 (A) A   7 (A) B    9 (A) A   19 (A) B     -0.0136
     5 (A) A   7 (A) B    9 (A) A   16 (A) B     -0.0134
     7 (A) A   8 (A) B   20 (A) A   17 (A) B      0.0106
     7 (A) A   8 (A) A    9 (A) A   28 (A) A     -0.0098
     5 (A) A   8 (A) B    9 (A) A   20 (A) B     -0.0094
     4 (A) A   6 (A) B    9 (A) A   16 (A) B     -0.0091
     5 (A) A   6 (A) A    9 (A) A   23 (A) A     -0.0090
     5 (A) A   6 (A) A    9 (A) A   14 (A) A     -0.0088
     6 (A) A   7 (A) B    9 (A) A   18 (A) B      0.0086
     8 (A) A   7 (A) B    9 (A) A   28 (A) B      0.0085
     4 (A) A   5 (A) A    9 (A) A   10 (A) A     -0.0085
     5 (A) A   6 (A) B    9 (A) A   19 (A) B     -0.0085
     5 (A) A   6 (A) B    9 (A) A   23 (A) B     -0.0080
     3 (A) A   7 (A) B    9 (A) A   18 (A) B     -0.0080
     5 (A) A   7 (A) A    9 (A) A   16 (A) A     -0.0078
     4 (A) A   8 (A) B    9 (A) A   25 (A) B     -0.0076
     4 (A) A   7 (A) B   19 (A) A    9 (A) B     -0.0075
     7 (A) A   8 (A) B   17 (A) A   20 (A) B      0.0074
     5 (A) A   5 (A) B    9 (A) A   13 (A) B     -0.0073
     7 (A) A   8 (A) B   19 (A) A   18 (A) B     -0.0070
     4 (A) A   5 (A) B    9 (A) A   18 (A) B      0.0069
     5 (A) A   8 (A) A    9 (A) A   20 (A) A     -0.0068
     7 (A) A   7 (A) B   20 (A) A   22 (A) B     -0.0066
     7 (A) A   8 (A) B   17 (A) A    9 (A) B      0.0065
     5 (A) A   6 (A) B    9 (A) A   14 (A) B     -0.0062
     5 (A) A   7 (A) B   11 (A) A   20 (A) B     -0.0062
     4 (A) A   5 (A) B   10 (A) A    9 (A) B      0.0061
     4 (A) A   7 (A) A    9 (A) A   19 (A) A     -0.0061
     5 (A) A             38 (A) A                -0.0060
     4 (A) A   6 (A) B   16 (A) A    9 (A) B     -0.0058
     4 (A) A   8 (A) A    9 (A) A   25 (A) A     -0.0056
     6 (A) A   7 (A) A   19 (A) A   28 (A) A      0.0056
     5 (A) A   7 (A) A   11 (A) A   20 (A) A     -0.0054
    -----------------------------------------------------

  Density matrix analysis:
  ------------------------
  NOs
    Occupation of frontier NOs:
       0.9551   1.0559
    Number of electrons: 16.000000
    Number of unpaired electrons: n_u =  2.35869, n_u,nl =  2.06548
    NO participation ratio (PR_NO):  3.050321
  
  
  Mulliken Population Analysis
  Atom      Charge (e)              h+              e-           Del q
  --------------------------------------------------------------------
   1 H        0.155489        0.124918       -0.024961        0.099958
   2 C       -0.310975        0.272509       -0.472418       -0.199908
   3 H        0.155480        0.124909       -0.024971        0.099939
   4 C       -0.310981        0.272526       -0.472433       -0.199907
   5 H        0.155492        0.124918       -0.024965        0.099952
   6 H        0.155495        0.124930       -0.024964        0.099966
  --------------------------------------------------------------------
  Sum:       -0.000000        1.044711       -1.044711       -0.000000
  
  Multipole moment analysis of the density matrix
    Molecular charge:                      -0.000000
    Number of electrons:                   16.000000
      Center of electronic charge [Ang]: [ -1.561337,  -0.065288,   0.002126]
    Total nuclear charge:                  16.000000
      Center of nuclear charge [Ang]:    [ -1.561339,  -0.065286,   0.002127]
    Dipole moment [D]:                     0.000196
      Cartesian components [D]:          [ -0.000116,   0.000127,   0.000094]
    RMS size of the density [Ang]:         1.205539
      Cartesian components [Ang]:        [  0.790200,   0.773022,   0.480983]
  
  Exciton analysis of the difference density matrix
    <r_h> [Ang]:                  [ -1.561368,  -0.065264,   0.002129]
    <r_e> [Ang]:                  [ -1.561347,  -0.065288,   0.002118]
    |<r_e - r_h>| [Ang]:            0.000034
    Hole size [Ang]:                1.497365
      Cartesian components [Ang]: [  1.014658,   1.002076,   0.456525]
    Electron size [Ang]:            1.481029
      Cartesian components [Ang]: [  0.885063,   0.862831,   0.815862]

  Transition density matrix analysis:
  -----------------------------------
  
  CT numbers (Mulliken)
    omega =     0.9214
    <Phe> =    -0.0113
  
  Exciton analysis of the transition density matrix
    Trans. dipole moment [D]:             0.001050
      Cartesian components [D]:         [ -0.000772,   0.000711,   0.000013]
    <r_h> [Ang]:                        [ -1.561374,  -0.065260,   0.002131]
    <r_e> [Ang]:                        [ -1.561344,  -0.065291,   0.002116]
    |<r_e - r_h>| [Ang]:                  0.000046
    Hole size [Ang]:                      1.528498
      Cartesian components [Ang]:       [  1.039541,   1.026927,   0.448420]
    Electron size [Ang]:                  1.476237
      Cartesian components [Ang]:       [  0.873858,   0.850849,   0.831687]
    RMS electron-hole separation [Ang]:   2.105022
      Cartesian components [Ang]:       [  1.342028,   1.318622,   0.944095]
    Covariance(r_h, r_e) [Ang^2]:         0.042232
    Correlation coefficient:              0.018716
    Center-of-mass size [Ang]:            1.072386
      Cartesian components [Ang]:       [  0.686933,   0.674219,   0.472825]

  Decomposition into state-averaged NTOs
    H- 1 -> L+ 0: -0.6605 ( 87.3%)
    H- 0 -> L+ 2:  0.1525 (  4.6%)
                   omega =  92.1%
  ----------------------------------------------------------------------------


  Excited state 3 (singlet, A)                                     [converged]
  ----------------------------------------------------------------------------
  Term symbol:  4 (1) A                                     R^2 =  3.01439e-11

  Total energy:                                            -77.9841759092 a.u.
  Excitation energy:                                               9.140491 eV

  Osc. strength:                                                      0.023235
  Trans. dip. moment [a.u.]:           [  -0.015283,   -0.019535,    0.321158]
  <i|r^2|0> [a.u.]:                    [  -0.089961,   -0.005020,   -0.002590]
  Two-photon absorption cross-section (SoS) [a.u.]:                   0.000016
  Two-photon absorption matrix (SoS) [a.u.]:
                                       |    0.001377    0.000073    0.000150 |
                                       |    0.000073   -0.001444   -0.000029 |
                                       |    0.000150   -0.000029   -0.000131 |
  Two-photon absorption cross-section [a.u.]:                         0.000009
  Two-photon absorption matrix [a.u.]:
                                       |    0.000935    0.000076    0.000133 |
                                       |    0.000076   -0.001105   -0.000036 |
                                       |    0.000133   -0.000036   -0.000077 |

  Dip. moment [a.u.]:                  [   0.000028,    0.000065,   -0.000016]
  Total dipole [Debye]:                                               0.000184
  <r^2> [a.u.]:                        [ 181.405717,   41.028428,   11.058351]
  Total <r^2> [a.u.]:                                               233.492496

  V1^2 = 0.9579, V2^2 = 0.0421

  Important amplitudes:
      occ i     occ j     vir a      vir b          v   
    -----------------------------------------------------
     8 (A) A             10 (A) A                -0.6887
     8 (A) A             24 (A) A                -0.0509
     8 (A) A             18 (A) A                 0.0335
     4 (A) A              9 (A) A                -0.0249
     8 (A) A   8 (A) B    9 (A) A   12 (A) B      0.0223
     8 (A) A   8 (A) B   10 (A) A   17 (A) B     -0.0172
     5 (A) A   8 (A) B   11 (A) A   10 (A) B      0.0170
     8 (A) A             15 (A) A                -0.0147
     7 (A) A   8 (A) B   13 (A) A   10 (A) B     -0.0143
     4 (A) A   8 (A) B   12 (A) A   10 (A) B      0.0113
     6 (A) A   8 (A) A   10 (A) A   15 (A) A      0.0112
     7 (A) A   8 (A) B   22 (A) A   10 (A) B      0.0109
     6 (A) A   8 (A) B   15 (A) A   10 (A) B     -0.0109
     4 (A) A   8 (A) A   10 (A) A   12 (A) A     -0.0108
     7 (A) A   8 (A) A   10 (A) A   22 (A) A     -0.0100
     7 (A) A   8 (A) A   10 (A) A   13 (A) A      0.0099
     5 (A) A   8 (A) A   10 (A) A   11 (A) A     -0.0098
     5 (A) A   8 (A) B   21 (A) A   10 (A) B     -0.0093
     6 (A) A   8 (A) B   10 (A) A   10 (A) B      0.0090
     6 (A) A   8 (A) A   10 (A) A   18 (A) A      0.0086
     7 (A) A   8 (A) A   12 (A) A   16 (A) A     -0.0084
     3 (A) A   4 (A) B   10 (A) A    9 (A) B      0.0080
     5 (A) A   8 (A) A   10 (A) A   21 (A) A      0.0079
     4 (A) A   8 (A) B   19 (A) A   10 (A) B      0.0076
     8 (A) A   8 (A) B    9 (A) A   23 (A) B     -0.0075
     8 (A) A   8 (A) B   10 (A) A   28 (A) B      0.0074
     5 (A) A   8 (A) B   10 (A) A   11 (A) B      0.0072
     7 (A) A   8 (A) B   16 (A) A   12 (A) B      0.0072
     3 (A) A   8 (A) A   10 (A) A   24 (A) A      0.0072
     3 (A) A   8 (A) B   10 (A) A   10 (A) B     -0.0071
     8 (A) A   8 (A) B    9 (A) A   19 (A) B      0.0070
     3 (A) A   8 (A) B   10 (A) A   18 (A) B      0.0067
     6 (A) A   8 (A) B   18 (A) A   10 (A) B     -0.0065
     3 (A) A   6 (A) B   10 (A) A   28 (A) B      0.0062
     7 (A) A   8 (A) B   12 (A) A   11 (A) B      0.0060
     6 (A) A             28 (A) A                -0.0059
     5 (A) A   8 (A) A   10 (A) A   16 (A) A     -0.0057
     3 (A) A   5 (A) B   10 (A) A   25 (A) B      0.0056
     6 (A) A   8 (A) A   11 (A) A   16 (A) A     -0.0055
     4 (A) A   8 (A) A   10 (A) A   23 (A) A      0.0055
    -----------------------------------------------------

  Density matrix analysis:
  ------------------------
  NOs
    Occupation of frontier NOs:
       0.9812   0.9846
    Number of electrons: 16.000000
    Number of unpaired electrons: n_u =  2.28911, n_u,nl =  2.02513
    NO participation ratio (PR_NO):  2.702420
  
  
  Mulliken Population Analysis
  Atom      Charge (e)              h+              e-           Del q
  --------------------------------------------------------------------
   1 H       -0.153532        0.054453       -0.263517       -0.209064
   2 C        0.307064        0.538043       -0.119913        0.418131
   3 H       -0.153533        0.054455       -0.263529       -0.209074
   4 C        0.307056        0.538038       -0.119907        0.418130
   5 H       -0.153512        0.054456       -0.263508       -0.209052
   6 H       -0.153542        0.054453       -0.263524       -0.209071
  --------------------------------------------------------------------
  Sum:        0.000000        1.293897       -1.293897       -0.000000
  
  Multipole moment analysis of the density matrix
    Molecular charge:                      0.000000
    Number of electrons:                   16.000000
      Center of electronic charge [Ang]: [ -1.561340,  -0.065289,   0.002128]
    Total nuclear charge:                  16.000000
      Center of nuclear charge [Ang]:    [ -1.561339,  -0.065286,   0.002127]
    Dipole moment [D]:                     0.000184
      Cartesian components [D]:          [  0.000072,   0.000165,  -0.000041]
    RMS size of the density [Ang]:         1.282375
      Cartesian components [Ang]:        [  0.858570,   0.844872,   0.439928]
  
  Exciton analysis of the difference density matrix
    <r_h> [Ang]:                  [ -1.561337,  -0.065289,   0.002122]
    <r_e> [Ang]:                  [ -1.561350,  -0.065314,   0.002135]
    |<r_e - r_h>| [Ang]:            0.000032
    Hole size [Ang]:                1.412760
      Cartesian components [Ang]: [  0.836574,   0.822731,   0.786860]
    Electron size [Ang]:            2.078573
      Cartesian components [Ang]: [  1.376594,   1.380096,   0.721657]

  Transition density matrix analysis:
  -----------------------------------
  
  CT numbers (Mulliken)
    omega =     0.9249
    <Phe> =    -0.0109
  
  Exciton analysis of the transition density matrix
    Trans. dipole moment [D]:             0.409366
      Cartesian components [D]:         [ -0.019423,  -0.024827,   0.408151]
    <r_h> [Ang]:                        [ -1.561334,  -0.065288,   0.002118]
    <r_e> [Ang]:                        [ -1.561354,  -0.065324,   0.002139]
    |<r_e - r_h>| [Ang]:                  0.000047
    Hole size [Ang]:                      1.212061
      Cartesian components [Ang]:       [  0.635783,   0.623269,   0.822440]
    Electron size [Ang]:                  2.301322
      Cartesian components [Ang]:       [  1.523241,   1.529419,   0.797934]
    RMS electron-hole separation [Ang]:   2.590899
      Cartesian components [Ang]:       [  1.642960,   1.644393,   1.144295]
    Covariance(r_h, r_e) [Ang^2]:         0.026208
    Correlation coefficient:              0.009396
    Center-of-mass size [Ang]:            1.305526
      Cartesian components [Ang]:       [  0.829103,   0.829328,   0.573760]

  Decomposition into state-averaged NTOs
    H- 0 -> L+ 1: -0.6794 ( 92.3%)
                   omega =  92.5%
  ----------------------------------------------------------------------------


  Excited state 4 (singlet, A)                                     [converged]
  ----------------------------------------------------------------------------
  Term symbol:  5 (1) A                                     R^2 =  1.51849e-11

  Total energy:                                            -77.9626824390 a.u.
  Excitation energy:                                               9.725358 eV

  Osc. strength:                                                      0.000000
  Trans. dip. moment [a.u.]:           [   0.000170,   -0.000158,   -0.000007]
  <i|r^2|0> [a.u.]:                    [  -0.012395,   -0.017756,    0.031114]
  Two-photon absorption cross-section (SoS) [a.u.]:                 131.804409
  Two-photon absorption matrix (SoS) [a.u.]:
                                       |   -0.267701   -0.308428    2.764338 |
                                       |   -0.308428   -0.352697    2.906610 |
                                       |    2.764338    2.906610    0.620398 |
  Two-photon absorption cross-section [a.u.]:                        77.842731
  Two-photon absorption matrix [a.u.]:
                                       |   -0.206382   -0.237059    2.124263 |
                                       |   -0.237059   -0.270396    2.233862 |
                                       |    2.124263    2.233862    0.476779 |

  Dip. moment [a.u.]:                  [  -0.000059,   -0.000046,   -0.000028]
  Total dipole [Debye]:                                               0.000203
  <r^2> [a.u.]:                        [ 181.495368,   41.012700,   10.789994]
  Total <r^2> [a.u.]:                                               233.298063

  V1^2 = 0.9633, V2^2 = 0.0367

  Important amplitudes:
      occ i     occ j     vir a      vir b          v   
    -----------------------------------------------------
     8 (A) A             11 (A) A                -0.6684
     7 (A) A              9 (A) A                 0.1547
     8 (A) A             21 (A) A                 0.0778
     8 (A) A             16 (A) A                -0.0678
     8 (A) A   8 (A) B    9 (A) A   13 (A) B     -0.0166
     5 (A) A   8 (A) B   11 (A) A   11 (A) B      0.0157
     7 (A) A             20 (A) A                 0.0141
     8 (A) A   8 (A) B   11 (A) A   17 (A) B     -0.0137
     7 (A) A   8 (A) B   13 (A) A   11 (A) B     -0.0127
     4 (A) A   8 (A) B   12 (A) A   11 (A) B      0.0111
     8 (A) A   8 (A) B    9 (A) A   22 (A) B      0.0110
     5 (A) A   8 (A) A   11 (A) A   21 (A) A      0.0109
     7 (A) A   8 (A) A   11 (A) A   22 (A) A     -0.0095
     6 (A) A   8 (A) B   10 (A) A   11 (A) B      0.0091
     6 (A) A   8 (A) B   15 (A) A   11 (A) B     -0.0089
     7 (A) A   8 (A) B   22 (A) A   11 (A) B      0.0088
     3 (A) A   4 (A) B   11 (A) A    9 (A) B      0.0083
     3 (A) A   8 (A) B   11 (A) A   18 (A) B      0.0080
     7 (A) A   8 (A) A   13 (A) A   16 (A) A      0.0079
     6 (A) A   8 (A) A   11 (A) A   15 (A) A      0.0079
     7 (A) A   8 (A) A   11 (A) A   13 (A) A      0.0075
     4 (A) A   8 (A) B   19 (A) A   11 (A) B      0.0070
     5 (A) A   8 (A) B   21 (A) A   11 (A) B     -0.0069
     5 (A) A   8 (A) B    9 (A) A    9 (A) B      0.0069
     4 (A) A   8 (A) A   11 (A) A   12 (A) A     -0.0062
     3 (A) A   6 (A) B   11 (A) A   28 (A) B      0.0060
     6 (A) A   8 (A) A   11 (A) A   18 (A) A      0.0059
     6 (A) A   8 (A) B   18 (A) A   11 (A) B     -0.0058
     7 (A) A   8 (A) B   16 (A) A   13 (A) B     -0.0057
     3 (A) A   8 (A) B   11 (A) A   30 (A) B      0.0057
     5 (A) A   8 (A) B   10 (A) A   10 (A) B      0.0055
     7 (A) A   8 (A) B   12 (A) A   10 (A) B      0.0055
     8 (A) A   8 (A) B   20 (A) A   22 (A) B      0.0055
     6 (A) A   8 (A) B   11 (A) A   10 (A) B      0.0055
     3 (A) A   5 (A) B   11 (A) A   25 (A) B      0.0054
     3 (A) A   8 (A) A   11 (A) A   18 (A) A      0.0054
     3 (A) A   8 (A) A   11 (A) A   24 (A) A      0.0053
     5 (A) A   8 (A) A   11 (A) A   16 (A) A     -0.0050
     6 (A) A   8 (A) A   10 (A) A   16 (A) A     -0.0047
     8 (A) A   8 (A) B   11 (A) A   28 (A) B      0.0043
    -----------------------------------------------------

  Density matrix analysis:
  ------------------------
  NOs
    Occupation of frontier NOs:
       0.9379   1.0302
    Number of electrons: 16.000000
    Number of unpaired electrons: n_u =  2.32274, n_u,nl =  2.05166
    NO participation ratio (PR_NO):  2.937997
  
  
  Mulliken Population Analysis
  Atom      Charge (e)              h+              e-           Del q
  --------------------------------------------------------------------
   1 H       -0.123738        0.046049       -0.225319       -0.179270
   2 C        0.247746        0.494803       -0.135990        0.358813
   3 H       -0.124006        0.046038       -0.225585       -0.179547
   4 C        0.247733        0.494803       -0.135995        0.358808
   5 H       -0.124020        0.046039       -0.225598       -0.179560
   6 H       -0.123715        0.046050       -0.225294       -0.179244
  --------------------------------------------------------------------
  Sum:        0.000000        1.173781       -1.173781       -0.000000
  
  Multipole moment analysis of the density matrix
    Molecular charge:                      -0.000000
    Number of electrons:                   16.000000
      Center of electronic charge [Ang]: [ -1.561337,  -0.065285,   0.002128]
    Total nuclear charge:                  16.000000
      Center of nuclear charge [Ang]:    [ -1.561339,  -0.065286,   0.002127]
    Dipole moment [D]:                     0.000203
      Cartesian components [D]:          [ -0.000150,  -0.000116,  -0.000070]
    RMS size of the density [Ang]:         1.281052
      Cartesian components [Ang]:        [  0.859488,   0.844709,   0.434557]
  
  Exciton analysis of the difference density matrix
    <r_h> [Ang]:                  [ -1.561336,  -0.065285,   0.002122]
    <r_e> [Ang]:                  [ -1.561312,  -0.065263,   0.002141]
    |<r_e - r_h>| [Ang]:            0.000038
    Hole size [Ang]:                1.394641
      Cartesian components [Ang]: [  0.819477,   0.806263,   0.789571]
    Electron size [Ang]:            2.112161
      Cartesian components [Ang]: [  1.417925,   1.414120,   0.671546]

  Transition density matrix analysis:
  -----------------------------------
  
  CT numbers (Mulliken)
    omega =     0.9292
    <Phe> =    -0.0148
  
  Exciton analysis of the transition density matrix
    Trans. dipole moment [D]:             0.000295
      Cartesian components [D]:         [  0.000216,  -0.000201,  -0.000009]
    <r_h> [Ang]:                        [ -1.561338,  -0.065286,   0.002119]
    <r_e> [Ang]:                        [ -1.561308,  -0.065258,   0.002144]
    |<r_e - r_h>| [Ang]:                  0.000048
    Hole size [Ang]:                      1.228916
      Cartesian components [Ang]:       [  0.662039,   0.649621,   0.806183]
    Electron size [Ang]:                  2.244932
      Cartesian components [Ang]:       [  1.506906,   1.504149,   0.711681]
    RMS electron-hole separation [Ang]:   2.548110
      Cartesian components [Ang]:       [  1.637040,   1.630211,   1.074884]
    Covariance(r_h, r_e) [Ang^2]:         0.028544
    Correlation coefficient:              0.010346
    Center-of-mass size [Ang]:            1.285208
      Cartesian components [Ang]:       [  0.827379,   0.823309,   0.537927]

  Decomposition into state-averaged NTOs
    H- 0 -> L+ 2:  0.6638 ( 88.1%)
    H- 1 -> L+ 0:  0.1526 (  4.7%)
                   omega =  92.9%
  ----------------------------------------------------------------------------


  Excited state 5 (singlet, A)                                     [converged]
  ----------------------------------------------------------------------------
  Term symbol:  6 (1) A                                     R^2 =  7.78768e-11

  Total energy:                                            -77.9468185819 a.u.
  Excitation energy:                                              10.157035 eV

  Osc. strength:                                                      0.000000
  Trans. dip. moment [a.u.]:           [  -0.000036,   -0.000021,   -0.000000]
  <i|r^2|0> [a.u.]:                    [   0.079851,   -0.095555,    0.015553]
  Two-photon absorption cross-section (SoS) [a.u.]:                 226.349320
  Two-photon absorption matrix (SoS) [a.u.]:
                                       |    0.370259    0.056342   -3.848371 |
                                       |    0.056342   -0.440388    3.648624 |
                                       |   -3.848371    3.648624    0.071488 |
  Two-photon absorption cross-section [a.u.]:                       118.270058
  Two-photon absorption matrix [a.u.]:
                                       |    0.268252    0.041149   -2.781769 |
                                       |    0.041149   -0.317681    2.637434 |
                                       |   -2.781769    2.637434    0.051553 |

  Dip. moment [a.u.]:                  [   0.000044,   -0.000063,   -0.000002]
  Total dipole [Debye]:                                               0.000196
  <r^2> [a.u.]:                        [ 180.546910,   39.927045,   11.557981]
  Total <r^2> [a.u.]:                                               232.031935

  V1^2 = 0.9552, V2^2 = 0.0448

  Important amplitudes:
      occ i     occ j     vir a      vir b          v   
    -----------------------------------------------------
     8 (A) A             12 (A) A                -0.5784
     6 (A) A              9 (A) A                -0.3686
     8 (A) A             19 (A) A                -0.0531
     6 (A) A             20 (A) A                -0.0502
     8 (A) A             23 (A) A                 0.0296
     8 (A) A   8 (A) B    9 (A) A   10 (A) B      0.0208
     8 (A) A             26 (A) A                 0.0188
     4 (A) A   8 (A) B    9 (A) A    9 (A) B     -0.0155
     5 (A) A   8 (A) B   11 (A) A   12 (A) B      0.0152
     3 (A) A              9 (A) A                -0.0146
     8 (A) A   8 (A) B   12 (A) A   17 (A) B     -0.0135
     7 (A) A   8 (A) B   13 (A) A   12 (A) B     -0.0132
     4 (A) A   8 (A) B   12 (A) A   12 (A) B      0.0126
     5 (A) A   8 (A) A   11 (A) A   12 (A) A      0.0111
     6 (A) A   8 (A) B   15 (A) A   12 (A) B     -0.0104
     7 (A) A   8 (A) B   22 (A) A   12 (A) B      0.0095
     6 (A) A   8 (A) A   12 (A) A   15 (A) A      0.0093
     6 (A) A   8 (A) B   10 (A) A   12 (A) B      0.0088
     7 (A) A   8 (A) A   12 (A) A   22 (A) A     -0.0087
[...]
    16   -1.415100423627e-03
    17   -1.721006145546e-03
    18    1.338923891130e-04
    19   -2.864948835896e-03
    20    1.181263351504e-02
    21    9.259731879499e-01
    22   -5.527765724160e-04
    23    1.366045070825e-02
    24    8.003274000920e-04
    25    7.035782942845e-02
    26   -5.223679783509e-02
    27   -1.380207520821e+00
    28    1.002411010491e-01
    29   -9.519797028854e-02
    30   -9.682973077847e-04
    31    3.853456129228e-01
    32   -3.659530862864e-01
    33   -3.721541796029e-03
    34    1.492731914697e-02
    35   -1.412795142754e-03
    36   -1.719805219470e-03
    37    1.340635563038e-04
    38   -2.864205754166e-03
    39    1.180791537995e-02
    40    9.259657661059e-01
    41    5.525025389207e-04
    42   -1.366021214967e-02
    43   -7.998718745050e-04
    44    1.181311560454e-02
    45    9.259813302183e-01
    46    1.367753932316e-02
    47    1.469790621866e-04
    48    6.637880729412e-04
Sym=X
Ene= 0.230574
Spin=Alpha
Occup=0
     1   -3.054544198049e-02
     2   -1.163106862783e+00
     3    1.279751931571e-02
     4    3.500077311456e-03
     5    8.263644136047e-04
     6    6.481062471242e-05
     7   -6.838437898011e-05
     8   -1.017957020867e-03
     9    1.548291118013e-01
    10    1.629389158863e-01
    11    1.729340163985e-02
    12    5.283994979211e-01
    13    5.561958453910e-01
    14    5.903335005766e-02
    15    1.380880777645e-05
    16   -8.970142288385e-05
    17    9.363388826188e-05
    18   -1.695815890984e-03
    19   -9.423477761876e-05
    20    3.058255286486e-02
    21    1.164602199611e+00
    22    2.856083848648e-03
    23    1.297213326533e-02
    24    9.220954288628e-04
    25   -6.624262979127e-05
    26    6.952143213361e-05
    27    1.053695047878e-03
    28    1.548264704176e-01
    29    1.629443311464e-01
    30    1.726513389200e-02
    31    5.283599852564e-01
    32    5.561874096275e-01
    33    5.891903779654e-02
    34   -1.384491442003e-05
    35    9.134888085966e-05
    36   -9.447707177193e-05
    37    1.694496176105e-03
    38    9.413458215901e-05
    39   -3.058284180853e-02
    40   -1.164586194626e+00
    41    2.855921605934e-03
    42    1.297236326425e-02
    43    9.205754385165e-04
    44    3.054535222118e-02
    45    1.163045179160e+00
    46    1.279718711828e-02
    47    3.499841612028e-03
    48    8.247153217633e-04
Sym=X
Ene= 0.236099
Spin=Alpha
Occup=0
     1    1.978297403627e-02
     2    1.070742791772e+00
     3   -1.575786102425e-02
     4   -9.170524901355e-03
     5   -1.310585752245e-03
     6    8.718286140410e-02
     7   -8.268373879126e-02
     8   -1.537919446007e+00
     9   -5.926420979363e-02
    10    5.605499098038e-02
    11    5.443480870186e-04
    12   -2.439299678523e-01
    13    2.308398573526e-01
    14    2.235509145281e-03
    15    2.110289267897e-02
    16   -2.490517991735e-03
    17   -2.858315329136e-03
    18    6.133463062182e-04
    19   -1.240383375949e-02
    20    1.974941401057e-02
    21    1.068949164948e+00
    22    8.355666003652e-03
    23    1.617512200538e-02
    24    1.379103588224e-03
    25   -8.718189631118e-02
    26    8.268052265900e-02
    27    1.537920605826e+00
    28   -5.926543747598e-02
    29    5.605751518827e-02
    30    5.589818088508e-04
    31   -2.439301226755e-01
    32    2.308640005999e-01
    33    2.295336004913e-03
    34   -2.110314477071e-02
    35    2.488218770862e-03
    36    2.858652762239e-03
    37   -6.143463236384e-04
    38    1.240348098839e-02
    39   -1.974868085240e-02
    40   -1.068971083483e+00
    41    8.356160976021e-03
    42    1.617557554213e-02
    43    1.379635979791e-03
    44   -1.978154504472e-02
    45   -1.070719692098e+00
    46   -1.575728131192e-02
    47   -9.171524723137e-03
    48   -1.309231296002e-03
Sym=X
Ene= 0.302988
Spin=Alpha
Occup=0
     1   -2.130253104112e-02
     2    1.653101833752e+00
     3   -2.354767188293e-02
     4    3.961441668458e-04
     5   -1.108281898714e-03
     6    1.271647979899e-07
     7   -2.986148254633e-06
     8   -2.330013757219e-06
     9   -1.358349485920e-01
    10   -1.428886682042e-01
    11   -1.516307918305e-02
    12   -1.124399594603e+00
    13   -1.182689825995e+00
    14   -1.254724060315e-01
    15    3.243400058182e-05
    16   -1.746684646872e-03
    17    1.979039427430e-03
    18   -3.415433910961e-02
    19   -1.745790071156e-03
    20    2.130011639528e-02
    21   -1.653085279799e+00
    22    1.597020479919e-03
    23   -2.348505386197e-02
    24   -1.341814114504e-03
    25    1.777680949445e-06
    26   -2.331937152006e-06
    27   -6.823719173186e-05
    28    1.358400546985e-01
    29    1.428932874609e-01
    30    1.514881816606e-02
    31    1.124373611182e+00
    32    1.182709189461e+00
    33    1.254237835740e-01
    34    3.397415465867e-05
    35   -1.743838850259e-03
    36    1.980373273780e-03
    37   -3.415298813403e-02
    38   -1.746685890863e-03
    39    2.129636365069e-02
    40   -1.653083962433e+00
    41   -1.598040614846e-03
    42    2.348450253796e-02
    43    1.341344818284e-03
    44   -2.129789702691e-02
    45    1.653134322369e+00
    46    2.354834007198e-02
    47   -3.965017849083e-04
    48    1.106549262484e-03
Sym=X
Ene= 0.462969
Spin=Alpha
Occup=0
     1   -1.149610600418e-01
     2   -6.959021037075e-01
     3   -1.502785552697e-02
     4   -1.033087169118e-02
     5   -1.346887824341e-03
     6    6.256863905970e-02
     7    1.707977129847e-02
     8   -3.664649322671e+00
     9    1.038493026823e-01
    10   -9.862138311120e-02
    11   -9.883334194488e-04
    12    2.438046177841e+00
    13   -2.315484729912e+00
    14   -2.262955774333e-02
    15    5.329266813806e-02
    16   -3.274753687676e-03
    17   -4.557753145723e-03
    18   -1.093638598283e-03
    19    2.042462468965e-02
    20   -1.149351920966e-01
    21   -6.959087916965e-01
    22    9.560484111804e-03
    23    1.552486142036e-02
    24    1.397591587805e-03
    25   -6.256963918132e-02
    26   -1.707261748468e-02
    27    3.664651233967e+00
    28    1.038628618271e-01
    29   -9.862995379911e-02
    30   -9.961940019442e-04
    31    2.438027681783e+00
    32   -2.315450685749e+00
    33   -2.266353853700e-02
    34   -5.328779789714e-02
    35    3.270207521827e-03
    36    4.551578919944e-03
    37    1.092897698237e-03
    38   -2.043066531162e-02
    39    1.148992345658e-01
    40    6.959439440161e-01
    41    9.559626547662e-03
    42    1.552411102397e-02
    43    1.395539297419e-03
    44    1.149313898735e-01
    45    6.959273284453e-01
    46   -1.502662495907e-02
    47   -1.032861654094e-02
    48   -1.345411342589e-03
Sym=X
Ene= 0.579628
Spin=Alpha
Occup=0
     1    2.359447947211e-01
     2    4.720452618216e-02
     3   -2.247384757431e-02
     4    2.709417362563e-02
     5    5.576304458977e-04
     6   -6.478923557228e-03
     7   -1.708851588301e-01
     8   -4.125125997150e-01
     9    3.060394353792e-01
    10   -2.906336813572e-01
    11   -2.842530420443e-03
    12   -7.484332730580e-01
    13    7.106984190736e-01
    14    6.997055432333e-03
    15   -1.758553041076e-03
    16    3.607838467151e-03
    17    3.243471728816e-03
    18   -3.031478127324e-03
    19    5.941933415909e-02
    20    2.359363212038e-01
    21    4.720167743394e-02
    22   -2.821901325424e-02
    23    2.105213473529e-02
    24   -8.345445113595e-05
    25   -6.486649760239e-03
    26   -1.708891674923e-01
    27   -4.121559962059e-01
    28   -3.060306972296e-01
    29    2.906162037110e-01
    30    2.840563416459e-03
    31    7.487004669022e-01
    32   -7.109179677249e-01
    33   -7.005048030060e-03
    34   -1.758097684269e-03
    35    3.607894392450e-03
    36    3.242895486341e-03
    37   -3.024917269237e-03
    38    5.941957347477e-02
    39    2.358953883653e-01
    40    4.733177143422e-02
    41    2.822530130211e-02
    42   -2.105717805468e-02
    43    8.251606879557e-05
    44    2.359655753168e-01
    45    4.729056880084e-02
    46    2.247293319309e-02
    47   -2.709479834602e-02
    48   -5.583253044404e-04
Sym=X
Ene= 0.608546
Spin=Alpha
Occup=0
     1   -5.199874317063e-01
     2    2.522066870606e-01
     3   -5.953817372070e-02
     4    3.704414663977e-02
     5   -6.206214633677e-04
     6    3.457571328805e-06
     7   -1.639359721898e-05
     8    2.039608599188e-04
     9   -3.456539600354e-02
    10   -3.635880883084e-02
    11   -3.852362070265e-03
    12    2.562187935675e-01
    13    2.696357220807e-01
    14    2.862408612170e-02
    15    1.210520525610e-04
    16   -7.614607311372e-03
    17    8.631568520599e-03
    18   -1.489434589238e-01
    19   -7.617648034634e-03
    20    5.200697613958e-01
    21   -2.522840188968e-01
    22    4.005070729402e-02
    23   -5.754813089680e-02
    24   -1.552179414959e-03
    25   -4.140457586018e-06
    26    1.753367193940e-05
    27   -1.559932898469e-04
    28   -3.455377068046e-02
    29   -3.637381359649e-02
    30   -3.861008516064e-03
    31    2.561879292148e-01
    32    2.697047034034e-01
    33    2.856694354083e-02
    34   -1.195539538887e-04
    35    7.607548779044e-03
    36   -8.637072220080e-03
    37    1.489514907327e-01
    38    7.616067096388e-03
    39   -5.201167634777e-01
    40    2.523139364655e-01
    41    4.004539105411e-02
    42   -5.754819079056e-02
    43   -1.556146893343e-03
    44    5.199823034244e-01
    45   -2.522429348808e-01
    46   -5.953989822660e-02
    47    3.704480297488e-02
    48   -6.205046120946e-04
Sym=X
Ene= 0.688248
Spin=Alpha
Occup=0
     1    4.584616769436e-05
     2    3.085406730160e-05
     3    8.829581832822e-04
     4    1.116479924935e-03
     5   -1.835854846120e-02
     6    2.487209577384e-06
     7   -2.188520745689e-06
     8    5.693711728561e-05
     9    3.220327222896e-02
    10    4.050922641121e-02
    11   -6.703064905668e-01
    12   -2.953964859995e-02
    13   -3.691533369099e-02
    14    6.124782870138e-01
    15   -1.333530097488e-03
    16    8.260727621548e-02
    17   -7.837097799526e-02
    18   -8.698973222404e-03
    19   -1.206978073893e-03
    20    4.025730161738e-05
    21    5.698314889066e-05
    22    8.782293207953e-04
    23    1.109902802715e-03
    24   -1.835319978402e-02
    25   -4.601900690773e-07
    26    3.284191619818e-05
    27   -8.023939956076e-05
    28    3.218610869169e-02
    29    4.047416175795e-02
    30   -6.703083435923e-01
    31   -2.951157277640e-02
    32   -3.687538526540e-02
    33    6.124797640827e-01
    34    1.321724892085e-03
    35   -8.260603862922e-02
    36    7.837236474121e-02
    37    8.707960413857e-03
    38    1.211879622847e-03
    39   -1.794755520743e-05
    40   -5.001200763502e-05
    41    8.762592721208e-04
    42    1.115064626797e-03
    43   -1.835305452189e-02
    44   -1.234890007427e-05
    45   -7.615806122792e-05
    46    8.725477612414e-04
    47    1.109676756198e-03
    48   -1.835947634843e-02
Sym=X
Ene= 0.703805
Spin=Alpha
Occup=0
     1   -4.896470268981e-01
     2    1.670295248546e-01
     3   -7.771484171177e-02
     4   -4.426923599430e-02
     5   -6.413927641945e-03
     6   -4.574055889840e-02
     7   -2.982848190514e-01
     8    4.583128383911e-01
     9    1.948933438918e-01
    10   -1.851348798573e-01
    11   -1.843256690012e-03
    12   -5.641028581666e-02
    13    5.374527116087e-02
    14    4.877854204213e-04
    15    1.905561936826e-01
    16   -2.043573159581e-02
    17   -2.400294200962e-02
    18    3.762158797025e-03
    19   -7.679984931440e-02
    20   -4.896917866930e-01
    21    1.672314241768e-01
    22    4.026296300049e-02
    23    7.984813966049e-02
    24    6.753965115036e-03
    25   -4.573427881389e-02
    26   -2.982881859927e-01
    27    4.580172188064e-01
    28   -1.948941789148e-01
    29    1.851357593003e-01
    30    1.800448782625e-03
    31    5.620626374099e-02
    32   -5.356865033448e-02
    33   -4.394678606522e-04
    34    1.905574784509e-01
    35   -2.042631509182e-02
    36   -2.399092529970e-02
    37    3.758475378104e-03
    38   -7.678989031671e-02
    39   -4.896628624084e-01
    40    1.671526508616e-01
    41   -4.026185650906e-02
    42   -7.984490043810e-02
    43   -6.751374904924e-03
    44   -4.896444208590e-01
    45    1.669614030096e-01
    46    7.771454417276e-02
    47    4.426817831694e-02
    48    6.408567325868e-03
Sym=X
Ene= 0.774937
Spin=Alpha
Occup=0
     1    5.396945433383e-01
     2   -4.884021722545e-01
     3    1.075623326042e-01
     4    2.669635021143e-02
     5    6.782703664896e-03
     6    8.867783340088e-02
     7   -2.285204185576e-01
     8   -5.725732499744e-01
     9    1.004375976004e-01
    10   -9.533535194078e-02
    11   -8.990353315257e-04
    12    3.060325690703e-01
    13   -2.908334100221e-01
    14   -2.897963311409e-03
    15   -2.024941949778e-01
    16    1.746749483394e-02
    17    2.176043052991e-02
    18   -2.543805689302e-04
    19    8.677509708018e-03
    20    5.396080201127e-01
    21   -4.885383875387e-01
    22   -2.120206544946e-02
    23   -1.087246782758e-01
    24   -7.587931411653e-03
    25   -8.867952919170e-02
    26    2.285164193726e-01
    27    5.726382483565e-01
    28    1.004503129507e-01
    29   -9.533090885723e-02
    30   -9.309260491243e-04
    31    3.059750304407e-01
    32   -2.908140289385e-01
    33   -2.825686585997e-03
    34    2.025031758451e-01
    35   -1.744420563861e-02
    36   -2.174865018644e-02
    37    2.586448191748e-04
    38   -8.677129115725e-03
    39   -5.396415651595e-01
    40    4.885415661718e-01
    41   -2.120371435967e-02
    42   -1.087280562534e-01
    43   -7.582951804976e-03
    44   -5.397206885111e-01
    45    4.883759853896e-01
    46    1.075595806547e-01
    47    2.670130571727e-02
    48    6.776836122156e-03
Sym=X
Ene= 0.807504
Spin=Alpha
Occup=0
     1    1.080763763608e-05
     2    3.039416762539e-05
     3    1.486435020056e-03
     4    1.875361619021e-03
     5   -3.107251723174e-02
     6    3.482056930637e-06
     7   -3.277670322186e-05
     8    1.676464343820e-05
     9    3.675792363816e-02
    10    4.618433928328e-02
    11   -7.644171031321e-01
    12   -5.408662529684e-02
    13   -6.797163234211e-02
    14    1.124832814301e+00
    15    1.052747888591e-03
    16   -6.584173259974e-02
    17    6.246724371679e-02
    18    6.927257458543e-03
    19    9.652141375161e-04
    20    1.254829490596e-05
    21   -4.416025704242e-05
    22    1.488359992435e-03
    23    1.874611412331e-03
    24   -3.106236738877e-02
    25   -4.492630618685e-07
    26   -2.447298811298e-05
    27    1.207276595132e-05
    28   -3.669252943629e-02
    29   -4.614975968813e-02
    30    7.644239365268e-01
    31    5.400892661233e-02
    32    6.788393226353e-02
    33   -1.124842180899e+00
    34    1.066225535435e-03
    35   -6.584136759858e-02
    36    6.246482915119e-02
    37    6.946517560447e-03
    38    9.706131203929e-04
    39   -9.514026441567e-06
    40    6.001699453988e-05
    41   -1.490474574700e-03
    42   -1.891001893330e-03
    43    3.105905807942e-02
    44   -7.759269956535e-06
    45   -1.451366487852e-05
    46   -1.485091009960e-03
    47   -1.882779101687e-03
    48    3.107139048744e-02
Sym=X
Ene= 0.857631
Spin=Alpha
Occup=0
     1    1.361921418527e-02
     2   -1.071941590527e+00
     3    1.457339520482e-01
     4    5.622285356662e-02
     5    1.039277348488e-02
     6    6.576278015979e-06
     7    5.297848722121e-06
     8    2.157783321239e-05
     9   -4.123605630690e-01
    10   -4.337719781434e-01
    11   -4.604984366980e-02
    12    9.363016281644e-01
    13    9.848414560724e-01
    14    1.045516028361e-01
    15   -2.284643108926e-04
    16    1.170408504636e-02
    17   -1.326294733160e-02
    18    2.289259362703e-01
    19    1.170050385433e-02
    20   -1.356125900349e-02
    21    1.071841059724e+00
    22    4.874032066344e-02
    23    1.483171266031e-01
    24    1.130915407914e-02
    25   -6.193890658181e-06
    26   -1.074301500053e-06
    27   -2.084263537812e-05
    28   -4.123688893078e-01
    29   -4.337881014389e-01
    30   -4.596896062279e-02
    31    9.363142077714e-01
    32    9.848852115580e-01
    33    1.043762016293e-01
    34    2.271498642084e-04
    35   -1.170382343211e-02
    36    1.326461292343e-02
    37   -2.289326698805e-01
    38   -1.170474476114e-02
    39    1.355435756762e-02
    40   -1.071843274657e+00
    41    4.873179048540e-02
    42    1.483205198606e-01
    43    1.130554521369e-02
    44   -1.361071424828e-02
    45    1.071941097971e+00
    46    1.457377514038e-01
    47    5.621832625611e-02
    48    1.038488717325e-02
Sym=X
Ene= 0.927000
Spin=Alpha
Occup=0
     1   -1.450298529296e-01
     2    1.224342495647e+00
     3   -1.825975510893e-01
     4    5.802086043187e-03
     5   -8.429162520534e-03
     6   -2.917188679621e-06
     7   -1.067515476899e-04
     8    1.652899367102e-04
     9    4.742633410891e-01
    10    4.988794679150e-01
    11    5.292673407471e-02
    12   -1.373947607867e+00
    13   -1.445322830451e+00
    14   -1.533323147833e-01
    15    1.311060971241e-04
    16   -6.431364494475e-03
    17    7.268272633846e-03
    18   -1.255102490838e-01
    19   -6.419954281049e-03
    20    1.450101090273e-01
    21   -1.224469784718e+00
    22    1.511698637362e-02
    23   -1.819782560459e-01
    24   -1.026528447774e-02
    25   -3.272955309275e-06
    26   -9.751179123741e-05
    27    1.717756804147e-04
    28   -4.742672214803e-01
    29   -4.988696954379e-01
    30   -5.290263271617e-02
    31    1.373956200528e+00
    32    1.445274679117e+00
    33    1.532630131749e-01
    34    1.356453206908e-04
    35   -6.412972277264e-03
    36    7.263723786737e-03
    37   -1.255086259005e-01
    38   -6.432621920724e-03
    39    1.450044047648e-01
    40   -1.224426715185e+00
    41   -1.512687325733e-02
    42    1.819707963405e-01
    43    1.026052509816e-02
    44   -1.450403099811e-01
    45    1.224362222872e+00
    46    1.825997354476e-01
    47   -5.803095281640e-03
    48    8.417021878972e-03
Sym=X
Ene= 0.971004
Spin=Alpha
Occup=0
     1   -5.681442452211e-02
     2    8.920237902803e-01
     3   -8.682303813948e-02
     4   -9.639122018542e-02
     5   -9.986390495537e-03
     6    2.788213724468e-02
     7    2.552156511894e-01
     8    5.049531421267e-01
     9    4.836614531785e-01
    10   -4.593217908463e-01
    11   -4.506497516684e-03
    12   -1.468519080956e+00
    13    1.394589511961e+00
    14    1.366823867162e-02
    15   -5.991354630626e-02
    16   -1.221306903252e-02
    17   -8.958592804576e-03
    18    1.517506439379e-02
    19   -2.961779610217e-01
    20   -5.683568221382e-02
    21    8.919331438005e-01
    22    9.187543850186e-02
    23    9.157379601132e-02
    24    9.952814921564e-03
    25   -2.788127283333e-02
    26   -2.551354230720e-01
    27   -5.050824981311e-01
    28    4.836457129265e-01
    29   -4.593260344998e-01
    30   -4.526971249436e-03
    31   -1.468467818827e+00
    32    1.394639034000e+00
    33    1.372770519966e-02
    34    5.990807511231e-02
    35    1.221269267866e-02
    36    8.961278243150e-03
    37   -1.517845399842e-02
    38    2.961640091160e-01
    39    5.683416938025e-02
    40   -8.919340548538e-01
    41    9.186932496264e-02
    42    9.157403631717e-02
    43    9.954786921426e-03
    44    5.682205151247e-02
    45   -8.919461865418e-01
    46   -8.681316206475e-02
    47   -9.638805506839e-02
    48   -9.979793980387e-03
[5D]

======= END OF MOLDEN-FORMATTED INPUT FILE =======


        *************************************************************
        *                                                           *
        *  Thank you very much for using Q-Chem.  Have a nice day.  *
        *                                                           *
        *************************************************************


