                  Welcome to Q-Chem
     A Quantum Leap Into The Future Of Chemistry


 Q-Chem 5.4 (devel), Q-Chem, Inc., Pleasanton, CA (2021)

 E. Epifanovsky,  A. T. B. Gilbert,  Xintian Feng,  Joonho Lee,  Yuezhi Mao,  
 N. Mardirossian,  P. Pokhilko,  A. White,  M. Wormit,  M. P. Coons,  
 A. L. Dempwolff,  Zhengting Gan,  D. Hait,  P. R. Horn,  L. D. Jacobson,  
 I. Kaliman,  J. Kussmann,  A. W. Lange,  Ka Un Lao,  D. S. Levine,  Jie Liu,  
 S. C. McKenzie,  A. F. Morrison,  K. Nanda,  F. Plasser,  D. R. Rehn,  
 M. L. Vidal,  Zhi-Qiang You,  Ying Zhu,  B. Alam,  B. Albrecht,  
 A. Aldossary,  E. Alguire,  J. H. Andersen,  D. Barton,  K. Begam,  A. Behn,  
 Y. A. Bernard,  E. J. Berquist,  H. Burton,  A. Carreras,  K. Carter-Fenk,  
 R. Chakraborty,  A. D. Chien,  K. D. Closser,  V. Cofer-Shabica,  
 S. Dasgupta,  Jia Deng,  M. de Wergifosse,  M. Diedenhofen,  Hainam Do,  
 S. Ehlert,  Po-Tung Fang,  S. Fatehi,  Qingguo Feng,  T. Friedhoff,  
 J. Gayvert,  Qinghui Ge,  G. Gidofalvi,  M. Goldey,  J. Gomes,  
 C. Gonzalez-Espinoza,  S. Gulania,  A. Gunina,  M. W. D. Hanson-Heine,  
 P. H. P. Harbach,  A. W. Hauser,  M. F. Herbst,  M. Hernandez Vera,  
 M. Hodecker,  Z. C. Holden,  S. Houck,  Xunkun Huang,  Kerwin Hui,  
 B. C. Huynh,  M. Ivanov,  Hyunjun Ji,  Hanjie Jiang,  B. Kaduk,  S. Kaehler,  
 K. Khistyaev,  Jaehoon Kim,  P. Klunzinger,  Z. Koczor-Benda,  
 Joong Hoon Koh,  D. Kosenkov,  L. Koulias,  T. Kowalczyk,  C. M. Krauter,  
 K. Kue,  A. Kunitsa,  T. Kus,  A. Landau,  K. V. Lawler,  D. Lefrancois,  
 S. Lehtola,  Rain Li,  Yi-Pei Li,  Jiashu Liang,  M. Liebenthal,  
 Hung-Hsuan Lin,  You-Sheng Lin,  Fenglai Liu,  Kuan-Yu Liu,  
 M. Loipersberger,  A. Luenser,  A. Manjanath,  P. Manohar,  E. Mansoor,  
 S. F. Manzer,  Shan-Ping Mao,  A. V. Marenich,  T. Markovich,  S. Mason,  
 S. A. Maurer,  P. F. McLaughlin,  M. F. S. J. Menger,  J.-M. Mewes,  
 S. A. Mewes,  P. Morgante,  J. W. Mullinax,  K. J. Oosterbaan,  G. Paran,  
 Alexander C. Paul,  Suranjan K. Paul,  F. Pavosevic,  Zheng Pei,  S. Prager,  
 E. I. Proynov,  E. Ramos,  B. Rana,  A. E. Rask,  A. Rettig,  R. M. Richard,  
 F. Rob,  E. Rossomme,  T. Scheele,  M. Scheurer,  M. Schneider,  
 N. Sergueev,  S. M. Sharada,  W. Skomorowski,  D. W. Small,  C. J. Stein,  
 Yu-Chuan Su,  E. J. Sundstrom,  Zhen Tao,  J. Thirman,  T. Tsuchimochi,  
 N. M. Tubman,  S. P. Veccham,  O. Vydrov,  J. Wenzel,  J. Witte,  A. Yamada,  
 Kun Yao,  S. Yeganeh,  S. R. Yost,  A. Zech,  Igor Ying Zhang,  Xing Zhang,  
 Yu Zhang,  D. Zuev,  A. Aspuru-Guzik,  A. T. Bell,  N. A. Besley,  
 K. B. Bravaya,  B. R. Brooks,  D. Casanova,  Jeng-Da Chai,  S. Coriani,  
 C. J. Cramer,  A. E. DePrince, III,  R. A. DiStasio Jr.,  A. Dreuw,  
 B. D. Dunietz,  T. R. Furlani,  W. A. Goddard III,  S. Grimme,  
 S. Hammes-Schiffer,  T. Head-Gordon,  W. J. Hehre,  Chao-Ping Hsu,  
 T.-C. Jagau,  Yousung Jung,  A. Klamt,  Jing Kong,  D. S. Lambrecht,  
 WanZhen Liang,  N. J. Mayhall,  C. W. McCurdy,  J. B. Neaton,  
 C. Ochsenfeld,  J. A. Parkhill,  R. Peverati,  V. A. Rassolov,  Yihan Shao,  
 L. V. Slipchenko,  T. Stauch,  R. P. Steele,  J. E. Subotnik,  
 A. J. W. Thom,  A. Tkatchenko,  D. G. Truhlar,  T. Van Voorhis,  
 T. A. Wesolowski,  K. B. Whaley,  H. L. Woodcock III,  P. M. Zimmerman,  
 S. Faraji,  P. M. W. Gill,  M. Head-Gordon,  J. M. Herbert,  A. I. Krylov

 Additional authors for Version 5.4.1: 
 S. Kotaru,  Shaozhi Li,  Xiangyuan Li,  F. Matz,  A. Molle,  Haisheng Ren,  
 Yingli Su,  Hung-Yi Tsai,  C. Utku,  Fang Wang

 Contributors to earlier versions of Q-Chem not listed above: 
 R. D. Adamson,  B. Austin,  R. Baer,  J. Baker,  G. J. O. Beran,  
 K. Brandhorst,  S. T. Brown,  E. F. C. Byrd,  A. K. Chakraborty,  
 G. K. L. Chan,  Chun-Min Chang,  Yunqing Chen,  C.-L. Cheng,  
 Siu Hung Chien,  D. M. Chipman,  D. L. Crittenden,  H. Dachsel,  
 R. J. Doerksen,  A. D. Dutoi,  R. G. Edgar,  J. Fosso-Tande,  
 L. Fusti-Molnar,  D. Ghosh,  A. Ghysels,  A. Golubeva-Zadorozhnaya,  
 J. Gonthier,  M. S. Gordon,  S. R. Gwaltney,  G. Hawkins,  J. E. Herr,  
 A. Heyden,  S. Hirata,  E. G. Hohenstein,  G. Kedziora,  F. J. Keil,  
 C. Kelley,  Jihan Kim,  R. A. King,  R. Z. Khaliullin,  P. P. Korambath,  
 W. Kurlancheek,  A. Laurent,  A. M. Lee,  M. S. Lee,  S. V. Levchenko,  
 Ching Yeh Lin,  D. Liotard,  E. Livshits,  R. C. Lochan,  I. Lotan,  
 L. A. Martinez-Martinez,  P. E. Maslen,  N. Nair,  D. P. O'Neill,  
 D. Neuhauser,  E. Neuscamman,  C. M. Oana,  R. Olivares-Amaya,  R. Olson,  
 T. M. Perrine,  B. Peters,  P. A. Pieniazek,  A. Prociuk,  Y. M. Rhee,  
 J. Ritchie,  M. A. Rohrdanz,  E. Rosta,  N. J. Russ,  H. F. Schaefer III,  
 M. W. Schmidt,  N. E. Schultz,  S. Sharma,  N. Shenvi,  C. D. Sherrill,  
 A. C. Simmonett,  A. Sodt,  T. Stein,  D. Stuck,  K. S. Thanthiriwatte,  
 V. Vanovschi,  L. Vogt,  Tao Wang,  A. Warshel,  M. A. Watson,  
 C. F. Williams,  Q. Wu,  X. Xu,  Jun Yang,  W. Zhang,  Yan Zhao

 Please cite Q-Chem as follows:
 Y. Shao et al., Mol. Phys. 113, 184-215 (2015)
 DOI: 10.1080/00268976.2014.952696

 Q-Chem 5.4.1 for Intel X86 EM64T Linux

 Parts of Q-Chem use Armadillo 9.800.1 (Horizon Scraper).
 http://arma.sourceforge.net/

 Q-Chem begins on Thu Nov 17 15:41:06 2022  

 Host: cpu197.baobab
0

     Scratch files written to /scratch/fum/qchem4296//
 Processing $rem in /home/share/wesolowski/qc5.aug2021.FDE/config/preferences:
 Processing $rem in /home/fum/.qchemrc:

 Checking the input file for inconsistencies... 	...done.

--------------------------------------------------------------
User input:
--------------------------------------------------------------
$comment
generated from CCJob.Templates
$end

$rem
sym_ignore = true
method = adc(2)
ee_states = 10
basis = cc-pVDZ
mem_static = 1024
mem_total = 40000
adc_davidson_maxiter = 900
adc_davidson_conv = 6
adc_print = 3
adc_prop_es = true
adc_prop_es2es = true
adc_prop_tpa = true
molden_format = True
state_analysis = true
print_orbitals = 15
gen_scfman = false
fde_export_density = true
fde_details = 3
$end

$molecule
0 1
H -0.0348278765 -0.2442097827 0.0636489606
C -1.0765972949 -0.5242748755 -0.0023551776
H -1.313264467 -1.5767591607 -0.0757276926
C -2.043634118 0.3926884087 0.0061254933
H -1.8137616575 1.4559188338 0.0804456828
H -3.085977293 0.114931858 -0.0593381042                     
$end
--------------------------------------------------------------
 ----------------------------------------------------------------
             Standard Nuclear Orientation (Angstroms)
    I     Atom           X                Y                Z
 ----------------------------------------------------------------
    1      H      -0.0348278765    -0.2442097827     0.0636489606
    2      C      -1.0765972949    -0.5242748755    -0.0023551776
    3      H      -1.3132644670    -1.5767591607    -0.0757276926
    4      C      -2.0436341180     0.3926884087     0.0061254933
    5      H      -1.8137616575     1.4559188338     0.0804456828
    6      H      -3.0859772930     0.1149318580    -0.0593381042
 ----------------------------------------------------------------
 Nuclear Repulsion Energy =          33.38842837 hartrees
 There are        8 alpha and        8 beta electrons
 Requested basis set is cc-pVDZ
 There are 24 shells and 48 basis functions
 Total memory of 40000 MB is distributed as follows: 
   MEM_STATIC is set to 1024 MB
   QALLOC/CCMAN JOB total memory use is  38976 MB
 Warning: actual memory use might exceed 40000 MB

 Total QAlloc Memory Limit  40000 MB
 Mega-Array Size      1001 MB
 MEM_STATIC part      1024 MB

                       Distance Matrix (Angstroms)
             H (  1)   C (  2)   H (  3)   C (  4)   H (  5)
   C (  2)  1.080776
   H (  3)  1.851895  1.081258
   C (  4)  2.108139  1.332687  2.102109
   H (  5)  2.460757  2.114577  3.077665  1.090332
   H (  6)  3.074674  2.109370  2.450428  1.080700  1.853731

 A cutoff of  1.0D-11 yielded    300 shell pairs
 There are      1220 function pairs (      1329 Cartesian)
 Smallest overlap matrix eigenvalue = 4.80E-03

 Scale SEOQF with 1.000000e-01/1.000000e-01/1.000000e+00

 Standard Electronic Orientation quadrupole field applied
 Nucleus-field energy     =     0.0000000022 hartrees
 Guess from superposition of atomic densities
 Warning:  Energy on first SCF cycle will be non-variational
 SAD guess density has 16.000000 electrons
 A restricted Hartree-Fock SCF calculation will be
 performed using Pulay DIIS extrapolation
 SCF converges when DIIS error is below 1.0E-08
 using 10 threads for integral computing
 -------------------------------------------------------
 OpenMP Integral computing Module                
 Release: version 1.0, May 2013, Q-Chem Inc. Pittsburgh 
 -------------------------------------------------------
 ---------------------------------------
  Cycle       Energy         DIIS Error
 ---------------------------------------
    1     -78.4318113546      1.01E-01
    2     -78.0176983626      7.20E-03
    3     -78.0383036061      1.84E-03
    4     -78.0397857186      5.72E-04
    5     -78.0399070184      5.83E-05
    6     -78.0399088975      1.00E-05
    7     -78.0399089614      3.46E-06
    8     -78.0399089662      1.08E-06
    9     -78.0399089668      1.50E-07
   10     -78.0399089668      4.64E-08
   11     -78.0399089668      8.10E-09 Convergence criterion met
 ---------------------------------------
 SCF time:  CPU 1.56 s  wall 3.01 s
 SCF   energy in the final basis set = -78.03990897
 Total energy in the final basis set = -78.03990897
Exporting Density Matrix to file 'Densmat_SCF.txt'.
Export successful
================================================================================
|                                                                              |
|                                 A D C  M A N                                 |
|                                                                              |
 ------------------------------------------------------------------------------ 
|                                                                              |
| Components:                                                                  |
|                                                                              |
| - libvmm - 1.3-trunk                                                         |
|   Authors:                                                                   |
|   Evgeny Epifanovsky, Ilya Kaliman                                           |
|                                                                              |
| - libtensor - 2.5-trunk                                                      |
|   Authors:                                                                   |
|   Evgeny Epifanovsky, Michael Wormit, Dmitry Zuev, Sam Manzer,               |
|   Ilya Kaliman                                                               |
|                                                                              |
| - libwfa - 1.1-trunk                                                         |
|   Authors:                                                                   |
|   Felix Plasser, Stefanie Mewes (Baeppler), Benjamin Thomitzni,              |
|   Michael Wormit, Feng Chen, Anna I. Krylov, Pavel Pokhilko                  |
|                                                                              |
| - libadc - 1.1-trunk                                                         |
|   Authors:                                                                   |
|   Michael Wormit, Adrian L. Dempwolff, Philipp H. P. Harbach,                |
|   Caroline Krauter, Dirk Rehn, Matthias Schneider, Jan Wenzel                |
|                                                                              |
| - adcman - 2.6-trunk                                                         |
|   Authors:                                                                   |
|   Michael Wormit, Adrian L. Dempwolff, Philipp H. P. Harbach,                |
|   Caroline Krauter, Daniel Lefrancois, Jan-Michael Mewes, Dirk Rehn,         |
|   Matthias Schneider, Jan Wenzel, Andreas Dreuw                              |
|                                                                              |
| Authors of earlier versions of ADCMAN:                                       |
| Andreas Dreuw, Jan Hendrik Starcke, Dirk Rehn, Michael Wormit                |
|                                                                              |
================================================================================

 Created directory /scratch/fum/qchem4296/plots
  Import QC data ...  CPU 0.00 s  wall 0.00 s

 Alpha MOs, Restricted
 -- Occupied --                  
-11.236 -11.234  -1.032  -0.789  -0.640  -0.582  -0.504  -0.374
  1 A     2 A     3 A     4 A     5 A     6 A     7 A     8 A                  
 -- Virtual --                   
  0.168   0.203   0.233   0.239   0.303   0.462   0.578   0.615
  9 A    10 A    11 A    12 A    13 A    14 A    15 A    16 A                  
  0.689   0.708   0.783   0.808   0.862   0.935   0.972   1.009
 17 A    18 A    19 A    20 A    21 A    22 A    23 A    24 A                  
  1.130   1.235   1.253   1.266   1.293   1.600   1.725   1.748
 25 A    26 A    27 A    28 A    29 A    30 A    31 A    32 A                  
  1.818   1.859   1.865   1.919   1.974   1.978   2.221   2.256
 33 A    34 A    35 A    36 A    37 A    38 A    39 A    40 A                  
  2.373   2.449   2.503   2.630   2.714   2.817   3.134   3.393
 41 A    42 A    43 A    44 A    45 A    46 A    47 A    48 A                  

 Beta MOs, Restricted
 -- Occupied --                  
-11.236 -11.234  -1.032  -0.789  -0.640  -0.582  -0.504  -0.374
  1 A     2 A     3 A     4 A     5 A     6 A     7 A     8 A                  
 -- Virtual --                   
  0.168   0.203   0.233   0.239   0.303   0.462   0.578   0.615
  9 A    10 A    11 A    12 A    13 A    14 A    15 A    16 A                  
  0.689   0.708   0.783   0.808   0.862   0.935   0.972   1.009
 17 A    18 A    19 A    20 A    21 A    22 A    23 A    24 A                  
  1.130   1.235   1.253   1.266   1.293   1.600   1.725   1.748
 25 A    26 A    27 A    28 A    29 A    30 A    31 A    32 A                  
  1.818   1.859   1.865   1.919   1.974   1.978   2.221   2.256
 33 A    34 A    35 A    36 A    37 A    38 A    39 A    40 A                  
  2.373   2.449   2.503   2.630   2.714   2.817   3.134   3.393
 41 A    42 A    43 A    44 A    45 A    46 A    47 A    48 A                  
  Import AO data ...  CPU 0.00 s  wall 0.01 s
  Using point group: C1
  Irreducible representations in point group: A
  Molecular orbitals: 
  Occupied MOs:
  Block   0:   1 (  A) A   2 (  A) A   3 (  A) A   4 (  A) A   5 (  A) A
                  -11.24      -11.23      -1.032     -0.7889     -0.6403
               6 (  A) A   7 (  A) A   8 (  A) A
                 -0.5818     -0.5038     -0.3741
  Block   1:   1 (  A) B   2 (  A) B   3 (  A) B   4 (  A) B   5 (  A) B
                  -11.24      -11.23      -1.032     -0.7889     -0.6403
               6 (  A) B   7 (  A) B   8 (  A) B
                 -0.5818     -0.5038     -0.3741
  Virtual MOs:
  Block   0:   9 (  A) A  10 (  A) A  11 (  A) A  12 (  A) A  13 (  A) A
                  0.1684      0.2034      0.2326       0.239      0.3032
              14 (  A) A  15 (  A) A  16 (  A) A  17 (  A) A  18 (  A) A
                   0.462      0.5777      0.6145       0.689      0.7079
              19 (  A) A  20 (  A) A  21 (  A) A  22 (  A) A
                  0.7831      0.8079      0.8616      0.9346
  Block   1:  23 (  A) A  24 (  A) A  25 (  A) A  26 (  A) A  27 (  A) A
                  0.9721       1.009        1.13       1.235       1.253
              28 (  A) A  29 (  A) A  30 (  A) A  31 (  A) A  32 (  A) A
                   1.266       1.293         1.6       1.725       1.748
              33 (  A) A  34 (  A) A  35 (  A) A  36 (  A) A
                   1.818       1.859       1.865       1.919
  Block   2:  37 (  A) A  38 (  A) A  39 (  A) A  40 (  A) A  41 (  A) A
                   1.974       1.978       2.221       2.256       2.373
              42 (  A) A  43 (  A) A  44 (  A) A  45 (  A) A  46 (  A) A
                   2.449       2.503        2.63       2.714       2.817
              47 (  A) A  48 (  A) A
                   3.134       3.393
  Block   3:   9 (  A) B  10 (  A) B  11 (  A) B  12 (  A) B  13 (  A) B
                  0.1684      0.2034      0.2326       0.239      0.3032
              14 (  A) B  15 (  A) B  16 (  A) B  17 (  A) B  18 (  A) B
                   0.462      0.5777      0.6145       0.689      0.7079
              19 (  A) B  20 (  A) B  21 (  A) B  22 (  A) B
                  0.7831      0.8079      0.8616      0.9346
  Block   4:  23 (  A) B  24 (  A) B  25 (  A) B  26 (  A) B  27 (  A) B
                  0.9721       1.009        1.13       1.235       1.253
              28 (  A) B  29 (  A) B  30 (  A) B  31 (  A) B  32 (  A) B
                   1.266       1.293         1.6       1.725       1.748
              33 (  A) B  34 (  A) B  35 (  A) B  36 (  A) B
                   1.818       1.859       1.865       1.919
  Block   5:  37 (  A) B  38 (  A) B  39 (  A) B  40 (  A) B  41 (  A) B
                   1.974       1.978       2.221       2.256       2.373
              42 (  A) B  43 (  A) B  44 (  A) B  45 (  A) B  46 (  A) B
                   2.449       2.503        2.63       2.714       2.817
              47 (  A) B  48 (  A) B
                   3.134       3.393
  Import MO data ...  CPU 0.01 s  wall 0.02 s
  Import HF data ...  CPU 0.08 s  wall 0.04 s
  Import 2e integrals ...  CPU 0.67 s  wall 0.12 s

--------------------------------------------------------------------------------
                                   HF Summary                                   
--------------------------------------------------------------------------------
  Energy:                                                  -78.0399089668 a.u.
  Dip. moment [a.u.]:                  [  -0.000936,   -0.001162,    0.000179]
  Total dipole [Debye]:                                               0.003820
  <r^2> [a.u.]:                        [ 175.322546,   35.022879,   11.635099]
  Total <r^2> [a.u.]:                                               221.980524
--------------------------------------------------------------------------------
  HF properties ...  CPU 0.01 s  wall 0.01 s
  MP(1) calculation ...  CPU 0.01 s  wall 0.01 s
  N^6 prerequesite intermediates ...  CPU 0.50 s  wall 0.08 s
  Difference density matrix of state mp2_gs printed to ASCII file 'State_mp2_gs_Difference.txt'
Exporting MP density matrix to file 'Densmat_MP.txt'.
Export successful
  Total density matrix of state mp2_gs printed to ASCII file 'State_mp2_gs_Total.txt'
Exporting MP density matrix to file 'Densmat_MP.txt'.
Export successful

--------------------------------------------------------------------------------
                                 MP(2) Summary                                  
--------------------------------------------------------------------------------
  MP energy contribution:                                   -0.2798403955 a.u.
  Total energy:                                            -78.3197493623 a.u.
  Dip. moment [a.u.]:                  [  -0.000795,   -0.001089,    0.000186]
  Total dipole [Debye]:                                               0.003460
  <r^2> [a.u.]:                        [ 175.369637,   35.062020,   11.466246]
  Total <r^2> [a.u.]:                                               221.897903

  Density matrix analysis:
  ------------------------
  NOs
    Occupation of frontier NOs:
       0.0453   1.9382
    Number of electrons: 16.000000
    Number of unpaired electrons: n_u =  0.40407, n_u,nl =  0.04520
    NO participation ratio (PR_NO): 13.865832
  
  
  Mulliken Population Analysis
  Atom      Charge (e)              h+              e-           Del q
  --------------------------------------------------------------------
   1 H        0.051098        0.014036       -0.011208        0.002827
   2 C       -0.099238        0.093125       -0.098832       -0.005707
   3 H        0.050725        0.014078       -0.011194        0.002884
   4 C       -0.106071        0.093606       -0.099209       -0.005603
   5 H        0.052633        0.013983       -0.011231        0.002752
   6 H        0.050853        0.014067       -0.011221        0.002846
  --------------------------------------------------------------------
  Sum:       -0.000000        0.242895       -0.242895        0.000000
  
  Multipole moment analysis of the density matrix
    Molecular charge:                      -0.000000
    Number of electrons:                   16.000000
      Center of electronic charge [Ang]: [ -1.560550,  -0.064941,   0.001972]
    Total nuclear charge:                  16.000000
      Center of nuclear charge [Ang]:    [ -1.560576,  -0.064977,   0.001978]
    Dipole moment [D]:                     0.003460
      Cartesian components [D]:          [ -0.002021,  -0.002768,   0.000474]
    RMS size of the density [Ang]:         1.201695
      Cartesian components [Ang]:        [  0.796219,   0.780660,   0.447969]
  
  Exciton analysis of the difference density matrix
    <r_h> [Ang]:                  [ -1.560899,  -0.063741,   0.001980]
    <r_e> [Ang]:                  [ -1.561206,  -0.063901,   0.001964]
    |<r_e - r_h>| [Ang]:            0.000346
    Hole size [Ang]:                1.394972
      Cartesian components [Ang]: [  0.846609,   0.836223,   0.727963]
    Electron size [Ang]:            1.360043
      Cartesian components [Ang]: [  0.877542,   0.862771,   0.579019]
--------------------------------------------------------------------------------
  MP(2) calculation ...  CPU 0.13 s  wall 0.11 s
  Start ADC(2)-s ...  CPU 0.01 s  wall 0.00 s
  ADC(2) intermediates ...  CPU 0.02 s  wall 0.01 s
  Starting Davidson for singlet states of irrep A ... 
--------------------------------------------------------------------------------
   It NVec Conv  Avg. Norm  Max. Norm  Conv. states           Remark
--------------------------------------------------------------------------------
        10    0  1.330e-01  4.686e-01  0.4118 n n n n n n n n Guess.
    1   20    0  2.307e-02  1.111e-01  0.3263 n n n n n n n n 
    2   30    0  5.912e-03  2.681e-02  0.3215 n n n n n n n n 
    3   40    0  2.105e-03  1.512e-02  0.3211 n n n n n n n n 
    4   50    0  6.376e-04  4.837e-03  0.3211 n n n n n n n n 
    5   20    0  2.676e-04  1.912e-03  0.3211 n n n n n n n n Subspace collapsed.
    6   30    0  1.883e-04  1.694e-03  0.3211 n n n n n n n n 
    7   40    0  1.094e-04  8.518e-04  0.3211 n n n n n n n n 
    8   50    0  1.075e-04  1.017e-03  0.3211 n n n n n n n n 
    9   20    2  9.113e-05  8.867e-04  0.3211 n y n y n n n n Subspace collapsed.
   10   30    4  9.026e-05  8.864e-04  0.3211 n y y y n y n n 
   11   40    5  1.112e-04  1.109e-03  0.3211 n y y y y y n n 
   12   50    6  1.084e-04  1.083e-03  0.3211 y y y y y y n n 
   13   20    6  5.074e-05  5.071e-04  0.3211 y y y y y y n n Subspace collapsed.
   14   30    6  4.116e-05  4.114e-04  0.3211 y y y y y y n n 
   15   40    6  3.219e-05  3.218e-04  0.3211 y y y y y y n n 
   16   50    6  3.012e-05  3.011e-04  0.3211 y y y y y y n n 
   17   20    7  1.710e-05  1.709e-04  0.3211 y y y y y y n y Subspace collapsed.
   18   30    7  2.598e-05  2.598e-04  0.3211 y y y y y y n y 
   19   40    8  2.823e-05  2.823e-04  0.3211 y y y y y y y y 
   20   50    9  2.786e-05  2.786e-04  0.3211 y y y y y y y y 
   21   20    9  1.276e-05  1.276e-04  0.3211 y y y y y y y y Subspace collapsed.
   22   30    9  9.914e-06  9.914e-05  0.3211 y y y y y y y y 
   23   39    9  4.555e-06  4.555e-05  0.3211 y y y y y y y y 
   24   46    9  7.138e-06  7.138e-05  0.3211 y y y y y y y y 
   25   50    9  7.828e-06  7.828e-05  0.3211 y y y y y y y y 
   26   16    9  4.222e-06  4.222e-05  0.3211 y y y y y y y y Subspace collapsed.
   27   20    9  4.131e-06  4.131e-05  0.3211 y y y y y y y y 
   28   24    9  3.716e-06  3.716e-05  0.3211 y y y y y y y y 
   29   28    9  4.095e-06  4.095e-05  0.3211 y y y y y y y y 
   30   32    9  3.186e-06  3.186e-05  0.3211 y y y y y y y y 
   31   36    9  3.021e-06  3.021e-05  0.3211 y y y y y y y y 
   32   40    9  1.570e-06  1.570e-05  0.3211 y y y y y y y y 
   33   44    9  7.955e-07  7.955e-06  0.3211 y y y y y y y y 
   34   48    9  3.803e-07  3.803e-06  0.3211 y y y y y y y y 
   35   50    9  2.252e-07  2.252e-06  0.3211 y y y y y y y y 
   36   14    9  1.030e-07  1.030e-06  0.3211 y y y y y y y y Subspace collapsed.
   37   18   10  6.963e-08  6.963e-07  0.3211 y y y y y y y y Converged.
--------------------------------------------------------------------------------
  Davidson Summary: 
 ------------------------------------------------------------
  State  0: excitation energy =   0.3211 a.u.   (converged)
  State  1: excitation energy =   0.3322 a.u.   (converged)
  State  2: excitation energy =   0.3367 a.u.   (converged)
  State  3: excitation energy =   0.3608 a.u.   (converged)
  State  4: excitation energy =   0.3750 a.u.   (converged)
  State  5: excitation energy =   0.3870 a.u.   (converged)
  State  6: excitation energy =   0.4239 a.u.   (converged)
  State  7: excitation energy =   0.4466 a.u.   (converged)
  State  8: excitation energy =   0.4559 a.u.   (converged)
  State  9: excitation energy =   0.4636 a.u.   (converged)
 ------------------------------------------------------------

  Singlet states of irrep A ...  CPU 88.35 s  wall 30.47 s
  TDMs ...  CPU 0.68 s  wall 0.28 s
  SDMs ...  CPU 1.50 s  wall 0.52 s
  Starting TPA DIIS iterations ... 
------------------------------------ 
   It     Res. Norm  Remark
------------------------------------
                       Guess.
    1     4.405e+00  
    2     5.839e+00  
    3     1.076e+00  
    4     2.560e-01  
    5     6.555e-02  
    6     2.665e-02  
    7     8.248e-03  
    8     1.434e-03  
    9     5.325e-04  
   10     9.030e-05  
   11     2.809e-05  
   12     4.379e-06  
   13     1.415e-06  
   14     4.264e-07  Converged.
   ... Converged in 14 steps (norm: 4.26366e-07)
------------------------------------
  Starting TPA DIIS iterations ... 
------------------------------------ 
   It     Res. Norm  Remark
------------------------------------
                       Guess.
    1     4.179e+00  
    2     5.535e+00  
    3     1.032e+00  
    4     2.581e-01  
    5     6.552e-02  
    6     2.714e-02  
    7     8.170e-03  
    8     1.496e-03  
    9     5.542e-04  
   10     9.189e-05  
   11     2.942e-05  
   12     4.467e-06  
   13     1.477e-06  
   14     4.332e-07  Converged.
   ... Converged in 14 steps (norm: 4.33154e-07)
------------------------------------
  Starting TPA DIIS iterations ... 
------------------------------------ 
   It     Res. Norm  Remark
------------------------------------
                       Guess.
    1     6.880e-01  
    2     4.826e-01  
    3     1.701e-01  
    4     6.044e-02  
    5     1.844e-02  
    6     6.659e-03  
    7     1.049e-03  
    8     4.496e-04  
    9     1.272e-04  
   10     2.701e-05  
   11     7.086e-06  
   12     2.067e-06  
   13     1.443e-06  
   14     6.092e-07  Converged.
   ... Converged in 14 steps (norm: 6.0917e-07)
------------------------------------
  Starting TPA DIIS iterations ... 
------------------------------------ 
   It     Res. Norm  Remark
------------------------------------
                       Guess.
    1     4.678e+00  
    2     6.328e+00  
    3     1.153e+00  
    4     2.830e-01  
    5     7.342e-02  
    6     3.009e-02  
    7     9.298e-03  
    8     1.614e-03  
    9     6.036e-04  
   10     1.029e-04  
   11     3.231e-05  
   12     5.078e-06  
   13     1.651e-06  
   14     4.968e-07  Converged.
   ... Converged in 14 steps (norm: 4.96773e-07)
------------------------------------
  Starting TPA DIIS iterations ... 
------------------------------------ 
   It     Res. Norm  Remark
------------------------------------
                       Guess.
    1     4.437e+00  
    2     5.998e+00  
    3     1.106e+00  
    4     2.851e-01  
    5     7.340e-02  
    6     3.068e-02  
    7     9.214e-03  
    8     1.686e-03  
    9     6.286e-04  
   10     1.048e-04  
   11     3.383e-05  
   12     5.177e-06  
   13     1.725e-06  
   14     5.045e-07  Converged.
   ... Converged in 14 steps (norm: 5.04461e-07)
------------------------------------
  Starting TPA DIIS iterations ... 
------------------------------------ 
   It     Res. Norm  Remark
------------------------------------
                       Guess.
    1     6.995e-01  
    2     4.991e-01  
    3     1.794e-01  
    4     6.796e-02  
    5     1.978e-02  
    6     7.245e-03  
    7     1.177e-03  
    8     5.249e-04  
    9     1.516e-04  
   10     3.018e-05  
   11     8.117e-06  
   12     2.429e-06  
   13     1.787e-06  
   14     7.661e-07  Converged.
   ... Converged in 14 steps (norm: 7.66131e-07)
------------------------------------
  Starting TPA DIIS iterations ... 
------------------------------------ 
   It     Res. Norm  Remark
------------------------------------
                       Guess.
    1     4.797e+00  
    2     6.545e+00  
    3     1.187e+00  
    4     2.952e-01  
    5     7.698e-02  
    6     3.166e-02  
    7     9.773e-03  
    8     1.695e-03  
    9     6.359e-04  
   10     1.086e-04  
   11     3.425e-05  
   12     5.400e-06  
   13     1.761e-06  
   14     5.292e-07  Converged.
   ... Converged in 14 steps (norm: 5.29205e-07)
------------------------------------
  Starting TPA DIIS iterations ... 
------------------------------------ 
   It     Res. Norm  Remark
------------------------------------
                       Guess.
    1     4.550e+00  
    2     6.204e+00  
    3     1.138e+00  
    4     2.974e-01  
    5     7.696e-02  
    6     3.229e-02  
    7     9.686e-03  
    8     1.772e-03  
    9     6.625e-04  
   10     1.106e-04  
   11     3.586e-05  
   12     5.504e-06  
   13     1.839e-06  
   14     5.373e-07  Converged.
   ... Converged in 14 steps (norm: 5.37334e-07)
------------------------------------
  Starting TPA DIIS iterations ... 
------------------------------------ 
   It     Res. Norm  Remark
------------------------------------
                       Guess.
    1     7.043e-01  
    2     5.061e-01  
    3     1.835e-01  
    4     7.142e-02  
    5     2.036e-02  
    6     7.509e-03  
    7     1.236e-03  
    8     5.600e-04  
    9     1.629e-04  
   10     3.133e-05  
   11     8.590e-06  
   12     2.599e-06  
   13     1.953e-06  
   14     8.435e-07  Converged.
   ... Converged in 14 steps (norm: 8.43545e-07)
------------------------------------
  Starting TPA DIIS iterations ... 
------------------------------------ 
   It     Res. Norm  Remark
------------------------------------
                       Guess.
    1     5.524e+00  
    2     7.899e+00  
    3     1.390e+00  
    4     3.735e-01  
    5     9.983e-02  
    6     4.180e-02  
    7     1.283e-02  
    8     2.214e-03  
    9     8.450e-04  
   10     1.459e-04  
   11     4.710e-05  
   12     7.532e-06  
   13     2.502e-06  
   14     7.454e-07  Converged.
   ... Converged in 14 steps (norm: 7.45432e-07)
------------------------------------
  Starting TPA DIIS iterations ... 
------------------------------------ 
   It     Res. Norm  Remark
------------------------------------
                       Guess.
    1     5.237e+00  
    2     7.486e+00  
    3     1.332e+00  
    4     3.757e-01  
    5     9.984e-02  
    6     4.273e-02  
    7     1.272e-02  
    8     2.322e-03  
    9     8.815e-04  
   10     1.486e-04  
   11     4.924e-05  
   12     7.663e-06  
   13     2.613e-06  
   14     7.571e-07  Converged.
   ... Converged in 14 steps (norm: 7.57138e-07)
------------------------------------
  Starting TPA DIIS iterations ... 
------------------------------------ 
   It     Res. Norm  Remark
------------------------------------
                       Guess.
    1     7.308e-01  
    2     5.468e-01  
    3     2.074e-01  
    4     9.431e-02  
    5     2.387e-02  
    6     9.214e-03  
    7     1.629e-03  
    8     7.915e-04  
    9     2.365e-04  
   10     3.549e-05  
   11     1.176e-05  
   12     3.785e-06  
   13     3.156e-06  
   14     1.427e-06  
   15     5.752e-07  Converged.
   ... Converged in 15 steps (norm: 5.75239e-07)
------------------------------------
  Starting TPA DIIS iterations ... 
------------------------------------ 
   It     Res. Norm  Remark
------------------------------------
                       Guess.
    1     6.042e+00  
    2     8.899e+00  
    3     1.535e+00  
    4     4.335e-01  
    5     1.173e-01  
    6     4.967e-02  
    7     1.517e-02  
    8     2.611e-03  
    9     1.007e-03  
   10     1.748e-04  
   11     5.729e-05  
   12     9.223e-06  
   13     3.105e-06  
   14     9.201e-07  Converged.
   ... Converged in 14 steps (norm: 9.20117e-07)
------------------------------------
  Starting TPA DIIS iterations ... 
------------------------------------ 
   It     Res. Norm  Remark
------------------------------------
                       Guess.
    1     5.727e+00  
    2     8.432e+00  
    3     1.470e+00  
    4     4.357e-01  
    5     1.174e-01  
    6     5.085e-02  
    7     1.506e-02  
    8     2.744e-03  
    9     1.051e-03  
   10     1.781e-04  
   11     5.980e-05  
   12     9.370e-06  
   13     3.240e-06  
   14     9.357e-07  Converged.
   ... Converged in 14 steps (norm: 9.35681e-07)
------------------------------------
  Starting TPA DIIS iterations ... 
------------------------------------ 
   It     Res. Norm  Remark
------------------------------------
                       Guess.
    1     7.475e-01  
    2     5.738e-01  
    3     2.239e-01  
    4     1.125e-01  
    5     2.639e-02  
    6     1.053e-02  
    7     1.947e-03  
    8     9.648e-04  
    9     2.909e-04  
   10     3.681e-05  
   11     1.438e-05  
   12     4.800e-06  
   13     4.219e-06  
   14     1.964e-06  
   15     7.823e-07  Converged.
   ... Converged in 15 steps (norm: 7.82321e-07)
------------------------------------
  Starting TPA DIIS iterations ... 
------------------------------------ 
   It     Res. Norm  Remark
------------------------------------
                       Guess.
    1     6.545e+00  
    2     9.893e+00  
    3     1.674e+00  
    4     4.949e-01  
    5     1.352e-01  
    6     5.778e-02  
    7     1.756e-02  
    8     3.014e-03  
    9     1.174e-03  
   10     2.046e-04  
   11     6.789e-05  
   12     1.098e-05  
   13     3.741e-06  
   14     1.106e-06  
   15     3.666e-07  Converged.
   ... Converged in 15 steps (norm: 3.66591e-07)
------------------------------------
  Starting TPA DIIS iterations ... 
------------------------------------ 
   It     Res. Norm  Remark
------------------------------------
                       Guess.
    1     6.203e+00  
    2     9.374e+00  
    3     1.602e+00  
    4     4.969e-01  
    5     1.353e-01  
    6     5.923e-02  
    7     1.744e-02  
    8     3.173e-03  
    9     1.226e-03  
   10     2.085e-04  
   11     7.076e-05  
   12     1.114e-05  
   13     3.897e-06  
   14     1.127e-06  
   15     3.643e-07  Converged.
   ... Converged in 15 steps (norm: 3.64295e-07)
------------------------------------
  Starting TPA DIIS iterations ... 
------------------------------------ 
   It     Res. Norm  Remark
------------------------------------
                       Guess.
    1     7.622e-01  
    2     5.987e-01  
    3     2.395e-01  
    4     1.314e-01  
    5     2.891e-02  
    6     1.188e-02  
    7     2.285e-03  
    8     1.129e-03  
    9     3.431e-04  
   10     3.831e-05  
   11     1.721e-05  
   12     5.926e-06  
   13     5.410e-06  
   14     2.581e-06  
   15     1.039e-06  
   16     4.421e-07  Converged.
   ... Converged in 16 steps (norm: 4.42118e-07)
------------------------------------
  Starting TPA DIIS iterations ... 
------------------------------------ 
   It     Res. Norm  Remark
------------------------------------
                       Guess.
    1     8.600e+00  
    2     1.419e+01  
    3     2.233e+00  
    4     7.717e-01  
    5     2.160e-01  
    6     9.517e-02  
    7     2.838e-02  
    8     4.827e-03  
    9     1.940e-03  
   10     3.411e-04  
   11     1.165e-04  
   12     1.911e-05  
   13     6.705e-06  
   14     2.055e-06  
   15     6.752e-07  Converged.
   ... Converged in 15 steps (norm: 6.75174e-07)
------------------------------------
  Starting TPA DIIS iterations ... 
------------------------------------ 
   It     Res. Norm  Remark
------------------------------------
                       Guess.
    1     8.146e+00  
    2     1.344e+01  
    3     2.135e+00  
    4     7.725e-01  
    5     2.163e-01  
    6     9.792e-02  
    7     2.822e-02  
    8     5.107e-03  
    9     2.028e-03  
   10     3.475e-04  
   11     1.206e-04  
   12     1.931e-05  
   13     6.901e-06  
   14     2.108e-06  
   15     6.673e-07  Converged.
   ... Converged in 15 steps (norm: 6.67309e-07)
------------------------------------
  Starting TPA DIIS iterations ... 
------------------------------------ 
   It     Res. Norm  Remark
------------------------------------
                       Guess.
    1     8.114e-01  
    2     6.902e-01  
    3     2.995e-01  
    4     2.182e-01  
    5     3.998e-02  
    6     1.796e-02  
    7     3.920e-03  
    8     1.640e-03  
    9     5.410e-04  
   10     5.754e-05  
   11     3.182e-05  
   12     1.211e-05  
   13     1.165e-05  
   14     6.022e-06  
   15     2.741e-06  
   16     1.155e-06  
   17     3.368e-07  Converged.
   ... Converged in 17 steps (norm: 3.36756e-07)
------------------------------------
  Starting TPA DIIS iterations ... 
------------------------------------ 
   It     Res. Norm  Remark
------------------------------------
                       Guess.
    1     1.044e+01  
    2     1.831e+01  
    3     2.720e+00  
    4     1.047e+00  
    5     2.972e-01  
    6     1.336e-01  
    7     3.924e-02  
    8     6.632e-03  
    9     2.724e-03  
   10     4.795e-04  
   11     1.642e-04  
   12     2.743e-05  
   13     9.624e-06  
   14     3.169e-06  
   15     1.021e-06  
   16     2.458e-07  Converged.
   ... Converged in 16 steps (norm: 2.45764e-07)
------------------------------------
  Starting TPA DIIS iterations ... 
------------------------------------ 
   It     Res. Norm  Remark
------------------------------------
                       Guess.
    1     9.885e+00  
    2     1.735e+01  
    3     2.599e+00  
    4     1.046e+00  
    5     2.978e-01  
    6     1.378e-01  
    7     3.905e-02  
    8     7.039e-03  
    9     2.848e-03  
   10     4.883e-04  
   11     1.690e-04  
   12     2.775e-05  
   13     9.808e-06  
   14     3.253e-06  
   15     1.025e-06  
   16     3.362e-07  Converged.
   ... Converged in 16 steps (norm: 3.36187e-07)
------------------------------------
  Starting TPA DIIS iterations ... 
------------------------------------ 
   It     Res. Norm  Remark
------------------------------------
                       Guess.
    1     8.455e-01  
    2     7.618e-01  
    3     3.491e-01  
    4     3.006e-01  
    5     5.077e-02  
    6     2.373e-02  
    7     5.632e-03  
    8     1.864e-03  
    9     7.010e-04  
   10     8.693e-05  
   11     4.875e-05  
   12     2.008e-05  
   13     1.855e-05  
   14     1.020e-05  
   15     5.082e-06  
   16     2.166e-06  
   17     7.677e-07  Converged.
   ... Converged in 17 steps (norm: 7.67704e-07)
------------------------------------
  Starting TPA DIIS iterations ... 
------------------------------------ 
   It     Res. Norm  Remark
------------------------------------
                       Guess.
    1     1.137e+01  
    2     2.050e+01  
    3     2.964e+00  
    4     1.195e+00  
    5     3.413e-01  
    6     1.548e-01  
    7     4.514e-02  
    8     7.609e-03  
    9     3.154e-03  
   10     5.549e-04  
   11     1.893e-04  
   12     3.204e-05  
   13     1.120e-05  
   14     3.827e-06  
   15     1.250e-06  
   16     3.080e-07  Converged.
   ... Converged in 16 steps (norm: 3.08045e-07)
------------------------------------
  Starting TPA DIIS iterations ... 
------------------------------------ 
   It     Res. Norm  Remark
------------------------------------
                       Guess.
    1     1.077e+01  
    2     1.942e+01  
    3     2.832e+00  
    4     1.192e+00  
    5     3.421e-01  
    6     1.598e-01  
    7     4.494e-02  
    8     8.087e-03  
    9     3.298e-03  
   10     5.650e-04  
   11     1.944e-04  
   12     3.248e-05  
   13     1.140e-05  
   14     3.923e-06  
   15     1.273e-06  
   16     4.301e-07  Converged.
   ... Converged in 16 steps (norm: 4.301e-07)
------------------------------------
  Starting TPA DIIS iterations ... 
------------------------------------ 
   It     Res. Norm  Remark
------------------------------------
                       Guess.
    1     8.604e-01  
    2     7.958e-01  
    3     3.732e-01  
    4     3.416e-01  
    5     5.651e-02  
    6     2.665e-02  
    7     6.560e-03  
    8     1.926e-03  
    9     7.788e-04  
   10     1.035e-04  
   11     5.865e-05  
   12     2.515e-05  
   13     2.247e-05  
   14     1.268e-05  
   15     6.545e-06  
   16     2.815e-06  
   17     1.071e-06  
   18     4.286e-07  Converged.
   ... Converged in 18 steps (norm: 4.28643e-07)
------------------------------------
  Starting TPA DIIS iterations ... 
------------------------------------ 
   It     Res. Norm  Remark
------------------------------------
                       Guess.
    1     1.225e+01  
    2     2.262e+01  
    3     3.190e+00  
    4     1.338e+00  
    5     3.842e-01  
    6     1.755e-01  
    7     5.088e-02  
    8     8.558e-03  
    9     3.575e-03  
   10     6.284e-04  
   11     2.133e-04  
   12     3.662e-05  
   13     1.278e-05  
   14     4.496e-06  
   15     1.513e-06  
   16     3.766e-07  Converged.
   ... Converged in 16 steps (norm: 3.76566e-07)
------------------------------------
  Starting TPA DIIS iterations ... 
------------------------------------ 
   It     Res. Norm  Remark
------------------------------------
                       Guess.
    1     1.161e+01  
    2     2.143e+01  
    3     3.048e+00  
    4     1.334e+00  
    5     3.851e-01  
    6     1.813e-01  
    7     5.067e-02  
    8     9.105e-03  
    9     3.738e-03  
   10     6.396e-04  
   11     2.188e-04  
   12     3.720e-05  
   13     1.300e-05  
   14     4.602e-06  
   15     1.559e-06  
   16     5.308e-07  Converged.
   ... Converged in 16 steps (norm: 5.3082e-07)
------------------------------------
  Starting TPA DIIS iterations ... 
------------------------------------ 
   It     Res. Norm  Remark
------------------------------------
                       Guess.
    1     8.734e-01  
    2     8.263e-01  
    3     3.951e-01  
    4     3.783e-01  
    5     6.199e-02  
    6     2.931e-02  
    7     7.452e-03  
    8     1.969e-03  
    9     8.502e-04  
   10     1.194e-04  
   11     6.868e-05  
   12     3.055e-05  
   13     2.649e-05  
   14     1.521e-05  
   15     8.078e-06  
   16     3.499e-06  
   17     1.394e-06  
   18     5.359e-07  Converged.
   ... Converged in 18 steps (norm: 5.35907e-07)
------------------------------------
  Two-photon absorbption ...  CPU 70.73 s  wall 18.04 s
  Transition density matrix of state singlet_A_1 printed to ASCII file 'State_singlet_A_1_Transition.txt'
  Transition density matrix of state singlet_A_2 printed to ASCII file 'State_singlet_A_2_Transition.txt'
  Transition density matrix of state singlet_A_3 printed to ASCII file 'State_singlet_A_3_Transition.txt'
  Transition density matrix of state singlet_A_4 printed to ASCII file 'State_singlet_A_4_Transition.txt'
  Transition density matrix of state singlet_A_5 printed to ASCII file 'State_singlet_A_5_Transition.txt'
  Transition density matrix of state singlet_A_6 printed to ASCII file 'State_singlet_A_6_Transition.txt'
  Transition density matrix of state singlet_A_7 printed to ASCII file 'State_singlet_A_7_Transition.txt'
  Transition density matrix of state singlet_A_8 printed to ASCII file 'State_singlet_A_8_Transition.txt'
  Transition density matrix of state singlet_A_9 printed to ASCII file 'State_singlet_A_9_Transition.txt'
  Transition density matrix of state singlet_A_10 printed to ASCII file 'State_singlet_A_10_Transition.txt'
  Transition properties ...  CPU 0.16 s  wall 0.38 s
  Difference density matrix of state singlet_A_1 printed to ASCII file 'State_singlet_A_1_Difference.txt'
  Total density matrix of state singlet_A_1 printed to ASCII file 'State_singlet_A_1_Total.txt'
  Difference density matrix of state singlet_A_2 printed to ASCII file 'State_singlet_A_2_Difference.txt'
  Total density matrix of state singlet_A_2 printed to ASCII file 'State_singlet_A_2_Total.txt'
  Difference density matrix of state singlet_A_3 printed to ASCII file 'State_singlet_A_3_Difference.txt'
  Total density matrix of state singlet_A_3 printed to ASCII file 'State_singlet_A_3_Total.txt'
  Difference density matrix of state singlet_A_4 printed to ASCII file 'State_singlet_A_4_Difference.txt'
  Total density matrix of state singlet_A_4 printed to ASCII file 'State_singlet_A_4_Total.txt'
  Difference density matrix of state singlet_A_5 printed to ASCII file 'State_singlet_A_5_Difference.txt'
  Total density matrix of state singlet_A_5 printed to ASCII file 'State_singlet_A_5_Total.txt'
  Difference density matrix of state singlet_A_6 printed to ASCII file 'State_singlet_A_6_Difference.txt'
  Total density matrix of state singlet_A_6 printed to ASCII file 'State_singlet_A_6_Total.txt'
  Difference density matrix of state singlet_A_7 printed to ASCII file 'State_singlet_A_7_Difference.txt'
  Total density matrix of state singlet_A_7 printed to ASCII file 'State_singlet_A_7_Total.txt'
  Difference density matrix of state singlet_A_8 printed to ASCII file 'State_singlet_A_8_Difference.txt'
  Total density matrix of state singlet_A_8 printed to ASCII file 'State_singlet_A_8_Total.txt'
  Difference density matrix of state singlet_A_9 printed to ASCII file 'State_singlet_A_9_Difference.txt'
  Total density matrix of state singlet_A_9 printed to ASCII file 'State_singlet_A_9_Total.txt'
  Difference density matrix of state singlet_A_10 printed to ASCII file 'State_singlet_A_10_Difference.txt'
  Total density matrix of state singlet_A_10 printed to ASCII file 'State_singlet_A_10_Total.txt'
  Properties ...  CPU 0.30 s  wall 0.56 s
  ISR TDMS ...  CPU 9.05 s  wall 3.19 s
  ISR transition properties ...  CPU 0.18 s  wall 0.08 s
  Sum-over-states TPA ...  CPU 0.00 s  wall 0.00 s

--------------------------------------------------------------------------------
                   State-averaged natural transition orbitals
--------------------------------------------------------------------------------
--------------------------------------------------------------------------------
  SA-NTO decomposition ...  CPU 0.01 s  wall 0.02 s

--------------------------------------------------------------------------------
                             Excited State Summary
--------------------------------------------------------------------------------
--------------------------------------------------------------------------------

  Excited state 1 (singlet, A)                                     [converged]
  ----------------------------------------------------------------------------
  Term symbol:  2 (1) A                                     R^2 =  4.26064e-13

  Total energy:                                            -77.9986466683 a.u.
  Excitation energy:                                               8.737649 eV

  Osc. strength:                                                      0.445869
  Trans. dip. moment [a.u.]:           [   1.044806,   -0.995552,   -0.009423]
  <i|r^2|0> [a.u.]:                    [   6.159447,   -0.239528,    0.000361]
  Two-photon absorption cross-section (SoS) [a.u.]:                   0.002032
  Two-photon absorption matrix (SoS) [a.u.]:
                                       |    0.006394    0.011012    0.001050 |
                                       |    0.011012    0.010820    0.001736 |
                                       |    0.001050    0.001736   -0.006286 |
  Two-photon absorption cross-section [a.u.]:                         0.001074
  Two-photon absorption matrix [a.u.]:
                                       |   -0.003692    0.004726    0.000428 |
                                       |    0.004726   -0.003074    0.001470 |
                                       |    0.000428    0.001470   -0.008722 |

  Dip. moment [a.u.]:                  [  -0.000656,   -0.001163,    0.000254]
  Total dipole [Debye]:                                               0.003454
  <r^2> [a.u.]:                        [ 176.124402,   35.750602,   11.876368]
  Total <r^2> [a.u.]:                                               223.751372

  V1^2 = 0.9714, V2^2 = 0.0286

  Important amplitudes:
      occ i     occ j     vir a      vir b          v   
    -----------------------------------------------------
     8 (A) A              9 (A) A                 0.6811
     6 (A) A             14 (A) A                 0.0622
     4 (A) A             10 (A) A                 0.0609
     7 (A) A             16 (A) A                 0.0570
     5 (A) A             13 (A) A                -0.0515
     6 (A) A             23 (A) A                 0.0486
     8 (A) A             20 (A) A                 0.0350
     6 (A) A             19 (A) A                -0.0307
     3 (A) A             12 (A) A                -0.0282
     5 (A) A             22 (A) A                -0.0215
     7 (A) A             11 (A) A                -0.0207
     4 (A) A             24 (A) A                 0.0188
     3 (A) A             26 (A) A                -0.0186
     8 (A) A   8 (A) B   17 (A) A   20 (A) B     -0.0184
     8 (A) A   8 (A) B    9 (A) A   28 (A) B     -0.0168
     6 (A) A             26 (A) A                 0.0163
     7 (A) A             21 (A) A                 0.0149
     3 (A) A             14 (A) A                -0.0140
     6 (A) A             12 (A) A                -0.0133
     3 (A) A   4 (A) B    9 (A) A    9 (A) B     -0.0129
     3 (A) A             19 (A) A                 0.0119
     8 (A) A   8 (A) B   18 (A) A   19 (A) B     -0.0112
     7 (A) A             32 (A) A                 0.0097
     7 (A) A             36 (A) A                 0.0086
     3 (A) A             23 (A) A                -0.0081
     8 (A) A   8 (A) B   25 (A) A   29 (A) B      0.0076
     6 (A) A             35 (A) A                 0.0071
     6 (A) A             40 (A) A                 0.0068
     3 (A) A   6 (A) B    9 (A) A   28 (A) B      0.0065
     6 (A) A   8 (A) A   19 (A) A   28 (A) A     -0.0061
     5 (A) A   7 (A) B    9 (A) A    9 (A) B     -0.0060
     5 (A) A   8 (A) B   11 (A) A   20 (A) B      0.0060
     7 (A) A   8 (A) B   13 (A) A   20 (A) B      0.0059
     5 (A) A   8 (A) B   16 (A) A    9 (A) B     -0.0059
     5 (A) A   8 (A) B   11 (A) A    9 (A) B     -0.0059
     3 (A) A   5 (A) B    9 (A) A   25 (A) B     -0.0058
     7 (A) A   8 (A) B   22 (A) A   20 (A) B      0.0057
     3 (A) A             40 (A) A                -0.0057
     6 (A) A   8 (A) A    9 (A) A   18 (A) A      0.0056
     8 (A) A   8 (A) B   19 (A) A   30 (A) B     -0.0056
    -----------------------------------------------------

  Density matrix analysis:
  ------------------------
  NOs
    Occupation of frontier NOs:
       0.9494   1.0218
    Number of electrons: 16.000000
    Number of unpaired electrons: n_u =  2.31398, n_u,nl =  2.03275
    NO participation ratio (PR_NO):  2.865827
  
  
  Mulliken Population Analysis
  Atom      Charge (e)              h+              e-           Del q
  --------------------------------------------------------------------
   1 H        0.058853        0.020282       -0.012527        0.007755
   2 C       -0.114411        0.490867       -0.506040       -0.015173
   3 H        0.058340        0.020224       -0.012610        0.007615
   4 C       -0.121817        0.490733       -0.506479       -0.015746
   5 H        0.060420        0.020301       -0.012514        0.007787
   6 H        0.058615        0.020274       -0.012512        0.007762
  --------------------------------------------------------------------
  Sum:       -0.000000        1.062682       -1.062682        0.000000
  
  Multipole moment analysis of the density matrix
    Molecular charge:                      -0.000000
    Number of electrons:                   16.000000
      Center of electronic charge [Ang]: [ -1.560555,  -0.064939,   0.001970]
    Total nuclear charge:                  16.000000
      Center of nuclear charge [Ang]:    [ -1.560576,  -0.064977,   0.001978]
    Dipole moment [D]:                     0.003454
      Cartesian components [D]:          [ -0.001668,  -0.002955,   0.000644]
    RMS size of the density [Ang]:         1.215112
      Cartesian components [Ang]:        [  0.804463,   0.788341,   0.455910]
  
  Exciton analysis of the difference density matrix
    <r_h> [Ang]:                  [ -1.560248,  -0.065548,   0.001804]
    <r_e> [Ang]:                  [ -1.560317,  -0.065511,   0.001770]
    |<r_e - r_h>| [Ang]:            0.000085
    Hole size [Ang]:                1.285707
      Cartesian components [Ang]: [  0.728415,   0.713253,   0.783405]
    Electron size [Ang]:            1.463298
      Cartesian components [Ang]: [  0.853968,   0.830773,   0.849585]

  Transition density matrix analysis:
  -----------------------------------
  
  CT numbers (Mulliken)
    omega =     0.9535
    <Phe> =    -0.1605
  
  Exciton analysis of the transition density matrix
    Trans. dipole moment [D]:             1.834127
      Cartesian components [D]:         [  1.327816,  -1.265221,  -0.011975]
    <r_h> [Ang]:                        [ -1.560021,  -0.065932,   0.001820]
    <r_e> [Ang]:                        [ -1.560337,  -0.065441,   0.001751]
    |<r_e - r_h>| [Ang]:                  0.000588
    Hole size [Ang]:                      1.214148
      Cartesian components [Ang]:       [  0.649536,   0.636563,   0.804391]
    Electron size [Ang]:                  1.486159
      Cartesian components [Ang]:       [  0.864421,   0.839662,   0.869720]
    RMS electron-hole separation [Ang]:   1.936671
      Cartesian components [Ang]:       [  1.106707,   1.075161,   1.170436]
    Covariance(r_h, r_e) [Ang^2]:        -0.033935
    Correlation coefficient:             -0.018806
    Center-of-mass size [Ang]:            0.950652
      Cartesian components [Ang]:       [  0.527599,   0.515877,   0.599374]

  Decomposition into state-averaged NTOs
    H- 0 -> L+ 0: -0.6699 ( 89.7%)
    H- 2 -> L+ 5: -0.0835 (  1.4%)
                   omega =  95.3%
  ----------------------------------------------------------------------------


  Excited state 2 (singlet, A)                                     [converged]
  ----------------------------------------------------------------------------
  Term symbol:  3 (1) A                                     R^2 =  2.46212e-13

  Total energy:                                            -77.9875565384 a.u.
  Excitation energy:                                               9.039426 eV

  Osc. strength:                                                      0.000022
  Trans. dip. moment [a.u.]:           [  -0.001180,    0.000382,    0.009863]
  <i|r^2|0> [a.u.]:                    [   0.056142,    0.087343,   -0.150430]
  Two-photon absorption cross-section (SoS) [a.u.]:                   4.892543
  Two-photon absorption matrix (SoS) [a.u.]:
                                       |    0.049732    0.058239   -0.518549 |
                                       |    0.058239    0.067752   -0.573424 |
                                       |   -0.518549   -0.573424   -0.117778 |
  Two-photon absorption cross-section [a.u.]:                         0.097187
  Two-photon absorption matrix [a.u.]:
                                       |   -0.003311   -0.007492    0.049881 |
                                       |   -0.007492   -0.013144    0.096849 |
                                       |    0.049881    0.096849    0.016283 |

  Dip. moment [a.u.]:                  [  -0.026616,    0.005317,   -0.000286]
  Total dipole [Debye]:                                               0.068992
  <r^2> [a.u.]:                        [ 174.412268,   34.054317,   13.177773]
  Total <r^2> [a.u.]:                                               221.644358

  V1^2 = 0.9542, V2^2 = 0.0458

  Important amplitudes:
      occ i     occ j     vir a      vir b          v   
    -----------------------------------------------------
     7 (A) A              9 (A) A                -0.6688
     8 (A) A             11 (A) A                 0.1494
     7 (A) A             20 (A) A                -0.0758
     5 (A) A   8 (A) B    9 (A) A    9 (A) B      0.0316
     8 (A) A             16 (A) A                 0.0275
     8 (A) A             10 (A) A                -0.0178
     8 (A) A             21 (A) A                -0.0176
     5 (A) A             28 (A) A                 0.0150
     4 (A) A   7 (A) B    9 (A) A   19 (A) B      0.0135
     5 (A) A   7 (A) B    9 (A) A   16 (A) B     -0.0134
     7 (A) A   8 (A) B   20 (A) A   17 (A) B      0.0105
     7 (A) A   8 (A) A    9 (A) A   28 (A) A     -0.0098
     5 (A) A   8 (A) B    9 (A) A   20 (A) B      0.0095
     4 (A) A   6 (A) B    9 (A) A   16 (A) B     -0.0091
     5 (A) A   6 (A) A    9 (A) A   23 (A) A     -0.0091
     5 (A) A   6 (A) A    9 (A) A   14 (A) A     -0.0089
     5 (A) A   6 (A) B    9 (A) A   19 (A) B      0.0086
     8 (A) A   7 (A) B    9 (A) A   28 (A) B      0.0085
     4 (A) A   5 (A) A    9 (A) A   10 (A) A      0.0085
     6 (A) A   7 (A) B    9 (A) A   18 (A) B     -0.0083
     5 (A) A   6 (A) B    9 (A) A   23 (A) B     -0.0080
     3 (A) A   7 (A) B    9 (A) A   18 (A) B     -0.0080
     5 (A) A   7 (A) A    9 (A) A   16 (A) A     -0.0079
     4 (A) A   8 (A) B    9 (A) A   25 (A) B      0.0077
     7 (A) A   8 (A) B   17 (A) A   20 (A) B      0.0074
     4 (A) A   7 (A) B   19 (A) A    9 (A) B      0.0074
     5 (A) A   5 (A) B    9 (A) A   13 (A) B      0.0072
     7 (A) A   8 (A) B   19 (A) A   18 (A) B      0.0071
     5 (A) A   8 (A) A    9 (A) A   20 (A) A      0.0069
     4 (A) A   5 (A) B    9 (A) A   18 (A) B     -0.0068
     7 (A) A   7 (A) B   20 (A) A   22 (A) B     -0.0065
     7 (A) A   8 (A) B   17 (A) A    9 (A) B      0.0065
     5 (A) A   6 (A) B    9 (A) A   14 (A) B     -0.0063
     4 (A) A   7 (A) A    9 (A) A   19 (A) A      0.0061
     4 (A) A   5 (A) B   10 (A) A    9 (A) B     -0.0061
     5 (A) A   7 (A) B   11 (A) A   20 (A) B     -0.0060
     4 (A) A   7 (A) B    9 (A) A   14 (A) B      0.0060
     4 (A) A   8 (A) A    9 (A) A   25 (A) A      0.0057
     6 (A) A   7 (A) A   19 (A) A   28 (A) A      0.0057
     5 (A) A   7 (A) A   11 (A) A   20 (A) A     -0.0053
    -----------------------------------------------------

  Density matrix analysis:
  ------------------------
  NOs
    Occupation of frontier NOs:
       0.9567   1.0549
    Number of electrons: 16.000000
    Number of unpaired electrons: n_u =  2.35584, n_u,nl =  2.06377
    NO participation ratio (PR_NO):  3.035896
  
  
  Mulliken Population Analysis
  Atom      Charge (e)              h+              e-           Del q
  --------------------------------------------------------------------
   1 H        0.144099        0.120195       -0.027195        0.093000
   2 C       -0.300201        0.268856       -0.469819       -0.200963
   3 H        0.154003        0.125535       -0.022257        0.103278
   4 C       -0.305771        0.275286       -0.474985       -0.199700
   5 H        0.156072        0.131804       -0.028365        0.103439
   6 H        0.151798        0.122045       -0.021100        0.100945
  --------------------------------------------------------------------
  Sum:       -0.000000        1.043721       -1.043721        0.000000
  
  Multipole moment analysis of the density matrix
    Molecular charge:                      -0.000000
    Number of electrons:                   16.000000
      Center of electronic charge [Ang]: [ -1.559696,  -0.065153,   0.001988]
    Total nuclear charge:                  16.000000
      Center of nuclear charge [Ang]:    [ -1.560576,  -0.064977,   0.001978]
    Dipole moment [D]:                     0.068992
      Cartesian components [D]:          [ -0.067652,   0.013515,  -0.000726]
    RMS size of the density [Ang]:         1.200946
      Cartesian components [Ang]:        [  0.787321,   0.769263,   0.480240]
  
  Exciton analysis of the difference density matrix
    <r_h> [Ang]:                  [ -1.567639,  -0.051455,   0.002482]
    <r_e> [Ang]:                  [ -1.554547,  -0.054703,   0.002721]
    |<r_e - r_h>| [Ang]:            0.013491
    Hole size [Ang]:                1.487823
      Cartesian components [Ang]: [  0.995541,   1.007607,   0.455239]
    Electron size [Ang]:            1.478553
      Cartesian components [Ang]: [  0.880407,   0.862881,   0.816358]

  Transition density matrix analysis:
  -----------------------------------
  
  CT numbers (Mulliken)
    omega =     0.9217
    <Phe> =    -0.0120
  
  Exciton analysis of the transition density matrix
    Trans. dipole moment [D]:             0.012634
      Cartesian components [D]:         [ -0.001499,   0.000485,   0.012535]
    <r_h> [Ang]:                        [ -1.569299,  -0.049894,   0.002537]
    <r_e> [Ang]:                        [ -1.552751,  -0.055438,   0.002718]
    |<r_e - r_h>| [Ang]:                  0.017453
    Hole size [Ang]:                      1.516546
      Cartesian components [Ang]:       [  1.017756,   1.032432,   0.445159]
    Electron size [Ang]:                  1.475403
      Cartesian components [Ang]:       [  0.870880,   0.852073,   0.832079]
    RMS electron-hole separation [Ang]:   2.096125
      Cartesian components [Ang]:       [  1.323713,   1.323789,   0.942923]
    Covariance(r_h, r_e) [Ang^2]:         0.041646
    Correlation coefficient:              0.018613
    Center-of-mass size [Ang]:            1.067710
      Cartesian components [Ang]:       [  0.677601,   0.676665,   0.472213]

  Decomposition into state-averaged NTOs
    H- 1 -> L+ 0:  0.6611 ( 87.4%)
    H- 0 -> L+ 2: -0.1499 (  4.5%)
                   omega =  92.2%
  ----------------------------------------------------------------------------


  Excited state 3 (singlet, A)                                     [converged]
  ----------------------------------------------------------------------------
  Term symbol:  4 (1) A                                     R^2 =  7.04220e-13

  Total energy:                                            -77.9830155240 a.u.
  Excitation energy:                                               9.162994 eV

  Osc. strength:                                                      0.024790
  Trans. dip. moment [a.u.]:           [   0.015379,    0.019934,   -0.331349]
  <i|r^2|0> [a.u.]:                    [   0.092737,    0.006081,   -0.001062]
  Two-photon absorption cross-section (SoS) [a.u.]:                   0.001662
  Two-photon absorption matrix (SoS) [a.u.]:
                                       |    0.004370    0.000744   -0.013436 |
                                       |    0.000744   -0.002769    0.002994 |
                                       |   -0.013436    0.002994    0.001756 |
  Two-photon absorption cross-section [a.u.]:                         0.001646
  Two-photon absorption matrix [a.u.]:
                                       |    0.003814   -0.000613   -0.005250 |
                                       |   -0.000613   -0.002248    0.012649 |
                                       |   -0.005250    0.012649    0.002654 |

  Dip. moment [a.u.]:                  [   0.004130,   -0.042023,   -0.002686]
  Total dipole [Debye]:                                               0.107544
  <r^2> [a.u.]:                        [ 180.866690,   40.713002,   11.032478]
  Total <r^2> [a.u.]:                                               232.612170

  V1^2 = 0.9586, V2^2 = 0.0414

  Important amplitudes:
      occ i     occ j     vir a      vir b          v   
    -----------------------------------------------------
     8 (A) A             10 (A) A                 0.6888
     8 (A) A             24 (A) A                 0.0507
     8 (A) A             18 (A) A                -0.0316
     4 (A) A              9 (A) A                 0.0240
     8 (A) A   8 (A) B    9 (A) A   12 (A) B     -0.0220
     7 (A) A              9 (A) A                -0.0184
     8 (A) A   8 (A) B   10 (A) A   17 (A) B      0.0173
     8 (A) A             15 (A) A                 0.0167
     5 (A) A   8 (A) B   11 (A) A   10 (A) B     -0.0166
     7 (A) A   8 (A) B   13 (A) A   10 (A) B     -0.0141
     4 (A) A   8 (A) B   12 (A) A   10 (A) B     -0.0111
     6 (A) A   8 (A) A   10 (A) A   15 (A) A      0.0110
     7 (A) A   8 (A) B   22 (A) A   10 (A) B     -0.0108
     6 (A) A   8 (A) B   15 (A) A   10 (A) B     -0.0108
     4 (A) A   8 (A) A   10 (A) A   12 (A) A      0.0107
     7 (A) A   8 (A) A   10 (A) A   22 (A) A      0.0099
     7 (A) A   8 (A) A   10 (A) A   13 (A) A      0.0097
     5 (A) A   8 (A) A   10 (A) A   11 (A) A      0.0094
     5 (A) A   8 (A) B   21 (A) A   10 (A) B      0.0094
     6 (A) A   8 (A) A   10 (A) A   18 (A) A      0.0088
     6 (A) A   8 (A) B   10 (A) A   10 (A) B      0.0087
     7 (A) A   8 (A) A   12 (A) A   16 (A) A     -0.0082
     3 (A) A   4 (A) B   10 (A) A    9 (A) B     -0.0079
     5 (A) A   8 (A) A   10 (A) A   21 (A) A     -0.0079
     4 (A) A   8 (A) B   19 (A) A   10 (A) B      0.0075
     8 (A) A   8 (A) B    9 (A) A   23 (A) B      0.0075
     8 (A) A   8 (A) B   10 (A) A   28 (A) B     -0.0073
     3 (A) A   8 (A) B   10 (A) A   10 (A) B      0.0072
     5 (A) A   8 (A) B   10 (A) A   11 (A) B     -0.0072
     3 (A) A   8 (A) A   10 (A) A   24 (A) A     -0.0071
     7 (A) A   8 (A) B   16 (A) A   12 (A) B      0.0071
     3 (A) A   8 (A) B   10 (A) A   18 (A) B     -0.0069
     8 (A) A   8 (A) B    9 (A) A   19 (A) B      0.0068
     6 (A) A   8 (A) B   18 (A) A   10 (A) B     -0.0067
     3 (A) A   6 (A) B   10 (A) A   28 (A) B      0.0062
     7 (A) A   8 (A) B   12 (A) A   11 (A) B      0.0058
     6 (A) A             28 (A) A                -0.0057
     3 (A) A   5 (A) B   10 (A) A   25 (A) B     -0.0056
     5 (A) A   8 (A) A   10 (A) A   16 (A) A      0.0056
     3 (A) A   8 (A) A   10 (A) A   18 (A) A     -0.0055
    -----------------------------------------------------

  Density matrix analysis:
  ------------------------
  NOs
    Occupation of frontier NOs:
       0.9821   0.9843
    Number of electrons: 16.000000
    Number of unpaired electrons: n_u =  2.28724, n_u,nl =  2.02482
    NO participation ratio (PR_NO):  2.696722
  
  
  Mulliken Population Analysis
  Atom      Charge (e)              h+              e-           Del q
  --------------------------------------------------------------------
   1 H       -0.161087        0.053636       -0.265822       -0.212185
   2 C        0.325045        0.535777       -0.111495        0.424283
   3 H       -0.156868        0.054314       -0.261907       -0.207593
   4 C        0.321331        0.539119       -0.111716        0.427403
   5 H       -0.166645        0.053878       -0.273156       -0.219278
   6 H       -0.161777        0.054121       -0.266751       -0.212630
  --------------------------------------------------------------------
  Sum:       -0.000000        1.290846       -1.290846        0.000000
  
  Multipole moment analysis of the density matrix
    Molecular charge:                      -0.000000
    Number of electrons:                   16.000000
      Center of electronic charge [Ang]: [ -1.560713,  -0.063587,   0.002067]
    Total nuclear charge:                  16.000000
      Center of nuclear charge [Ang]:    [ -1.560576,  -0.064977,   0.001978]
    Dipole moment [D]:                     0.107544
      Cartesian components [D]:          [  0.010497,  -0.106812,  -0.006826]
    RMS size of the density [Ang]:         1.277206
      Cartesian components [Ang]:        [  0.854204,   0.841728,   0.439413]
  
  Exciton analysis of the difference density matrix
    <r_h> [Ang]:                  [ -1.561953,  -0.064010,   0.001881]
    <r_e> [Ang]:                  [ -1.563972,  -0.047229,   0.003058]
    |<r_e - r_h>| [Ang]:            0.016943
    Hole size [Ang]:                1.410692
      Cartesian components [Ang]: [  0.833843,   0.820954,   0.787904]
    Electron size [Ang]:            2.076028
      Cartesian components [Ang]: [  1.371671,   1.379029,   0.725732]

  Transition density matrix analysis:
  -----------------------------------
  
  CT numbers (Mulliken)
    omega =     0.9258
    <Phe> =    -0.0109
  
  Exciton analysis of the transition density matrix
    Trans. dipole moment [D]:             0.422317
      Cartesian components [D]:         [  0.019545,   0.025333,  -0.421103]
    <r_h> [Ang]:                        [ -1.561052,  -0.066771,   0.001681]
    <r_e> [Ang]:                        [ -1.565066,  -0.041572,   0.003416]
    |<r_e - r_h>| [Ang]:                  0.025575
    Hole size [Ang]:                      1.213097
      Cartesian components [Ang]:       [  0.636831,   0.623793,   0.822760]
    Electron size [Ang]:                  2.295847
      Cartesian components [Ang]:       [  1.515548,   1.526570,   0.802253]
    RMS electron-hole separation [Ang]:   2.586814
      Cartesian components [Ang]:       [  1.636396,   1.642265,   1.147511]
    Covariance(r_h, r_e) [Ang^2]:         0.025783
    Correlation coefficient:              0.009258
    Center-of-mass size [Ang]:            1.303273
      Cartesian components [Ang]:       [  0.825698,   0.828050,   0.575393]

  Decomposition into state-averaged NTOs
    H- 0 -> L+ 1:  0.6788 ( 92.2%)
                   omega =  92.6%
  ----------------------------------------------------------------------------


  Excited state 4 (singlet, A)                                     [converged]
  ----------------------------------------------------------------------------
  Term symbol:  5 (1) A                                     R^2 =  6.08616e-13

  Total energy:                                            -77.9589803874 a.u.
  Excitation energy:                                               9.817023 eV

  Osc. strength:                                                      0.000015
  Trans. dip. moment [a.u.]:           [   0.000679,    0.000135,   -0.007951]
  <i|r^2|0> [a.u.]:                    [   0.019492,    0.020170,   -0.035564]
  Two-photon absorption cross-section (SoS) [a.u.]:                 146.651245
  Two-photon absorption matrix (SoS) [a.u.]:
                                       |    0.276939    0.319622   -2.890842 |
                                       |    0.319622    0.366725   -3.091843 |
                                       |   -2.890842   -3.091843   -0.643735 |
  Two-photon absorption cross-section [a.u.]:                        89.792479
  Two-photon absorption matrix [a.u.]:
                                       |    0.215963    0.249820   -2.242303 |
                                       |    0.249820    0.287996   -2.437605 |
                                       |   -2.242303   -2.437605   -0.504020 |

  Dip. moment [a.u.]:                  [   0.045842,    0.031287,    0.003601]
  Total dipole [Debye]:                                               0.141366
  <r^2> [a.u.]:                        [ 181.143451,   41.039857,   10.770392]
  Total <r^2> [a.u.]:                                               232.953700

  V1^2 = 0.9635, V2^2 = 0.0365

  Important amplitudes:
      occ i     occ j     vir a      vir b          v   
    -----------------------------------------------------
     8 (A) A             11 (A) A                 0.6695
     7 (A) A              9 (A) A                 0.1513
     8 (A) A             21 (A) A                -0.0780
     8 (A) A             16 (A) A                 0.0649
     8 (A) A   8 (A) B    9 (A) A   13 (A) B      0.0167
     5 (A) A   8 (A) B   11 (A) A   11 (A) B     -0.0156
     8 (A) A   8 (A) B   11 (A) A   17 (A) B      0.0139
     7 (A) A             20 (A) A                 0.0138
     7 (A) A   8 (A) B   13 (A) A   11 (A) B     -0.0127
     4 (A) A   8 (A) B   12 (A) A   11 (A) B     -0.0110
     5 (A) A   8 (A) A   11 (A) A   21 (A) A     -0.0110
     8 (A) A   8 (A) B    9 (A) A   22 (A) B      0.0108
     7 (A) A   8 (A) A   11 (A) A   22 (A) A      0.0096
     6 (A) A   8 (A) B   10 (A) A   11 (A) B      0.0090
     6 (A) A   8 (A) B   15 (A) A   11 (A) B     -0.0090
     7 (A) A   8 (A) B   22 (A) A   11 (A) B     -0.0089
     3 (A) A   4 (A) B   11 (A) A    9 (A) B     -0.0083
     3 (A) A   8 (A) B   11 (A) A   18 (A) B     -0.0081
     6 (A) A   8 (A) A   11 (A) A   15 (A) A      0.0080
     7 (A) A   8 (A) A   13 (A) A   16 (A) A      0.0078
     7 (A) A   8 (A) A   11 (A) A   13 (A) A      0.0077
     5 (A) A   8 (A) B   21 (A) A   11 (A) B      0.0071
     4 (A) A   8 (A) B   19 (A) A   11 (A) B      0.0070
     5 (A) A   8 (A) B    9 (A) A    9 (A) B     -0.0068
     4 (A) A   8 (A) A   11 (A) A   12 (A) A      0.0062
     6 (A) A   8 (A) A   11 (A) A   18 (A) A      0.0062
     3 (A) A   6 (A) B   11 (A) A   28 (A) B      0.0060
     6 (A) A   8 (A) B   18 (A) A   11 (A) B     -0.0060
     7 (A) A   8 (A) B   16 (A) A   13 (A) B     -0.0057
     5 (A) A   8 (A) B   10 (A) A   10 (A) B     -0.0056
     3 (A) A   8 (A) A   11 (A) A   18 (A) A     -0.0056
     3 (A) A   8 (A) B   11 (A) A   30 (A) B     -0.0055
     8 (A) A             12 (A) A                -0.0055
     3 (A) A   5 (A) B   11 (A) A   25 (A) B     -0.0054
     6 (A) A   8 (A) B   11 (A) A   10 (A) B      0.0054
     7 (A) A   8 (A) B   12 (A) A   10 (A) B      0.0054
     8 (A) A   8 (A) B   20 (A) A   22 (A) B      0.0053
     3 (A) A   8 (A) A   11 (A) A   24 (A) A     -0.0053
     8 (A) A             10 (A) A                 0.0050
     5 (A) A   8 (A) A   11 (A) A   16 (A) A      0.0049
    -----------------------------------------------------

  Density matrix analysis:
  ------------------------
  NOs
    Occupation of frontier NOs:
       0.9401   1.0283
    Number of electrons: 16.000000
    Number of unpaired electrons: n_u =  2.31973, n_u,nl =  2.04959
    NO participation ratio (PR_NO):  2.918903
  
  
  Mulliken Population Analysis
  Atom      Charge (e)              h+              e-           Del q
  --------------------------------------------------------------------
   1 H       -0.119732        0.046108       -0.216939       -0.170831
   2 C        0.274083        0.495782       -0.122461        0.373321
   3 H       -0.150580        0.046564       -0.247868       -0.201304
   4 C        0.266298        0.497314       -0.124945        0.372369
   5 H       -0.134110        0.046614       -0.233357       -0.186743
   6 H       -0.135959        0.046337       -0.233149       -0.186812
  --------------------------------------------------------------------
  Sum:       -0.000000        1.178720       -1.178720        0.000000
  
  Multipole moment analysis of the density matrix
    Molecular charge:                      -0.000000
    Number of electrons:                   16.000000
      Center of electronic charge [Ang]: [ -1.562092,  -0.066012,   0.001859]
    Total nuclear charge:                  16.000000
      Center of nuclear charge [Ang]:    [ -1.560576,  -0.064977,   0.001978]
    Dipole moment [D]:                     0.141366
      Cartesian components [D]:          [  0.116519,   0.079523,   0.009153]
    RMS size of the density [Ang]:         1.277737
      Cartesian components [Ang]:        [  0.854518,   0.844934,   0.434163]
  
  Exciton analysis of the difference density matrix
    <r_h> [Ang]:                  [ -1.562252,  -0.065607,   0.001759]
    <r_e> [Ang]:                  [ -1.583189,  -0.080142,   0.000226]
    |<r_e - r_h>| [Ang]:            0.025534
    Hole size [Ang]:                1.394953
      Cartesian components [Ang]: [  0.817683,   0.807812,   0.790398]
    Electron size [Ang]:            2.122369
      Cartesian components [Ang]: [  1.405145,   1.438957,   0.677804]

  Transition density matrix analysis:
  -----------------------------------
  
  CT numbers (Mulliken)
    omega =     0.9297
    <Phe> =    -0.0137
  
  Exciton analysis of the transition density matrix
    Trans. dipole moment [D]:             0.010143
      Cartesian components [D]:         [  0.000863,   0.000171,  -0.010105]
    <r_h> [Ang]:                        [ -1.560638,  -0.065121,   0.001810]
    <r_e> [Ang]:                        [ -1.587847,  -0.082520,  -0.000090]
    |<r_e - r_h>| [Ang]:                  0.032352
    Hole size [Ang]:                      1.228222
      Cartesian components [Ang]:       [  0.659759,   0.649136,   0.807384]
    Electron size [Ang]:                  2.259597
      Cartesian components [Ang]:       [  1.494726,   1.534097,   0.719807]
    RMS electron-hole separation [Ang]:   2.561289
      Cartesian components [Ang]:       [  1.625695,   1.657812,   1.081192]
    Covariance(r_h, r_e) [Ang^2]:         0.027578
    Correlation coefficient:              0.009937
    Center-of-mass size [Ang]:            1.291265
      Cartesian components [Ang]:       [  0.821102,   0.836903,   0.541066]

  Decomposition into state-averaged NTOs
    H- 0 -> L+ 2: -0.6636 ( 88.1%)
    H- 1 -> L+ 0: -0.1493 (  4.5%)
                   omega =  93.0%
  ----------------------------------------------------------------------------


  Excited state 5 (singlet, A)                                     [converged]
  ----------------------------------------------------------------------------
  Term symbol:  6 (1) A                                     R^2 =  3.23582e-13

  Total energy:                                            -77.9447729155 a.u.
  Excitation energy:                                              10.203628 eV

  Osc. strength:                                                      0.000004
  Trans. dip. moment [a.u.]:           [   0.000166,    0.000184,   -0.004118]
  <i|r^2|0> [a.u.]:                    [  -0.086826,    0.101146,   -0.013389]
  Two-photon absorption cross-section (SoS) [a.u.]:                 183.287861
  Two-photon absorption matrix (SoS) [a.u.]:
                                       |   -0.334604   -0.055100    3.519917 |
                                       |   -0.055100    0.380689   -3.223116 |
                                       |    3.519917   -3.223116   -0.049180 |
  Two-photon absorption cross-section [a.u.]:                        83.480576
  Two-photon absorption matrix [a.u.]:
                                       |   -0.226493   -0.037361    2.371505 |
                                       |   -0.037361    0.256367   -2.179576 |
                                       |    2.371505   -2.179576   -0.033838 |

  Dip. moment [a.u.]:                  [  -0.017266,    0.001918,   -0.000571]
  Total dipole [Debye]:                                               0.044180
[...]
    16   -1.450536416741e-03
    17   -1.749618962420e-03
    18    1.369292297700e-04
    19   -3.156413753305e-03
    20    9.853383024729e-03
    21    9.191744297805e-01
    22   -3.933730441050e-04
    23    1.383418040339e-02
    24    8.005153974615e-04
    25    7.103841069958e-02
    26   -5.327625509867e-02
    27   -1.401394874991e+00
    28    9.680919900584e-02
    29   -9.567314011481e-02
    30   -1.198209891317e-03
    31    3.832115016545e-01
    32   -3.696246904753e-01
    33   -4.198753252737e-03
    34    1.551496479669e-02
    35   -1.471327589130e-03
    36   -1.753716379357e-03
    37   -2.339059260625e-04
    38   -3.209113328049e-03
    39    1.112255269568e-02
    40    9.415277287079e-01
    41    2.425235137889e-04
    42   -1.389413867328e-02
    43   -8.190704637430e-04
    44    1.049487248662e-02
    45    9.382150503527e-01
    46    1.409297022287e-02
    47    3.053711905091e-04
    48    6.793813478558e-04
Sym=X
Ene= 0.232580
Spin=Alpha
Occup=0
     1   -2.586149171245e-02
     2   -1.160792708041e+00
     3    1.315266581125e-02
     4    3.305597030125e-03
     5    8.157761441744e-04
     6    2.585889308776e-03
     7   -1.922804135667e-03
     8   -5.261800240519e-02
     9    1.504829380823e-01
    10    1.618051852659e-01
    11    1.668019962671e-02
    12    5.369873855795e-01
    13    5.719284579104e-01
    14    5.918404465557e-02
    15    8.952998968244e-04
    16   -1.134619762119e-04
    17   -1.032796900674e-04
    18   -1.881075714571e-04
    19   -4.633725039936e-04
    20    2.684188336296e-02
    21    1.226451490312e+00
    22    2.991156596634e-03
    23    1.451418466874e-02
    24    1.000778412676e-03
    25   -1.748326620127e-03
    26    1.486522413457e-03
    27    2.607467134935e-02
    28    1.519343474851e-01
    29    1.632159534759e-01
    30    1.689531183058e-02
    31    5.370786035538e-01
    32    5.654577714832e-01
    33    5.905502345044e-02
    34   -2.725187465241e-04
    35    1.955006668756e-05
    36    6.237084981676e-05
    37   -3.252558412066e-04
    38    8.341746350554e-05
    39   -2.746545602078e-02
    40   -1.201627697696e+00
    41    2.846492390555e-03
    42    1.402529355524e-02
    43    9.696782254157e-04
    44    2.482428222203e-02
    45    1.168607435275e+00
    46    1.351255726228e-02
    47    3.381971789825e-03
    48    8.397765637650e-04
Sym=X
Ene= 0.238991
Spin=Alpha
Occup=0
     1    1.683908208892e-02
     2    1.130564563973e+00
     3   -1.747814925764e-02
     4   -9.283525007360e-03
     5   -1.382727340045e-03
     6    8.712681191325e-02
     7   -8.062170948427e-02
     8   -1.600760313023e+00
     9   -6.288583827827e-02
    10    5.130682716296e-02
    11   -2.840680894743e-05
    12   -2.491771365782e-01
    13    2.038566968088e-01
    14   -1.238368268455e-04
    15    2.261631349758e-02
    16   -2.637866408116e-03
    17   -2.950550727723e-03
    18    1.643928570322e-04
    19   -1.295315366093e-02
    20    1.637514064612e-02
    21    1.058702472239e+00
    22    8.416128128710e-03
    23    1.690801060326e-02
    24    1.394016192580e-03
    25   -8.609238571538e-02
    26    7.938418973824e-02
    27    1.574147204813e+00
    28   -6.101399510280e-02
    29    5.275712015711e-02
    30    3.872240760093e-04
    31   -2.397671362639e-01
    32    2.077743437190e-01
    33    1.555002869052e-03
    34   -2.210896429350e-02
    35    2.542306162540e-03
    36    2.928988655806e-03
    37   -5.080516607192e-04
    38    1.267660945159e-02
    39   -1.668732948378e-02
    40   -1.046698847285e+00
    41    8.450796595809e-03
    42    1.652577935238e-02
    43    1.389867103140e-03
    44   -1.766425791364e-02
    45   -1.108794206928e+00
    46   -1.702391270927e-02
    47   -9.330987487436e-03
    48   -1.348741041071e-03
Sym=X
Ene= 0.303190
Spin=Alpha
Occup=0
     1   -2.147886663566e-02
     2    1.691418323026e+00
     3   -2.294809691128e-02
     4    3.236977999503e-04
     5   -1.072184186095e-03
     6   -3.023806858828e-04
     7   -1.415350492103e-04
     8    8.823288187901e-03
     9   -1.341791353696e-01
    10   -1.403186313988e-01
    11   -1.465150319888e-02
    12   -1.146805695647e+00
    13   -1.193279847069e+00
    14   -1.249426270297e-01
    15   -1.630930038508e-04
    16   -1.657259178833e-03
    17    1.885402087179e-03
    18   -3.304540702166e-02
    19   -1.571762620077e-03
    20    2.058281788947e-02
    21   -1.694423718124e+00
    22    1.416182348119e-03
    23   -2.310065123423e-02
    24   -1.294507302222e-03
    25    3.587117026161e-04
    26    2.756116733056e-04
    27   -3.187650411305e-02
    28    1.345184289892e-01
    29    1.406291801868e-01
    30    1.471632393575e-02
    31    1.134094226442e+00
    32    1.193312307785e+00
    33    1.244423566183e-01
    34    5.844906043509e-04
    35   -1.677986224628e-03
    36    1.789249820307e-03
    37   -3.238347461412e-02
    38   -2.064402941348e-03
    39    1.838790157503e-02
    40   -1.667315900856e+00
    41   -1.643849191555e-03
    42    2.274202511044e-02
    43    1.276782753254e-03
    44   -2.055914374744e-02
    45    1.695209057521e+00
    46    2.316368964790e-02
    47   -1.863980215302e-04
    48    1.080805979858e-03
Sym=X
Ene= 0.461965
Spin=Alpha
Occup=0
     1   -1.157248838918e-01
     2   -7.109140858419e-01
     3   -1.571745009574e-02
     4   -1.038949927163e-02
     5   -1.355883738361e-03
     6    6.082349179955e-02
     7    1.781402026510e-02
     8   -3.592948165538e+00
     9    1.024550837131e-01
    10   -9.832982201277e-02
    11   -9.592277158334e-04
    12    2.425006019486e+00
    13   -2.306749270759e+00
    14   -2.142664278745e-02
    15    5.370253737448e-02
    16   -3.386525862277e-03
    17   -4.638623825151e-03
    18   -8.889522550187e-04
    19    1.796554338436e-02
    20   -1.215829525817e-01
    21   -7.033726687267e-01
    22    8.772791773949e-03
    23    1.632363234147e-02
    24    1.382833804461e-03
    25   -6.122677459930e-02
    26   -1.624678732874e-02
    27    3.603691244360e+00
    28    1.058095433008e-01
    29   -1.006978214220e-01
    30   -1.083951157918e-03
    31    2.426794678387e+00
    32   -2.288784010590e+00
    33   -2.092197825791e-02
    34   -5.283092473080e-02
    35    3.218304727645e-03
    36    4.507761714180e-03
    37    2.978410262742e-04
    38   -1.950548357259e-02
    39    1.162975481606e-01
    40    6.914171554983e-01
    41    8.725120374819e-03
    42    1.616301463027e-02
    43    1.368851039641e-03
    44    1.104071072611e-01
    45    7.234002948949e-01
    46   -1.530117635425e-02
    47   -9.939601770045e-03
    48   -1.318622534326e-03
Sym=X
Ene= 0.577673
Spin=Alpha
Occup=0
     1    2.421712696766e-01
     2    4.223119839173e-02
     3   -1.912495642049e-02
     4    2.594533413292e-02
     5    6.277908597144e-04
     6   -4.330591277440e-03
     7   -1.579271425865e-01
     8   -4.753867130565e-01
     9    2.994099121272e-01
    10   -2.888665798665e-01
    11   -2.936308784831e-03
    12   -7.139121911599e-01
    13    6.902585284728e-01
    14    7.118127310546e-03
    15   -5.476642745891e-03
    16    3.776833878999e-03
    17    3.753495955130e-03
    18   -5.452145905536e-03
    19    6.016526868631e-02
    20    2.585402236758e-01
    21    2.507039690082e-02
    22   -2.595524439960e-02
    23    1.613323246558e-02
    24   -2.760967714682e-04
    25   -6.025772344375e-03
    26   -1.594336289051e-01
    27   -3.923261292767e-01
    28   -2.985027808607e-01
    29    2.843156375155e-01
    30    2.686179228433e-03
    31    7.766459520801e-01
    32   -7.285552808953e-01
    33   -6.559421971001e-03
    34   -5.787198191801e-03
    35    3.918937512561e-03
    36    3.647758748862e-03
    37   -3.033919218233e-03
    38    6.022493282778e-02
    39    2.444671782434e-01
    40    4.621045556324e-02
    41    2.848212657802e-02
    42   -1.852856576762e-02
    43    2.406843194638e-04
    44    2.527858747097e-01
    45    5.946547262280e-02
    46    1.824952073373e-02
    47   -2.563903271423e-02
    48   -6.652648495945e-04
Sym=X
Ene= 0.614526
Spin=Alpha
Occup=0
     1   -5.247160450409e-01
     2    1.949677764111e-01
     3   -6.100829399206e-02
     4    3.706793413041e-02
     5   -7.055723333082e-04
     6   -5.390416367462e-04
     7   -5.809309802883e-04
     8   -1.170063123000e-02
     9   -4.189735965276e-02
    10   -3.778330381390e-02
    11   -4.229635460139e-03
    12    3.158358775646e-01
    13    2.734879415508e-01
    14    3.109526872491e-02
    15    2.259833749098e-03
    16   -7.635726513503e-03
    17    8.118844736601e-03
    18   -1.474318739964e-01
    19   -7.441160183799e-03
    20    5.035808056026e-01
    21   -2.055972491619e-01
    22    4.204404810163e-02
    23   -5.823634115572e-02
    24   -1.449746289026e-03
    25    8.018220949434e-05
    26    2.259990506559e-03
    27    1.952675750974e-02
    28   -3.677158588082e-02
    29   -3.917968559236e-02
    30   -4.053208790690e-03
    31    2.912840717919e-01
    32    2.785577726558e-01
    33    3.035466454442e-02
    34    6.982663879483e-04
    35    7.292131362785e-03
    36   -8.806828561597e-03
    37    1.502152583955e-01
    38    5.319675928284e-03
    39   -5.267709236277e-01
    40    2.354648379544e-01
    41    4.043150669485e-02
    42   -5.907214769377e-02
    43   -1.608652084989e-03
    44    5.140486895467e-01
    45   -2.078607948235e-01
    46   -6.116641583582e-02
    47    3.819638625199e-02
    48   -6.064534315550e-04
Sym=X
Ene= 0.689045
Spin=Alpha
Occup=0
     1    2.280909299394e-04
     2    3.409497027900e-06
     3    1.042798251874e-03
     4    1.266124664654e-03
     5   -2.099762352035e-02
     6    1.600542856900e-05
     7    2.051951495575e-04
     8   -3.395453807338e-05
     9    3.162678907202e-02
    10    3.975009817599e-02
    11   -6.701819387708e-01
    12   -2.916993308948e-02
    13   -3.616674624985e-02
    14    6.136464219032e-01
    15   -1.330509397140e-03
    16    8.280113419980e-02
    17   -7.834431291955e-02
    18   -8.575718257976e-03
    19   -1.141104097376e-03
    20    2.475000670620e-04
    21   -5.026428503022e-05
    22    9.609419878918e-04
    23    1.181649705324e-03
    24   -2.089539609229e-02
    25    8.771678182197e-06
    26    2.788764561277e-04
    27   -2.687061230467e-04
    28    3.179423347189e-02
    29    3.972291488045e-02
    30   -6.704382692793e-01
    31   -2.930109328977e-02
    32   -3.611376054471e-02
    33    6.129228127184e-01
    34    1.154976075670e-03
    35   -8.276895025441e-02
    36    7.821881759464e-02
    37    8.545040547216e-03
    38    1.205857497610e-03
    39    1.173807764880e-04
    40   -2.883118572159e-04
    41    9.265467709772e-04
    42    1.221371198317e-03
    43   -1.937570062624e-02
    44    1.081521087110e-04
    45   -2.355391984583e-04
    46    9.317559251581e-04
    47    1.249511886781e-03
    48   -2.114523149179e-02
Sym=X
Ene= 0.707939
Spin=Alpha
Occup=0
     1   -4.634907370349e-01
     2    1.469282980303e-01
     3   -7.841566188592e-02
     4   -4.453983667651e-02
     5   -6.367446219896e-03
     6   -4.659586310736e-02
     7   -3.209338718564e-01
     8    5.001481714643e-01
     9    2.039970478465e-01
    10   -1.930166487937e-01
    11   -2.075003889341e-03
    12   -9.079096576816e-02
    13    7.377766987561e-02
    14    2.529435564951e-04
    15    1.910438954887e-01
    16   -2.012063145994e-02
    17   -2.365583357523e-02
    18    4.598003435544e-03
    19   -7.713952476229e-02
    20   -4.775774141503e-01
    21    1.459227597527e-01
    22    4.008049453036e-02
    23    8.100412710357e-02
    24    6.672734341238e-03
    25   -4.747728090001e-02
    26   -3.136900726403e-01
    27    4.587071324012e-01
    28   -1.991182527943e-01
    29    1.947510477146e-01
    30    1.828758155598e-03
    31    5.655761495169e-02
    32   -7.410888073491e-02
    33   -1.211685238900e-03
    34    1.955433971572e-01
    35   -2.053798423207e-02
    36   -2.394447503563e-02
    37    2.232233935251e-03
    38   -7.580098474664e-02
    39   -4.808385563686e-01
    40    1.671540679604e-01
    41   -4.090994629380e-02
    42   -8.196681669633e-02
    43   -6.799753231599e-03
    44   -4.846554321381e-01
    45    1.448186834351e-01
    46    8.137923551025e-02
    47    4.378663030584e-02
    48    6.446460385371e-03
Sym=X
Ene= 0.783052
Spin=Alpha
Occup=0
     1   -5.373673456787e-01
     2    4.709926189010e-01
     3   -1.115313572185e-01
     4   -2.569518936491e-02
     5   -6.807165866406e-03
     6   -9.149492652371e-02
     7    2.076343641735e-01
     8    6.541549006515e-01
     9   -1.071093170137e-01
    10    1.015267446552e-01
    11    4.681876250766e-04
    12   -3.200076267631e-01
    13    2.980574990800e-01
    14    3.388316502616e-03
    15    2.089289097034e-01
    16   -1.784512831772e-02
    17   -2.208311557444e-02
    18    1.100110993238e-03
    19   -1.078282336826e-02
    20   -5.371479368278e-01
    21    4.713853913602e-01
    22    2.191814420049e-02
    23    1.127930343635e-01
    24    7.703323013458e-03
    25    9.014847105046e-02
    26   -2.254864124632e-01
    27   -6.333838457161e-01
    28   -1.217684796145e-01
    29    9.574178623111e-02
    30    3.089749991273e-04
    31   -2.892591069087e-01
    32    3.198820439050e-01
    33    4.381154314795e-03
    34   -2.033574228733e-01
    35    1.699258796563e-02
    36    2.172586701288e-02
    37   -4.083355898560e-03
    38    8.112410715969e-03
    39    5.389758500477e-01
    40   -5.017408899048e-01
    41    2.075355388742e-02
    42    1.129108788608e-01
    43    7.690772347002e-03
    44    5.253914028970e-01
    45   -4.459489165212e-01
    46   -1.064226567952e-01
    47   -2.561434714243e-02
    48   -6.550678500615e-03
Sym=X
Ene= 0.807898
Spin=Alpha
Occup=0
     1    2.839920402599e-04
     2   -3.953975216971e-04
     3    1.696039250459e-03
     4    1.999744332377e-03
     5   -3.383802386171e-02
     6    5.624054024968e-05
     7   -1.688729314408e-04
     8   -4.886708198939e-05
     9    3.625905620947e-02
    10    4.499981819058e-02
    11   -7.631672028290e-01
    12   -5.320995752999e-02
    13   -6.674665371731e-02
    14    1.126890061354e+00
    15    8.191606752175e-04
    16   -6.539685244260e-02
    17    6.183648139870e-02
    18    6.781555817995e-03
    19    9.007155887295e-04
    20    2.773915700830e-04
    21   -2.551295370398e-04
    22    1.651510053711e-03
    23    1.964815028112e-03
    24   -3.450383931005e-02
    25   -4.922965299117e-05
    26    5.267290597558e-05
    27    1.002157927877e-04
    28   -3.600167839820e-02
    29   -4.545407486311e-02
    30    7.635081239061e-01
    31    5.347592228051e-02
    32    6.673236952762e-02
    33   -1.126455035458e+00
    34    1.158800668635e-03
    35   -6.532213402467e-02
    36    6.187241644962e-02
    37    6.742169003311e-03
    38    9.654394997578e-04
    39   -2.771917656991e-04
    40    3.094771443598e-04
    41   -1.500063472824e-03
    42   -2.027465660417e-03
    43    3.233537588634e-02
    44   -2.691462357890e-04
    45    4.160769871177e-04
    46   -1.483390545683e-03
    47   -2.026184508200e-03
    48    3.392427861744e-02
Sym=X
Ene= 0.861584
Spin=Alpha
Occup=0
     1    1.394418155201e-02
     2   -1.089074714122e+00
     3    1.475046428274e-01
     4    5.655309672517e-02
     5    1.032876749618e-02
     6    1.160504548393e-03
     7   -7.487659648451e-03
     8    1.105468554971e-02
     9   -3.988915073718e-01
    10   -4.264442446838e-01
    11   -4.407282118714e-02
    12    9.357293403450e-01
    13    9.876922764850e-01
    14    1.026396959939e-01
    15   -2.922417797165e-03
    16    1.173765542644e-02
    17   -1.316990341740e-02
    18    2.333085355086e-01
    19    8.012398262760e-03
    20   -5.906065818691e-03
    21    1.086060741767e+00
    22    5.089913383651e-02
    23    1.478011896109e-01
    24    1.116000749212e-02
    25   -1.643362209442e-03
    26   -4.092112507406e-03
    27   -4.542761180598e-05
    28   -4.082462423532e-01
    29   -4.412482747574e-01
    30   -4.555243366443e-02
    31    9.491790725809e-01
    32    1.016449769209e+00
    33    1.053436526313e-01
    34    5.403761935853e-03
    35   -1.215645584145e-02
    36    1.299787092907e-02
    37   -2.359004203898e-01
    38   -9.900299872772e-03
    39    9.690318667564e-03
    40   -1.102120144728e+00
    41    4.916886962373e-02
    42    1.513022287171e-01
    43    1.133755011969e-02
    44   -2.034748816395e-02
    45    1.101741033838e+00
    46    1.514518220549e-01
    47    5.570235267748e-02
    48    1.043754803823e-02
Sym=X
Ene= 0.934621
Spin=Alpha
Occup=0
     1    1.159800398138e-01
     2   -1.288681988765e+00
     3    1.822290891120e-01
     4   -4.057160035156e-03
     5    8.418178242744e-03
     6   -9.898886100994e-04
     7    1.683386931281e-02
     8   -3.924425711257e-02
     9   -4.851111899278e-01
    10   -4.953045199878e-01
    11   -5.228674279556e-02
    12    1.484173684851e+00
    13    1.521277611257e+00
    14    1.603290119889e-01
    15    3.059199699002e-03
    16    6.122058469282e-03
    17   -7.292017363894e-03
    18    1.247120295634e-01
    19    7.033599459292e-03
    20   -1.240260031056e-01
    21    1.292557602171e+00
    22   -1.242439698595e-02
    23    1.860302118231e-01
    24    1.038611656559e-02
    25    1.811872810424e-03
    26    2.089431784896e-02
    27   -1.494018258582e-02
    28    4.583284389264e-01
    29    5.053134345938e-01
    30    5.166705477652e-02
    31   -1.413406284333e+00
    32   -1.536627372468e+00
    33   -1.580418028305e-01
    34   -5.591631340538e-03
    35    5.921156737775e-03
    36   -6.457375154775e-03
    37    1.169940770888e-01
    38   -4.249490989593e-04
    39   -1.165300941351e-01
    40    1.274348560553e+00
    41    1.175928795655e-02
    42   -1.810873461917e-01
    43   -1.020953262367e-02
    44    1.220946573252e-01
    45   -1.242435065974e+00
    46   -1.785414156829e-01
    47    7.707675069603e-03
    48   -7.979200837936e-03
Sym=X
Ene= 0.972090
Spin=Alpha
Occup=0
     1   -6.212398454477e-02
     2    8.925631244370e-01
     3   -8.622711691418e-02
     4   -9.771619209542e-02
     5   -9.884441873974e-03
     6    2.552398516969e-02
     7    2.384621646965e-01
     8    5.418090407973e-01
     9    4.721403710493e-01
    10   -4.602927299787e-01
    11   -4.772735766482e-03
    12   -1.459086201296e+00
    13    1.426564981942e+00
    14    1.501455060092e-02
    15   -5.429829477688e-02
    16   -1.268505655520e-02
    17   -9.553628820750e-03
    18    1.416517879404e-02
    19   -2.999540322384e-01
    20   -6.114850875707e-02
    21    9.172911017975e-01
    22    9.425868967823e-02
    23    9.347206538831e-02
    24    9.982718811745e-03
    25   -2.577025954258e-02
    26   -2.534669909869e-01
    27   -5.169954603208e-01
    28    4.912306143721e-01
    29   -4.474913729204e-01
    30   -3.466901172239e-03
    31   -1.523765684275e+00
    32    1.379286438662e+00
    33    1.013422869413e-02
    34    5.477912612640e-02
    35    1.285199145943e-02
    36    9.259584889501e-03
    37   -9.551243730079e-03
    38    3.001608269441e-01
    39    6.114343703960e-02
    40   -8.775919973689e-01
    41    9.395449696459e-02
    42    8.915350341707e-02
    43    9.788253390445e-03
    44    6.623471218825e-02
    45   -9.520407823397e-01
    46   -9.447537809898e-02
    47   -9.861199280587e-02
    48   -1.026041096940e-02
[5D]

======= END OF MOLDEN-FORMATTED INPUT FILE =======


        *************************************************************
        *                                                           *
        *  Thank you very much for using Q-Chem.  Have a nice day.  *
        *                                                           *
        *************************************************************


