                  Welcome to Q-Chem
     A Quantum Leap Into The Future Of Chemistry


 Q-Chem 5.4 (devel), Q-Chem, Inc., Pleasanton, CA (2021)

 E. Epifanovsky,  A. T. B. Gilbert,  Xintian Feng,  Joonho Lee,  Yuezhi Mao,  
 N. Mardirossian,  P. Pokhilko,  A. White,  M. Wormit,  M. P. Coons,  
 A. L. Dempwolff,  Zhengting Gan,  D. Hait,  P. R. Horn,  L. D. Jacobson,  
 I. Kaliman,  J. Kussmann,  A. W. Lange,  Ka Un Lao,  D. S. Levine,  Jie Liu,  
 S. C. McKenzie,  A. F. Morrison,  K. Nanda,  F. Plasser,  D. R. Rehn,  
 M. L. Vidal,  Zhi-Qiang You,  Ying Zhu,  B. Alam,  B. Albrecht,  
 A. Aldossary,  E. Alguire,  J. H. Andersen,  D. Barton,  K. Begam,  A. Behn,  
 Y. A. Bernard,  E. J. Berquist,  H. Burton,  A. Carreras,  K. Carter-Fenk,  
 R. Chakraborty,  A. D. Chien,  K. D. Closser,  V. Cofer-Shabica,  
 S. Dasgupta,  Jia Deng,  M. de Wergifosse,  M. Diedenhofen,  Hainam Do,  
 S. Ehlert,  Po-Tung Fang,  S. Fatehi,  Qingguo Feng,  T. Friedhoff,  
 J. Gayvert,  Qinghui Ge,  G. Gidofalvi,  M. Goldey,  J. Gomes,  
 C. Gonzalez-Espinoza,  S. Gulania,  A. Gunina,  M. W. D. Hanson-Heine,  
 P. H. P. Harbach,  A. W. Hauser,  M. F. Herbst,  M. Hernandez Vera,  
 M. Hodecker,  Z. C. Holden,  S. Houck,  Xunkun Huang,  Kerwin Hui,  
 B. C. Huynh,  M. Ivanov,  Hyunjun Ji,  Hanjie Jiang,  B. Kaduk,  S. Kaehler,  
 K. Khistyaev,  Jaehoon Kim,  P. Klunzinger,  Z. Koczor-Benda,  
 Joong Hoon Koh,  D. Kosenkov,  L. Koulias,  T. Kowalczyk,  C. M. Krauter,  
 K. Kue,  A. Kunitsa,  T. Kus,  A. Landau,  K. V. Lawler,  D. Lefrancois,  
 S. Lehtola,  Rain Li,  Yi-Pei Li,  Jiashu Liang,  M. Liebenthal,  
 Hung-Hsuan Lin,  You-Sheng Lin,  Fenglai Liu,  Kuan-Yu Liu,  
 M. Loipersberger,  A. Luenser,  A. Manjanath,  P. Manohar,  E. Mansoor,  
 S. F. Manzer,  Shan-Ping Mao,  A. V. Marenich,  T. Markovich,  S. Mason,  
 S. A. Maurer,  P. F. McLaughlin,  M. F. S. J. Menger,  J.-M. Mewes,  
 S. A. Mewes,  P. Morgante,  J. W. Mullinax,  K. J. Oosterbaan,  G. Paran,  
 Alexander C. Paul,  Suranjan K. Paul,  F. Pavosevic,  Zheng Pei,  S. Prager,  
 E. I. Proynov,  E. Ramos,  B. Rana,  A. E. Rask,  A. Rettig,  R. M. Richard,  
 F. Rob,  E. Rossomme,  T. Scheele,  M. Scheurer,  M. Schneider,  
 N. Sergueev,  S. M. Sharada,  W. Skomorowski,  D. W. Small,  C. J. Stein,  
 Yu-Chuan Su,  E. J. Sundstrom,  Zhen Tao,  J. Thirman,  T. Tsuchimochi,  
 N. M. Tubman,  S. P. Veccham,  O. Vydrov,  J. Wenzel,  J. Witte,  A. Yamada,  
 Kun Yao,  S. Yeganeh,  S. R. Yost,  A. Zech,  Igor Ying Zhang,  Xing Zhang,  
 Yu Zhang,  D. Zuev,  A. Aspuru-Guzik,  A. T. Bell,  N. A. Besley,  
 K. B. Bravaya,  B. R. Brooks,  D. Casanova,  Jeng-Da Chai,  S. Coriani,  
 C. J. Cramer,  A. E. DePrince, III,  R. A. DiStasio Jr.,  A. Dreuw,  
 B. D. Dunietz,  T. R. Furlani,  W. A. Goddard III,  S. Grimme,  
 S. Hammes-Schiffer,  T. Head-Gordon,  W. J. Hehre,  Chao-Ping Hsu,  
 T.-C. Jagau,  Yousung Jung,  A. Klamt,  Jing Kong,  D. S. Lambrecht,  
 WanZhen Liang,  N. J. Mayhall,  C. W. McCurdy,  J. B. Neaton,  
 C. Ochsenfeld,  J. A. Parkhill,  R. Peverati,  V. A. Rassolov,  Yihan Shao,  
 L. V. Slipchenko,  T. Stauch,  R. P. Steele,  J. E. Subotnik,  
 A. J. W. Thom,  A. Tkatchenko,  D. G. Truhlar,  T. Van Voorhis,  
 T. A. Wesolowski,  K. B. Whaley,  H. L. Woodcock III,  P. M. Zimmerman,  
 S. Faraji,  P. M. W. Gill,  M. Head-Gordon,  J. M. Herbert,  A. I. Krylov

 Additional authors for Version 5.4.1: 
 S. Kotaru,  Shaozhi Li,  Xiangyuan Li,  F. Matz,  A. Molle,  Haisheng Ren,  
 Yingli Su,  Hung-Yi Tsai,  C. Utku,  Fang Wang

 Contributors to earlier versions of Q-Chem not listed above: 
 R. D. Adamson,  B. Austin,  R. Baer,  J. Baker,  G. J. O. Beran,  
 K. Brandhorst,  S. T. Brown,  E. F. C. Byrd,  A. K. Chakraborty,  
 G. K. L. Chan,  Chun-Min Chang,  Yunqing Chen,  C.-L. Cheng,  
 Siu Hung Chien,  D. M. Chipman,  D. L. Crittenden,  H. Dachsel,  
 R. J. Doerksen,  A. D. Dutoi,  R. G. Edgar,  J. Fosso-Tande,  
 L. Fusti-Molnar,  D. Ghosh,  A. Ghysels,  A. Golubeva-Zadorozhnaya,  
 J. Gonthier,  M. S. Gordon,  S. R. Gwaltney,  G. Hawkins,  J. E. Herr,  
 A. Heyden,  S. Hirata,  E. G. Hohenstein,  G. Kedziora,  F. J. Keil,  
 C. Kelley,  Jihan Kim,  R. A. King,  R. Z. Khaliullin,  P. P. Korambath,  
 W. Kurlancheek,  A. Laurent,  A. M. Lee,  M. S. Lee,  S. V. Levchenko,  
 Ching Yeh Lin,  D. Liotard,  E. Livshits,  R. C. Lochan,  I. Lotan,  
 L. A. Martinez-Martinez,  P. E. Maslen,  N. Nair,  D. P. O'Neill,  
 D. Neuhauser,  E. Neuscamman,  C. M. Oana,  R. Olivares-Amaya,  R. Olson,  
 T. M. Perrine,  B. Peters,  P. A. Pieniazek,  A. Prociuk,  Y. M. Rhee,  
 J. Ritchie,  M. A. Rohrdanz,  E. Rosta,  N. J. Russ,  H. F. Schaefer III,  
 M. W. Schmidt,  N. E. Schultz,  S. Sharma,  N. Shenvi,  C. D. Sherrill,  
 A. C. Simmonett,  A. Sodt,  T. Stein,  D. Stuck,  K. S. Thanthiriwatte,  
 V. Vanovschi,  L. Vogt,  Tao Wang,  A. Warshel,  M. A. Watson,  
 C. F. Williams,  Q. Wu,  X. Xu,  Jun Yang,  W. Zhang,  Yan Zhao

 Please cite Q-Chem as follows:
 Y. Shao et al., Mol. Phys. 113, 184-215 (2015)
 DOI: 10.1080/00268976.2014.952696

 Q-Chem 5.4.1 for Intel X86 EM64T Linux

 Parts of Q-Chem use Armadillo 9.800.1 (Horizon Scraper).
 http://arma.sourceforge.net/

 Q-Chem begins on Thu Nov 17 00:23:29 2022  

 Host: cpu319.baobab
0

     Scratch files written to /scratch/fum/qchem52217//
 Processing $rem in /home/share/wesolowski/qc5.aug2021.FDE/config/preferences:
 Processing $rem in /home/fum/.qchemrc:

 Checking the input file for inconsistencies... 	...done.

--------------------------------------------------------------
User input:
--------------------------------------------------------------
$comment
generated from CCJob.Templates
$end

$rem
sym_ignore = true
method = adc(2)
ee_states = 10
basis = cc-pVDZ
mem_static = 1024
mem_total = 30000
adc_davidson_maxiter = 900
adc_davidson_conv = 6
adc_print = 3
adc_prop_es = true
adc_prop_es2es = true
adc_prop_tpa = true
molden_format = True
state_analysis = true
print_orbitals = 15
gen_scfman = false
fde_export_density = true
fde_details = 3
$end

$molecule
0 1
H -0.0348278765 -0.2442097827 0.0636489606
C -1.0765972949 -0.5242748755 -0.0023551776
H -1.313264467 -1.5767591607 -0.0807276926
C -2.043634118 0.3926884087 0.0061254933
H -1.8137616575 1.4459188338 0.0804456828
H -3.085977293 0.114931858 -0.0593381042                     
$end
--------------------------------------------------------------
 ----------------------------------------------------------------
             Standard Nuclear Orientation (Angstroms)
    I     Atom           X                Y                Z
 ----------------------------------------------------------------
    1      H      -0.0348278765    -0.2442097827     0.0636489606
    2      C      -1.0765972949    -0.5242748755    -0.0023551776
    3      H      -1.3132644670    -1.5767591607    -0.0807276926
    4      C      -2.0436341180     0.3926884087     0.0061254933
    5      H      -1.8137616575     1.4459188338     0.0804456828
    6      H      -3.0859772930     0.1149318580    -0.0593381042
 ----------------------------------------------------------------
 Nuclear Repulsion Energy =          33.42247757 hartrees
 There are        8 alpha and        8 beta electrons
 Requested basis set is cc-pVDZ
 There are 24 shells and 48 basis functions
 Total memory of 30000 MB is distributed as follows: 
   MEM_STATIC is set to 1024 MB
   QALLOC/CCMAN JOB total memory use is  28976 MB
 Warning: actual memory use might exceed 30000 MB

 Total QAlloc Memory Limit  30000 MB
 Mega-Array Size      1001 MB
 MEM_STATIC part      1024 MB

                       Distance Matrix (Angstroms)
             H (  1)   C (  2)   H (  3)   C (  4)   H (  5)
   C (  2)  1.080776
   H (  3)  1.852278  1.081608
   C (  4)  2.108139  1.332687  2.102310
   H (  5)  2.453859  2.105215  3.068070  1.080583
   H (  6)  3.074674  2.109370  2.450467  1.080700  1.846510

 A cutoff of  1.0D-11 yielded    300 shell pairs
 There are      1220 function pairs (      1329 Cartesian)
 Smallest overlap matrix eigenvalue = 4.80E-03

 Scale SEOQF with 1.000000e-01/1.000000e-01/1.000000e+00

 Standard Electronic Orientation quadrupole field applied
 Nucleus-field energy     =     0.0000000022 hartrees
 Guess from superposition of atomic densities
 Warning:  Energy on first SCF cycle will be non-variational
 SAD guess density has 16.000000 electrons
 A restricted Hartree-Fock SCF calculation will be
 performed using Pulay DIIS extrapolation
 SCF converges when DIIS error is below 1.0E-08
 using 8 threads for integral computing
 -------------------------------------------------------
 OpenMP Integral computing Module                
 Release: version 1.0, May 2013, Q-Chem Inc. Pittsburgh 
 -------------------------------------------------------
 ---------------------------------------
  Cycle       Energy         DIIS Error
 ---------------------------------------
    1     -78.4385856096      1.01E-01
    2     -78.0176891531      7.21E-03
    3     -78.0383203972      1.84E-03
    4     -78.0398033074      5.73E-04
    5     -78.0399249338      5.80E-05
    6     -78.0399268096      9.37E-06
    7     -78.0399268703      2.34E-06
    8     -78.0399268733      9.79E-07
    9     -78.0399268736      9.15E-08
   10     -78.0399268736      1.16E-08
   11     -78.0399268736      3.03E-09 Convergence criterion met
 ---------------------------------------
 SCF time:  CPU 1.69 s  wall 1.99 s
 SCF   energy in the final basis set = -78.03992687
 Total energy in the final basis set = -78.03992687
Exporting Density Matrix to file 'Densmat_SCF.txt'.
Export successful
================================================================================
|                                                                              |
|                                 A D C  M A N                                 |
|                                                                              |
 ------------------------------------------------------------------------------ 
|                                                                              |
| Components:                                                                  |
|                                                                              |
| - libvmm - 1.3-trunk                                                         |
|   Authors:                                                                   |
|   Evgeny Epifanovsky, Ilya Kaliman                                           |
|                                                                              |
| - libtensor - 2.5-trunk                                                      |
|   Authors:                                                                   |
|   Evgeny Epifanovsky, Michael Wormit, Dmitry Zuev, Sam Manzer,               |
|   Ilya Kaliman                                                               |
|                                                                              |
| - libwfa - 1.1-trunk                                                         |
|   Authors:                                                                   |
|   Felix Plasser, Stefanie Mewes (Baeppler), Benjamin Thomitzni,              |
|   Michael Wormit, Feng Chen, Anna I. Krylov, Pavel Pokhilko                  |
|                                                                              |
| - libadc - 1.1-trunk                                                         |
|   Authors:                                                                   |
|   Michael Wormit, Adrian L. Dempwolff, Philipp H. P. Harbach,                |
|   Caroline Krauter, Dirk Rehn, Matthias Schneider, Jan Wenzel                |
|                                                                              |
| - adcman - 2.6-trunk                                                         |
|   Authors:                                                                   |
|   Michael Wormit, Adrian L. Dempwolff, Philipp H. P. Harbach,                |
|   Caroline Krauter, Daniel Lefrancois, Jan-Michael Mewes, Dirk Rehn,         |
|   Matthias Schneider, Jan Wenzel, Andreas Dreuw                              |
|                                                                              |
| Authors of earlier versions of ADCMAN:                                       |
| Andreas Dreuw, Jan Hendrik Starcke, Dirk Rehn, Michael Wormit                |
|                                                                              |
================================================================================

 Created directory /scratch/fum/qchem52217/plots
  Import QC data ...  CPU 0.00 s  wall 0.00 s

 Alpha MOs, Restricted
 -- Occupied --                  
-11.235 -11.233  -1.032  -0.790  -0.641  -0.582  -0.505  -0.374
  1 A     2 A     3 A     4 A     5 A     6 A     7 A     8 A                  
 -- Virtual --                   
  0.168   0.204   0.233   0.239   0.303   0.462   0.577   0.615
  9 A    10 A    11 A    12 A    13 A    14 A    15 A    16 A                  
  0.689   0.709   0.784   0.808   0.862   0.936   0.972   1.010
 17 A    18 A    19 A    20 A    21 A    22 A    23 A    24 A                  
  1.130   1.235   1.254   1.266   1.293   1.601   1.726   1.750
 25 A    26 A    27 A    28 A    29 A    30 A    31 A    32 A                  
  1.819   1.859   1.867   1.921   1.977   1.978   2.221   2.257
 33 A    34 A    35 A    36 A    37 A    38 A    39 A    40 A                  
  2.376   2.454   2.506   2.633   2.721   2.822   3.140   3.399
 41 A    42 A    43 A    44 A    45 A    46 A    47 A    48 A                  

 Beta MOs, Restricted
 -- Occupied --                  
-11.235 -11.233  -1.032  -0.790  -0.641  -0.582  -0.505  -0.374
  1 A     2 A     3 A     4 A     5 A     6 A     7 A     8 A                  
 -- Virtual --                   
  0.168   0.204   0.233   0.239   0.303   0.462   0.577   0.615
  9 A    10 A    11 A    12 A    13 A    14 A    15 A    16 A                  
  0.689   0.709   0.784   0.808   0.862   0.936   0.972   1.010
 17 A    18 A    19 A    20 A    21 A    22 A    23 A    24 A                  
  1.130   1.235   1.254   1.266   1.293   1.601   1.726   1.750
 25 A    26 A    27 A    28 A    29 A    30 A    31 A    32 A                  
  1.819   1.859   1.867   1.921   1.977   1.978   2.221   2.257
 33 A    34 A    35 A    36 A    37 A    38 A    39 A    40 A                  
  2.376   2.454   2.506   2.633   2.721   2.822   3.140   3.399
 41 A    42 A    43 A    44 A    45 A    46 A    47 A    48 A                  
  Import AO data ...  CPU 0.00 s  wall 0.01 s
  Using point group: C1
  Irreducible representations in point group: A
  Molecular orbitals: 
  Occupied MOs:
  Block   0:   1 (  A) A   2 (  A) A   3 (  A) A   4 (  A) A   5 (  A) A
                  -11.24      -11.23      -1.032     -0.7897     -0.6411
               6 (  A) A   7 (  A) A   8 (  A) A
                 -0.5819     -0.5046      -0.374
  Block   1:   1 (  A) B   2 (  A) B   3 (  A) B   4 (  A) B   5 (  A) B
                  -11.24      -11.23      -1.032     -0.7897     -0.6411
               6 (  A) B   7 (  A) B   8 (  A) B
                 -0.5819     -0.5046      -0.374
  Virtual MOs:
  Block   0:   9 (  A) A  10 (  A) A  11 (  A) A  12 (  A) A  13 (  A) A
                  0.1684      0.2037      0.2329      0.2394      0.3033
              14 (  A) A  15 (  A) A  16 (  A) A  17 (  A) A  18 (  A) A
                   0.462      0.5775      0.6152      0.6891      0.7089
              19 (  A) A  20 (  A) A  21 (  A) A  22 (  A) A
                  0.7845       0.808      0.8622      0.9359
  Block   1:  23 (  A) A  24 (  A) A  25 (  A) A  26 (  A) A  27 (  A) A
                  0.9724        1.01        1.13       1.235       1.254
              28 (  A) A  29 (  A) A  30 (  A) A  31 (  A) A  32 (  A) A
                   1.266       1.293       1.601       1.726        1.75
              33 (  A) A  34 (  A) A  35 (  A) A  36 (  A) A
                   1.819       1.859       1.867       1.921
  Block   2:  37 (  A) A  38 (  A) A  39 (  A) A  40 (  A) A  41 (  A) A
                   1.977       1.978       2.221       2.257       2.376
              42 (  A) A  43 (  A) A  44 (  A) A  45 (  A) A  46 (  A) A
                   2.454       2.506       2.633       2.721       2.822
              47 (  A) A  48 (  A) A
                    3.14       3.399
  Block   3:   9 (  A) B  10 (  A) B  11 (  A) B  12 (  A) B  13 (  A) B
                  0.1684      0.2037      0.2329      0.2394      0.3033
              14 (  A) B  15 (  A) B  16 (  A) B  17 (  A) B  18 (  A) B
                   0.462      0.5775      0.6152      0.6891      0.7089
              19 (  A) B  20 (  A) B  21 (  A) B  22 (  A) B
                  0.7845       0.808      0.8622      0.9359
  Block   4:  23 (  A) B  24 (  A) B  25 (  A) B  26 (  A) B  27 (  A) B
                  0.9724        1.01        1.13       1.235       1.254
              28 (  A) B  29 (  A) B  30 (  A) B  31 (  A) B  32 (  A) B
                   1.266       1.293       1.601       1.726        1.75
              33 (  A) B  34 (  A) B  35 (  A) B  36 (  A) B
                   1.819       1.859       1.867       1.921
  Block   5:  37 (  A) B  38 (  A) B  39 (  A) B  40 (  A) B  41 (  A) B
                   1.977       1.978       2.221       2.257       2.376
              42 (  A) B  43 (  A) B  44 (  A) B  45 (  A) B  46 (  A) B
                   2.454       2.506       2.633       2.721       2.822
              47 (  A) B  48 (  A) B
                    3.14       3.399
  Import MO data ...  CPU 0.27 s  wall 0.07 s
  Import HF data ...  CPU 1.00 s  wall 0.27 s
  Import 2e integrals ...  CPU 3.53 s  wall 0.62 s

--------------------------------------------------------------------------------
                                   HF Summary                                   
--------------------------------------------------------------------------------
  Energy:                                                  -78.0399268736 a.u.
  Dip. moment [a.u.]:                  [  -0.000660,    0.000839,   -0.000901]
  Total dipole [Debye]:                                               0.003551
  <r^2> [a.u.]:                        [ 175.320370,   34.919667,   11.628545]
  Total <r^2> [a.u.]:                                               221.868582
--------------------------------------------------------------------------------
  HF properties ...  CPU 0.08 s  wall 0.03 s
  MP(1) calculation ...  CPU 0.01 s  wall 0.04 s
  N^6 prerequesite intermediates ...  CPU 0.53 s  wall 0.12 s
  Difference density matrix of state mp2_gs printed to ASCII file 'State_mp2_gs_Difference.txt'
Exporting MP density matrix to file 'Densmat_MP.txt'.
Export successful
  Total density matrix of state mp2_gs printed to ASCII file 'State_mp2_gs_Total.txt'
Exporting MP density matrix to file 'Densmat_MP.txt'.
Export successful

--------------------------------------------------------------------------------
                                 MP(2) Summary                                  
--------------------------------------------------------------------------------
  MP energy contribution:                                   -0.2797095536 a.u.
  Total energy:                                            -78.3196364272 a.u.
  Dip. moment [a.u.]:                  [  -0.000652,    0.000725,   -0.000895]
  Total dipole [Debye]:                                               0.003364
  <r^2> [a.u.]:                        [ 175.367043,   34.960170,   11.460397]
  Total <r^2> [a.u.]:                                               221.787610

  Density matrix analysis:
  ------------------------
  NOs
    Occupation of frontier NOs:
       0.0453   1.9383
    Number of electrons: 16.000000
    Number of unpaired electrons: n_u =  0.40345, n_u,nl =  0.04508
    NO participation ratio (PR_NO): 13.857842
  
  
  Mulliken Population Analysis
  Atom      Charge (e)              h+              e-           Del q
  --------------------------------------------------------------------
   1 H        0.050968        0.014030       -0.011203        0.002826
   2 C       -0.100908        0.093250       -0.098856       -0.005606
   3 H        0.050635        0.014068       -0.011193        0.002876
   4 C       -0.101384        0.092975       -0.098900       -0.005925
   5 H        0.050130        0.014122       -0.011184        0.002938
   6 H        0.050558        0.014083       -0.011192        0.002891
  --------------------------------------------------------------------
  Sum:       -0.000000        0.242528       -0.242528        0.000000
  
  Multipole moment analysis of the density matrix
    Molecular charge:                      -0.000000
    Number of electrons:                   16.000000
      Center of electronic charge [Ang]: [ -1.560555,  -0.065626,   0.001695]
    Total nuclear charge:                  16.000000
      Center of nuclear charge [Ang]:    [ -1.560576,  -0.065602,   0.001666]
    Dipole moment [D]:                     0.003364
      Cartesian components [D]:          [ -0.001656,   0.001843,  -0.002276]
    RMS size of the density [Ang]:         1.200849
      Cartesian components [Ang]:        [  0.796181,   0.779460,   0.447855]
  
  Exciton analysis of the difference density matrix
    <r_h> [Ang]:                  [ -1.560409,  -0.065959,   0.001829]
    <r_e> [Ang]:                  [ -1.560428,  -0.065710,   0.001817]
    |<r_e - r_h>| [Ang]:            0.000250
    Hole size [Ang]:                1.393737
      Cartesian components [Ang]: [  0.846651,   0.834215,   0.727853]
    Electron size [Ang]:            1.359773
      Cartesian components [Ang]: [  0.877865,   0.861808,   0.579329]
--------------------------------------------------------------------------------
  MP(2) calculation ...  CPU 0.20 s  wall 0.11 s
  Start ADC(2)-s ...  CPU 0.01 s  wall 0.00 s
  ADC(2) intermediates ...  CPU 0.02 s  wall 0.01 s
  Starting Davidson for singlet states of irrep A ... 
--------------------------------------------------------------------------------
   It NVec Conv  Avg. Norm  Max. Norm  Conv. states           Remark
--------------------------------------------------------------------------------
        10    0  1.330e-01  4.687e-01  0.4119 n n n n n n n n Guess.
    1   20    0  2.304e-02  1.109e-01  0.3263 n n n n n n n n 
    2   30    0  5.863e-03  2.553e-02  0.3215 n n n n n n n n 
    3   40    0  2.024e-03  1.341e-02  0.3211 n n n n n n n n 
    4   50    0  5.801e-04  3.956e-03  0.3211 n n n n n n n n 
    5   20    0  2.672e-04  1.877e-03  0.3211 n n n n n n n n Subspace collapsed.
    6   30    0  1.614e-04  1.360e-03  0.3211 n n n n n n n n 
    7   40    0  1.154e-04  8.556e-04  0.3211 n n n n n n n n 
    8   50    0  1.393e-04  1.340e-03  0.3211 n n n n n n n n 
    9   20    2  5.691e-05  5.386e-04  0.3211 n y n y n n n n Subspace collapsed.
   10   30    3  4.729e-05  4.384e-04  0.3211 n y y y n n n n 
   11   40    4  3.364e-05  3.260e-04  0.3211 n y y y y n n n 
   12   50    6  4.623e-05  4.596e-04  0.3211 y y y y y y n n 
   13   20    6  2.397e-05  2.383e-04  0.3211 y y y y y y n n Subspace collapsed.
   14   30    6  2.849e-05  2.835e-04  0.3211 y y y y y y n n 
   15   40    6  2.358e-05  2.350e-04  0.3211 y y y y y y n n 
   16   50    6  3.149e-05  3.145e-04  0.3211 y y y y y y n n 
   17   20    6  1.408e-05  1.406e-04  0.3211 y y y y y y n n Subspace collapsed.
   18   30    6  1.427e-05  1.425e-04  0.3211 y y y y y y n n 
   19   40    6  9.356e-06  9.348e-05  0.3211 y y y y y y n n 
   20   50    7  1.431e-05  1.430e-04  0.3211 y y y y y y y n 
   21   20    8  5.971e-06  5.969e-05  0.3211 y y y y y y y y Subspace collapsed.
   22   30    8  7.884e-06  7.881e-05  0.3211 y y y y y y y y 
   23   32    8  7.284e-06  7.282e-05  0.3211 y y y y y y y y 
   24   33    8  6.665e-06  6.663e-05  0.3211 y y y y y y y y 
   25   42    8  6.747e-06  6.746e-05  0.3211 y y y y y y y y 
   26   50    8  7.760e-06  7.759e-05  0.3211 y y y y y y y y 
   27   16    9  4.255e-06  4.254e-05  0.3211 y y y y y y y y Subspace collapsed.
   28   22    9  2.969e-06  2.969e-05  0.3211 y y y y y y y y 
   29   28    9  2.603e-06  2.603e-05  0.3211 y y y y y y y y 
   30   33    9  2.921e-06  2.921e-05  0.3211 y y y y y y y y 
   31   33    9  2.921e-06  2.921e-05  0.3211 y y y y y y y y 
   32   43    9  3.042e-06  3.042e-05  0.3211 y y y y y y y y 
   33   47    9  2.085e-06  2.085e-05  0.3211 y y y y y y y y 
   34   50    9  9.294e-07  9.294e-06  0.3211 y y y y y y y y 
   35   14    9  5.279e-07  5.279e-06  0.3211 y y y y y y y y Subspace collapsed.
   36   18    9  4.053e-07  4.053e-06  0.3211 y y y y y y y y 
   37   22    9  3.143e-07  3.143e-06  0.3211 y y y y y y y y 
   38   26    9  1.592e-07  1.592e-06  0.3211 y y y y y y y y 
   39   30    9  1.127e-07  1.127e-06  0.3211 y y y y y y y y 
   40   34   10  8.084e-08  8.084e-07  0.3211 y y y y y y y y Converged.
--------------------------------------------------------------------------------
  Davidson Summary: 
 ------------------------------------------------------------
  State  0: excitation energy =   0.3211 a.u.   (converged)
  State  1: excitation energy =   0.3327 a.u.   (converged)
  State  2: excitation energy =   0.3370 a.u.   (converged)
  State  3: excitation energy =   0.3613 a.u.   (converged)
  State  4: excitation energy =   0.3753 a.u.   (converged)
  State  5: excitation energy =   0.3872 a.u.   (converged)
  State  6: excitation energy =   0.4247 a.u.   (converged)
  State  7: excitation energy =   0.4471 a.u.   (converged)
  State  8: excitation energy =   0.4563 a.u.   (converged)
  State  9: excitation energy =   0.4647 a.u.   (converged)
 ------------------------------------------------------------

  Singlet states of irrep A ...  CPU 111.83 s  wall 34.16 s
  TDMs ...  CPU 2.11 s  wall 0.58 s
  SDMs ...  CPU 4.16 s  wall 0.96 s
  Starting TPA DIIS iterations ... 
------------------------------------ 
   It     Res. Norm  Remark
------------------------------------
                       Guess.
    1     4.405e+00  
    2     5.841e+00  
    3     1.077e+00  
    4     2.567e-01  
    5     6.575e-02  
    6     2.674e-02  
    7     8.239e-03  
    8     1.440e-03  
    9     5.340e-04  
   10     9.034e-05  
   11     2.829e-05  
   12     4.686e-06  
   13     1.609e-06  
   14     6.682e-07  Converged.
   ... Converged in 14 steps (norm: 6.68246e-07)
------------------------------------
  Starting TPA DIIS iterations ... 
------------------------------------ 
   It     Res. Norm  Remark
------------------------------------
                       Guess.
    1     4.184e+00  
    2     5.541e+00  
    3     1.029e+00  
    4     2.556e-01  
    5     6.535e-02  
    6     2.673e-02  
    7     8.116e-03  
    8     1.456e-03  
    9     5.377e-04  
   10     9.045e-05  
   11     2.852e-05  
   12     4.712e-06  
   13     1.559e-06  
   14     6.805e-07  Converged.
   ... Converged in 14 steps (norm: 6.80528e-07)
------------------------------------
  Starting TPA DIIS iterations ... 
------------------------------------ 
   It     Res. Norm  Remark
------------------------------------
                       Guess.
    1     6.877e-01  
    2     4.823e-01  
    3     1.702e-01  
    4     5.382e-02  
    5     1.836e-02  
    6     6.815e-03  
    7     1.039e-03  
    8     4.482e-04  
    9     1.237e-04  
   10     2.984e-05  
   11     5.014e-06  
   12     1.524e-06  
   13     7.357e-07  Converged.
   ... Converged in 13 steps (norm: 7.35739e-07)
------------------------------------
  Starting TPA DIIS iterations ... 
------------------------------------ 
   It     Res. Norm  Remark
------------------------------------
                       Guess.
    1     4.693e+00  
    2     6.356e+00  
    3     1.158e+00  
    4     2.852e-01  
    5     7.407e-02  
    6     3.038e-02  
    7     9.344e-03  
    8     1.630e-03  
    9     6.091e-04  
   10     1.037e-04  
   11     3.279e-05  
   12     5.527e-06  
   13     1.924e-06  
   14     8.252e-07  Converged.
   ... Converged in 14 steps (norm: 8.2517e-07)
------------------------------------
  Starting TPA DIIS iterations ... 
------------------------------------ 
   It     Res. Norm  Remark
------------------------------------
                       Guess.
    1     4.456e+00  
    2     6.030e+00  
    3     1.107e+00  
    4     2.838e-01  
    5     7.363e-02  
    6     3.040e-02  
    7     9.207e-03  
    8     1.650e-03  
    9     6.135e-04  
   10     1.038e-04  
   11     3.306e-05  
   12     5.567e-06  
   13     1.856e-06  
   14     8.456e-07  Converged.
   ... Converged in 14 steps (norm: 8.45601e-07)
------------------------------------
  Starting TPA DIIS iterations ... 
------------------------------------ 
   It     Res. Norm  Remark
------------------------------------
                       Guess.
    1     6.997e-01  
    2     4.996e-01  
    3     1.800e-01  
    4     6.066e-02  
    5     1.986e-02  
    6     7.426e-03  
    7     1.173e-03  
    8     5.282e-04  
    9     1.495e-04  
   10     3.424e-05  
   11     5.671e-06  
   12     1.794e-06  
   13     9.228e-07  Converged.
   ... Converged in 13 steps (norm: 9.22834e-07)
------------------------------------
  Starting TPA DIIS iterations ... 
------------------------------------ 
   It     Res. Norm  Remark
------------------------------------
                       Guess.
    1     4.806e+00  
    2     6.562e+00  
    3     1.190e+00  
    4     2.968e-01  
    5     7.744e-02  
    6     3.187e-02  
    7     9.791e-03  
    8     1.707e-03  
    9     6.397e-04  
   10     1.091e-04  
   11     3.465e-05  
   12     5.878e-06  
   13     2.058e-06  
   14     8.932e-07  Converged.
   ... Converged in 14 steps (norm: 8.93241e-07)
------------------------------------
  Starting TPA DIIS iterations ... 
------------------------------------ 
   It     Res. Norm  Remark
------------------------------------
                       Guess.
    1     4.563e+00  
    2     6.224e+00  
    3     1.137e+00  
    4     2.952e-01  
    5     7.699e-02  
    6     3.189e-02  
    7     9.650e-03  
    8     1.728e-03  
    9     6.444e-04  
   10     1.093e-04  
   11     3.492e-05  
   12     5.925e-06  
   13     1.981e-06  
   14     9.177e-07  Converged.
   ... Converged in 14 steps (norm: 9.17701e-07)
------------------------------------
  Starting TPA DIIS iterations ... 
------------------------------------ 
   It     Res. Norm  Remark
------------------------------------
                       Guess.
    1     7.042e-01  
    2     5.063e-01  
    3     1.838e-01  
    4     6.348e-02  
    5     2.044e-02  
    6     7.673e-03  
    7     1.228e-03  
    8     5.617e-04  
    9     1.603e-04  
   10     3.570e-05  
   11     5.931e-06  
   12     1.907e-06  
   13     1.005e-06  
   14     3.814e-07  Converged.
   ... Converged in 14 steps (norm: 3.81398e-07)
------------------------------------
  Starting TPA DIIS iterations ... 
------------------------------------ 
   It     Res. Norm  Remark
------------------------------------
                       Guess.
    1     5.545e+00  
    2     7.941e+00  
    3     1.397e+00  
    4     3.768e-01  
    5     1.008e-01  
    6     4.223e-02  
    7     1.290e-02  
    8     2.239e-03  
    9     8.535e-04  
   10     1.473e-04  
   11     4.792e-05  
   12     8.462e-06  
   13     3.066e-06  
   14     1.436e-06  
   15     4.547e-07  Converged.
   ... Converged in 15 steps (norm: 4.54718e-07)
------------------------------------
  Starting TPA DIIS iterations ... 
------------------------------------ 
   It     Res. Norm  Remark
------------------------------------
                       Guess.
    1     5.264e+00  
    2     7.532e+00  
    3     1.334e+00  
    4     3.742e-01  
    5     1.002e-01  
    6     4.233e-02  
    7     1.272e-02  
    8     2.271e-03  
    9     8.600e-04  
   10     1.476e-04  
   11     4.825e-05  
   12     8.576e-06  
   13     2.923e-06  
   14     1.501e-06  
   15     4.320e-07  Converged.
   ... Converged in 15 steps (norm: 4.32001e-07)
------------------------------------
  Starting TPA DIIS iterations ... 
------------------------------------ 
   It     Res. Norm  Remark
------------------------------------
                       Guess.
    1     7.310e-01  
    2     5.473e-01  
    3     2.081e-01  
    4     8.376e-02  
    5     2.408e-02  
    6     9.386e-03  
    7     1.627e-03  
    8     7.999e-04  
    9     2.357e-04  
   10     4.153e-05  
   11     7.689e-06  
   12     2.743e-06  
   13     1.678e-06  
   14     5.745e-07  Converged.
   ... Converged in 14 steps (norm: 5.74504e-07)
------------------------------------
  Starting TPA DIIS iterations ... 
------------------------------------ 
   It     Res. Norm  Remark
------------------------------------
                       Guess.
    1     6.056e+00  
    2     8.927e+00  
    3     1.539e+00  
    4     4.362e-01  
    5     1.181e-01  
    6     5.002e-02  
    7     1.520e-02  
    8     2.633e-03  
    9     1.014e-03  
   10     1.760e-04  
   11     5.812e-05  
   12     1.053e-05  
   13     3.901e-06  
   14     1.919e-06  
   15     5.866e-07  Converged.
   ... Converged in 15 steps (norm: 5.86615e-07)
------------------------------------
  Starting TPA DIIS iterations ... 
------------------------------------ 
   It     Res. Norm  Remark
------------------------------------
                       Guess.
    1     5.747e+00  
    2     8.466e+00  
    3     1.470e+00  
    4     4.327e-01  
    5     1.175e-01  
    6     5.019e-02  
    7     1.500e-02  
    8     2.672e-03  
    9     1.022e-03  
   10     1.765e-04  
   11     5.850e-05  
   12     1.072e-05  
   13     3.702e-06  
   14     2.032e-06  
   15     5.870e-07  Converged.
   ... Converged in 15 steps (norm: 5.86977e-07)
------------------------------------
  Starting TPA DIIS iterations ... 
------------------------------------ 
   It     Res. Norm  Remark
------------------------------------
                       Guess.
    1     7.472e-01  
    2     5.737e-01  
    3     2.243e-01  
    4     9.951e-02  
    5     2.656e-02  
    6     1.067e-02  
    7     1.940e-03  
    8     9.724e-04  
    9     2.893e-04  
   10     4.288e-05  
   11     8.987e-06  
   12     3.414e-06  
   13     2.281e-06  
   14     7.306e-07  Converged.
   ... Converged in 14 steps (norm: 7.30559e-07)
------------------------------------
  Starting TPA DIIS iterations ... 
------------------------------------ 
   It     Res. Norm  Remark
------------------------------------
                       Guess.
    1     6.556e+00  
    2     9.916e+00  
    3     1.678e+00  
    4     4.974e-01  
    5     1.359e-01  
    6     5.810e-02  
    7     1.757e-02  
    8     3.036e-03  
    9     1.180e-03  
   10     2.058e-04  
   11     6.885e-05  
   12     1.279e-05  
   13     4.827e-06  
   14     2.487e-06  
   15     7.302e-07  Converged.
   ... Converged in 15 steps (norm: 7.30215e-07)
------------------------------------
  Starting TPA DIIS iterations ... 
------------------------------------ 
   It     Res. Norm  Remark
------------------------------------
                       Guess.
    1     6.221e+00  
    2     9.404e+00  
    3     1.601e+00  
    4     4.928e-01  
    5     1.352e-01  
    6     5.835e-02  
    7     1.734e-02  
    8     3.084e-03  
    9     1.189e-03  
   10     2.065e-04  
   11     6.926e-05  
   12     1.309e-05  
   13     4.567e-06  
   14     2.668e-06  
   15     7.790e-07  Converged.
   ... Converged in 15 steps (norm: 7.79026e-07)
------------------------------------
  Starting TPA DIIS iterations ... 
------------------------------------ 
   It     Res. Norm  Remark
------------------------------------
                       Guess.
    1     7.617e-01  
    2     5.982e-01  
    3     2.397e-01  
    4     1.162e-01  
    5     2.903e-02  
    6     1.199e-02  
    7     2.274e-03  
    8     1.137e-03  
    9     3.408e-04  
   10     4.345e-05  
   11     1.035e-05  
   12     4.140e-06  
   13     2.979e-06  
   14     9.012e-07  Converged.
   ... Converged in 14 steps (norm: 9.012e-07)
------------------------------------
  Starting TPA DIIS iterations ... 
------------------------------------ 
   It     Res. Norm  Remark
------------------------------------
                       Guess.
    1     8.661e+00  
    2     1.432e+01  
    3     2.250e+00  
    4     7.822e-01  
    5     2.190e-01  
    6     9.657e-02  
    7     2.863e-02  
    8     4.908e-03  
    9     1.969e-03  
   10     3.476e-04  
   11     1.200e-04  
   12     2.486e-05  
   13     9.863e-06  
   14     6.121e-06  
   15     1.498e-06  
   16     1.193e-06  
   17     2.460e-07  Converged.
   ... Converged in 17 steps (norm: 2.45959e-07)
------------------------------------
  Starting TPA DIIS iterations ... 
------------------------------------ 
   It     Res. Norm  Remark
------------------------------------
                       Guess.
    1     8.215e+00  
    2     1.358e+01  
    3     2.146e+00  
    4     7.722e-01  
    5     2.181e-01  
    6     9.725e-02  
    7     2.828e-02  
    8     4.996e-03  
    9     1.984e-03  
   10     3.493e-04  
   11     1.208e-04  
   12     2.606e-05  
   13     9.429e-06  
   14     6.878e-06  
   15     2.218e-06  
   16     1.629e-06  
   17     3.848e-07  Converged.
   ... Converged in 17 steps (norm: 3.84842e-07)
------------------------------------
  Starting TPA DIIS iterations ... 
------------------------------------ 
   It     Res. Norm  Remark
------------------------------------
                       Guess.
    1     8.114e-01  
    2     6.905e-01  
    3     3.006e-01  
    4     1.981e-01  
    5     4.018e-02  
    6     1.816e-02  
    7     3.946e-03  
    8     1.661e-03  
    9     5.393e-04  
   10     5.211e-05  
   11     1.710e-05  
   12     7.864e-06  
   13     6.972e-06  
   14     1.823e-06  
   15     6.375e-07  Converged.
   ... Converged in 15 steps (norm: 6.37501e-07)
------------------------------------
  Starting TPA DIIS iterations ... 
------------------------------------ 
   It     Res. Norm  Remark
------------------------------------
                       Guess.
    1     1.049e+01  
    2     1.842e+01  
    3     2.734e+00  
    4     1.057e+00  
    5     2.998e-01  
    6     1.349e-01  
    7     3.940e-02  
    8     6.718e-03  
    9     2.751e-03  
   10     4.881e-04  
   11     1.694e-04  
   12     3.900e-05  
   13     1.569e-05  
   14     1.125e-05  
   15     2.513e-06  
   16     2.335e-06  
   17     4.498e-07  Converged.
   ... Converged in 17 steps (norm: 4.49842e-07)
------------------------------------
  Starting TPA DIIS iterations ... 
------------------------------------ 
   It     Res. Norm  Remark
------------------------------------
                       Guess.
    1     9.943e+00  
    2     1.747e+01  
    3     2.606e+00  
    4     1.041e+00  
    5     2.988e-01  
    6     1.361e-01  
    7     3.893e-02  
    8     6.847e-03  
    9     2.773e-03  
   10     4.912e-04  
   11     1.710e-04  
   12     4.178e-05  
   13     1.571e-05  
   14     1.294e-05  
   15     4.573e-06  
   16     3.077e-06  
   17     7.731e-07  Converged.
   ... Converged in 17 steps (norm: 7.73097e-07)
------------------------------------
  Starting TPA DIIS iterations ... 
------------------------------------ 
   It     Res. Norm  Remark
------------------------------------
                       Guess.
    1     8.445e-01  
    2     7.600e-01  
    3     3.492e-01  
    4     2.780e-01  
    5     5.080e-02  
    6     2.385e-02  
    7     5.637e-03  
    8     1.880e-03  
    9     6.919e-04  
   10     6.991e-05  
   11     2.418e-05  
   12     1.180e-05  
   13     1.161e-05  
   14     2.908e-06  
   15     1.101e-06  
   16     8.293e-07  Converged.
   ... Converged in 16 steps (norm: 8.29318e-07)
------------------------------------
  Starting TPA DIIS iterations ... 
------------------------------------ 
   It     Res. Norm  Remark
------------------------------------
                       Guess.
    1     1.142e+01  
    2     2.062e+01  
    3     2.978e+00  
    4     1.206e+00  
    5     3.441e-01  
    6     1.561e-01  
    7     4.529e-02  
    8     7.705e-03  
    9     3.183e-03  
   10     5.657e-04  
   11     1.961e-04  
   12     4.774e-05  
   13     1.930e-05  
   14     1.471e-05  
   15     3.255e-06  
   16     3.147e-06  
   17     5.805e-07  Converged.
   ... Converged in 17 steps (norm: 5.80464e-07)
------------------------------------
  Starting TPA DIIS iterations ... 
------------------------------------ 
   It     Res. Norm  Remark
------------------------------------
                       Guess.
    1     1.083e+01  
    2     1.955e+01  
    3     2.838e+00  
    4     1.186e+00  
    5     3.430e-01  
    6     1.576e-01  
    7     4.475e-02  
    8     7.857e-03  
    9     3.210e-03  
   10     5.697e-04  
   11     1.984e-04  
   12     5.166e-05  
   13     2.001e-05  
   14     1.701e-05  
   15     6.236e-06  
   16     4.015e-06  
   17     1.015e-06  
   18     4.083e-07  Converged.
   ... Converged in 18 steps (norm: 4.08284e-07)
------------------------------------
  Starting TPA DIIS iterations ... 
------------------------------------ 
   It     Res. Norm  Remark
------------------------------------
                       Guess.
    1     8.592e-01  
    2     7.930e-01  
    3     3.730e-01  
    4     3.198e-01  
    5     5.651e-02  
    6     2.673e-02  
    7     6.559e-03  
    8     1.939e-03  
    9     7.661e-04  
   10     8.074e-05  
   11     2.823e-05  
   12     1.406e-05  
   13     1.438e-05  
   14     3.584e-06  
   15     1.457e-06  
   16     1.089e-06  
   17     5.603e-07  Converged.
   ... Converged in 17 steps (norm: 5.60315e-07)
------------------------------------
  Starting TPA DIIS iterations ... 
------------------------------------ 
   It     Res. Norm  Remark
------------------------------------
                       Guess.
    1     1.239e+01  
    2     2.295e+01  
    3     3.227e+00  
    4     1.364e+00  
    5     3.915e-01  
    6     1.791e-01  
    7     5.159e-02  
    8     8.761e-03  
    9     3.650e-03  
   10     6.492e-04  
   11     2.245e-04  
   12     5.788e-05  
   13     2.356e-05  
   14     1.891e-05  
   15     4.230e-06  
   16     4.181e-06  
   17     7.288e-07  Converged.
   ... Converged in 17 steps (norm: 7.28791e-07)
------------------------------------
  Starting TPA DIIS iterations ... 
------------------------------------ 
   It     Res. Norm  Remark
------------------------------------
                       Guess.
    1     1.175e+01  
    2     2.176e+01  
    3     3.075e+00  
    4     1.339e+00  
    5     3.903e-01  
    6     1.809e-01  
    7     5.099e-02  
    8     8.938e-03  
    9     3.681e-03  
   10     6.544e-04  
   11     2.279e-04  
   12     6.322e-05  
   13     2.539e-05  
   14     2.188e-05  
   15     8.265e-06  
   16     5.129e-06  
   17     1.281e-06  
   18     4.904e-07  Converged.
   ... Converged in 18 steps (norm: 4.90422e-07)
------------------------------------
  Starting TPA DIIS iterations ... 
------------------------------------ 
   It     Res. Norm  Remark
------------------------------------
                       Guess.
    1     8.730e-01  
    2     8.256e-01  
    3     3.967e-01  
    4     3.624e-01  
    5     6.254e-02  
    6     2.961e-02  
    7     7.533e-03  
    8     1.983e-03  
    9     8.406e-04  
   10     9.240e-05  
   11     3.272e-05  
   12     1.661e-05  
   13     1.753e-05  
   14     4.376e-06  
   15     1.932e-06  
   16     1.397e-06  
   17     7.570e-07  Converged.
   ... Converged in 17 steps (norm: 7.57042e-07)
------------------------------------
  Two-photon absorbption ...  CPU 120.19 s  wall 27.19 s
  Transition density matrix of state singlet_A_1 printed to ASCII file 'State_singlet_A_1_Transition.txt'
  Transition density matrix of state singlet_A_2 printed to ASCII file 'State_singlet_A_2_Transition.txt'
  Transition density matrix of state singlet_A_3 printed to ASCII file 'State_singlet_A_3_Transition.txt'
  Transition density matrix of state singlet_A_4 printed to ASCII file 'State_singlet_A_4_Transition.txt'
  Transition density matrix of state singlet_A_5 printed to ASCII file 'State_singlet_A_5_Transition.txt'
  Transition density matrix of state singlet_A_6 printed to ASCII file 'State_singlet_A_6_Transition.txt'
  Transition density matrix of state singlet_A_7 printed to ASCII file 'State_singlet_A_7_Transition.txt'
  Transition density matrix of state singlet_A_8 printed to ASCII file 'State_singlet_A_8_Transition.txt'
  Transition density matrix of state singlet_A_9 printed to ASCII file 'State_singlet_A_9_Transition.txt'
  Transition density matrix of state singlet_A_10 printed to ASCII file 'State_singlet_A_10_Transition.txt'
  Transition properties ...  CPU 0.13 s  wall 0.27 s
  Difference density matrix of state singlet_A_1 printed to ASCII file 'State_singlet_A_1_Difference.txt'
  Total density matrix of state singlet_A_1 printed to ASCII file 'State_singlet_A_1_Total.txt'
  Difference density matrix of state singlet_A_2 printed to ASCII file 'State_singlet_A_2_Difference.txt'
  Total density matrix of state singlet_A_2 printed to ASCII file 'State_singlet_A_2_Total.txt'
  Difference density matrix of state singlet_A_3 printed to ASCII file 'State_singlet_A_3_Difference.txt'
  Total density matrix of state singlet_A_3 printed to ASCII file 'State_singlet_A_3_Total.txt'
  Difference density matrix of state singlet_A_4 printed to ASCII file 'State_singlet_A_4_Difference.txt'
  Total density matrix of state singlet_A_4 printed to ASCII file 'State_singlet_A_4_Total.txt'
  Difference density matrix of state singlet_A_5 printed to ASCII file 'State_singlet_A_5_Difference.txt'
  Total density matrix of state singlet_A_5 printed to ASCII file 'State_singlet_A_5_Total.txt'
  Difference density matrix of state singlet_A_6 printed to ASCII file 'State_singlet_A_6_Difference.txt'
  Total density matrix of state singlet_A_6 printed to ASCII file 'State_singlet_A_6_Total.txt'
  Difference density matrix of state singlet_A_7 printed to ASCII file 'State_singlet_A_7_Difference.txt'
  Total density matrix of state singlet_A_7 printed to ASCII file 'State_singlet_A_7_Total.txt'
  Difference density matrix of state singlet_A_8 printed to ASCII file 'State_singlet_A_8_Difference.txt'
  Total density matrix of state singlet_A_8 printed to ASCII file 'State_singlet_A_8_Total.txt'
  Difference density matrix of state singlet_A_9 printed to ASCII file 'State_singlet_A_9_Difference.txt'
  Total density matrix of state singlet_A_9 printed to ASCII file 'State_singlet_A_9_Total.txt'
  Difference density matrix of state singlet_A_10 printed to ASCII file 'State_singlet_A_10_Difference.txt'
  Total density matrix of state singlet_A_10 printed to ASCII file 'State_singlet_A_10_Total.txt'
  Properties ...  CPU 0.23 s  wall 0.53 s
  ISR TDMS ...  CPU 24.07 s  wall 5.74 s
  ISR transition properties ...  CPU 0.49 s  wall 0.14 s
  Sum-over-states TPA ...  CPU 0.00 s  wall 0.00 s

--------------------------------------------------------------------------------
                   State-averaged natural transition orbitals
--------------------------------------------------------------------------------
--------------------------------------------------------------------------------
  SA-NTO decomposition ...  CPU 0.01 s  wall 0.02 s

--------------------------------------------------------------------------------
                             Excited State Summary
--------------------------------------------------------------------------------
--------------------------------------------------------------------------------

  Excited state 1 (singlet, A)                                     [converged]
  ----------------------------------------------------------------------------
  Term symbol:  2 (1) A                                     R^2 =  2.18233e-13

  Total energy:                                            -77.9985556426 a.u.
  Excitation energy:                                               8.737052 eV

  Osc. strength:                                                      0.445520
  Trans. dip. moment [a.u.]:           [   1.045395,   -0.994190,   -0.009004]
  <i|r^2|0> [a.u.]:                    [   6.164172,   -0.250215,    0.002682]
  Two-photon absorption cross-section (SoS) [a.u.]:                   0.000520
  Two-photon absorption matrix (SoS) [a.u.]:
                                       |    0.005338   -0.002156    0.000644 |
                                       |   -0.002156    0.001165   -0.000811 |
                                       |    0.000644   -0.000811    0.004889 |
  Two-photon absorption cross-section [a.u.]:                         0.001403
  Two-photon absorption matrix [a.u.]:
                                       |    0.000843   -0.002097   -0.006766 |
                                       |   -0.002097   -0.004989   -0.010453 |
                                       |   -0.006766   -0.010453    0.001956 |

  Dip. moment [a.u.]:                  [  -0.000554,    0.000563,   -0.001125]
  Total dipole [Debye]:                                               0.003494
  <r^2> [a.u.]:                        [ 176.121132,   35.649620,   11.870606]
  Total <r^2> [a.u.]:                                               223.641358

  V1^2 = 0.9715, V2^2 = 0.0285

  Important amplitudes:
      occ i     occ j     vir a      vir b          v   
    -----------------------------------------------------
     8 (A) A              9 (A) A                 0.6810
     6 (A) A             14 (A) A                -0.0623
     4 (A) A             10 (A) A                -0.0607
     7 (A) A             16 (A) A                 0.0569
     5 (A) A             13 (A) A                -0.0513
     6 (A) A             23 (A) A                -0.0486
     8 (A) A             20 (A) A                 0.0350
     6 (A) A             19 (A) A                -0.0309
     3 (A) A             12 (A) A                 0.0281
     5 (A) A             22 (A) A                 0.0215
     7 (A) A             11 (A) A                 0.0209
     4 (A) A             24 (A) A                -0.0187
     3 (A) A             26 (A) A                -0.0185
     8 (A) A   8 (A) B   17 (A) A   20 (A) B     -0.0184
     8 (A) A   8 (A) B    9 (A) A   28 (A) B     -0.0168
     6 (A) A             26 (A) A                -0.0163
     7 (A) A             21 (A) A                 0.0148
     3 (A) A             14 (A) A                -0.0139
     6 (A) A             12 (A) A                -0.0132
     3 (A) A   4 (A) B    9 (A) A    9 (A) B      0.0129
     3 (A) A             19 (A) A                -0.0119
     8 (A) A   8 (A) B   18 (A) A   19 (A) B      0.0113
     7 (A) A              9 (A) A                 0.0099
     7 (A) A             32 (A) A                 0.0096
     7 (A) A             36 (A) A                 0.0086
     3 (A) A             23 (A) A                -0.0080
     8 (A) A   8 (A) B   25 (A) A   29 (A) B      0.0076
     6 (A) A             35 (A) A                -0.0072
     6 (A) A             40 (A) A                -0.0068
     3 (A) A   6 (A) B    9 (A) A   28 (A) B     -0.0065
     6 (A) A   8 (A) A   19 (A) A   28 (A) A     -0.0061
     5 (A) A   7 (A) B    9 (A) A    9 (A) B     -0.0060
     5 (A) A   8 (A) B   11 (A) A   20 (A) B     -0.0059
     7 (A) A   8 (A) B   13 (A) A   20 (A) B      0.0059
     5 (A) A   8 (A) B   16 (A) A    9 (A) B     -0.0059
     5 (A) A   8 (A) B   11 (A) A    9 (A) B      0.0059
     3 (A) A   5 (A) B    9 (A) A   25 (A) B     -0.0058
     3 (A) A             40 (A) A                -0.0057
     7 (A) A   8 (A) B   22 (A) A   20 (A) B     -0.0057
     6 (A) A   8 (A) A    9 (A) A   18 (A) A     -0.0057
    -----------------------------------------------------

  Density matrix analysis:
  ------------------------
  NOs
    Occupation of frontier NOs:
       0.9495   1.0217
    Number of electrons: 16.000000
    Number of unpaired electrons: n_u =  2.31342, n_u,nl =  2.03264
    NO participation ratio (PR_NO):  2.863967
  
  
  Mulliken Population Analysis
  Atom      Charge (e)              h+              e-           Del q
  --------------------------------------------------------------------
   1 H        0.058739        0.020312       -0.012542        0.007771
   2 C       -0.116177        0.490830       -0.506100       -0.015269
   3 H        0.058235        0.020198       -0.012598        0.007600
   4 C       -0.116993        0.490662       -0.506271       -0.015609
   5 H        0.057810        0.020236       -0.012556        0.007680
   6 H        0.058386        0.020343       -0.012515        0.007828
  --------------------------------------------------------------------
  Sum:       -0.000000        1.062582       -1.062582        0.000000
  
  Multipole moment analysis of the density matrix
    Molecular charge:                      -0.000000
    Number of electrons:                   16.000000
      Center of electronic charge [Ang]: [ -1.560558,  -0.065621,   0.001703]
    Total nuclear charge:                  16.000000
      Center of nuclear charge [Ang]:    [ -1.560576,  -0.065602,   0.001666]
    Dipole moment [D]:                     0.003494
      Cartesian components [D]:          [ -0.001407,   0.001432,  -0.002860]
    RMS size of the density [Ang]:         1.214279
      Cartesian components [Ang]:        [  0.804421,   0.787163,   0.455800]
  
  Exciton analysis of the difference density matrix
    <r_h> [Ang]:                  [ -1.560241,  -0.065815,   0.002161]
    <r_e> [Ang]:                  [ -1.560290,  -0.065734,   0.002276]
    |<r_e - r_h>| [Ang]:            0.000148
    Hole size [Ang]:                1.285501
      Cartesian components [Ang]: [  0.728540,   0.712802,   0.783362]
    Electron size [Ang]:            1.463181
      Cartesian components [Ang]: [  0.854018,   0.830537,   0.849565]

  Transition density matrix analysis:
  -----------------------------------
  
  CT numbers (Mulliken)
    omega =     0.9535
    <Phe> =    -0.1606
  
  Exciton analysis of the transition density matrix
    Trans. dipole moment [D]:             1.833473
      Cartesian components [D]:         [  1.328565,  -1.263490,  -0.011444]
    <r_h> [Ang]:                        [ -1.560086,  -0.065923,   0.002065]
    <r_e> [Ang]:                        [ -1.560317,  -0.065734,   0.002343]
    |<r_e - r_h>| [Ang]:                  0.000408
    Hole size [Ang]:                      1.214237
      Cartesian components [Ang]:       [  0.649711,   0.636643,   0.804321]
    Electron size [Ang]:                  1.486021
      Cartesian components [Ang]:       [  0.864453,   0.839437,   0.869669]
    RMS electron-hole separation [Ang]:   1.936736
      Cartesian components [Ang]:       [  1.106800,   1.075289,   1.170340]
    Covariance(r_h, r_e) [Ang^2]:        -0.034159
    Correlation coefficient:             -0.018931
    Center-of-mass size [Ang]:            0.950567
      Cartesian components [Ang]:       [  0.527684,   0.515677,   0.599336]

  Decomposition into state-averaged NTOs
    H- 0 -> L+ 0:  0.6698 ( 89.7%)
    H- 2 -> L+ 5: -0.0836 (  1.4%)
                   omega =  95.4%
  ----------------------------------------------------------------------------


  Excited state 2 (singlet, A)                                     [converged]
  ----------------------------------------------------------------------------
  Term symbol:  3 (1) A                                     R^2 =  1.35947e-13

  Total energy:                                            -77.9869021725 a.u.
  Excitation energy:                                               9.054160 eV

  Osc. strength:                                                      0.000123
  Trans. dip. moment [a.u.]:           [  -0.016636,    0.016375,    0.003333]
  <i|r^2|0> [a.u.]:                    [  -0.165561,   -0.081643,    0.153126]
  Two-photon absorption cross-section (SoS) [a.u.]:                   4.893670
  Two-photon absorption matrix (SoS) [a.u.]:
                                       |   -0.057323   -0.059876    0.539291 |
                                       |   -0.059876   -0.062764    0.553640 |
                                       |    0.539291    0.553640    0.119658 |
  Two-photon absorption cross-section [a.u.]:                         0.078982
  Two-photon absorption matrix [a.u.]:
                                       |   -0.009410    0.006690   -0.058753 |
                                       |    0.006690    0.024627   -0.076902 |
                                       |   -0.058753   -0.076902   -0.015138 |

  Dip. moment [a.u.]:                  [  -0.003127,    0.010218,   -0.001603]
  Total dipole [Debye]:                                               0.027464
  <r^2> [a.u.]:                        [ 174.527180,   33.972703,   13.174287]
  Total <r^2> [a.u.]:                                               221.674170

  V1^2 = 0.9542, V2^2 = 0.0458

  Important amplitudes:
      occ i     occ j     vir a      vir b          v   
    -----------------------------------------------------
     7 (A) A              9 (A) A                 0.6691
     8 (A) A             11 (A) A                 0.1483
     7 (A) A             20 (A) A                 0.0759
     5 (A) A   8 (A) B    9 (A) A    9 (A) B     -0.0316
     8 (A) A             16 (A) A                -0.0273
     8 (A) A             21 (A) A                 0.0176
     5 (A) A             28 (A) A                -0.0150
     4 (A) A   7 (A) B    9 (A) A   19 (A) B     -0.0135
     5 (A) A   7 (A) B    9 (A) A   16 (A) B      0.0134
     7 (A) A   8 (A) B   20 (A) A   17 (A) B     -0.0105
     7 (A) A   8 (A) A    9 (A) A   28 (A) A      0.0098
     8 (A) A              9 (A) A                -0.0097
     5 (A) A   8 (A) B    9 (A) A   20 (A) B     -0.0096
     4 (A) A   6 (A) B    9 (A) A   16 (A) B      0.0091
     5 (A) A   6 (A) A    9 (A) A   23 (A) A     -0.0091
     5 (A) A   6 (A) A    9 (A) A   14 (A) A     -0.0089
     5 (A) A   6 (A) B    9 (A) A   19 (A) B     -0.0087
     8 (A) A   7 (A) B    9 (A) A   28 (A) B     -0.0085
     4 (A) A   5 (A) A    9 (A) A   10 (A) A      0.0085
     6 (A) A   7 (A) B    9 (A) A   18 (A) B     -0.0083
     5 (A) A   6 (A) B    9 (A) A   23 (A) B     -0.0080
     3 (A) A   7 (A) B    9 (A) A   18 (A) B      0.0080
     5 (A) A   7 (A) A    9 (A) A   16 (A) A      0.0079
     4 (A) A   8 (A) B    9 (A) A   25 (A) B      0.0077
     7 (A) A   8 (A) B   17 (A) A   20 (A) B     -0.0074
     4 (A) A   7 (A) B   19 (A) A    9 (A) B     -0.0074
     5 (A) A   5 (A) B    9 (A) A   13 (A) B     -0.0072
     7 (A) A   8 (A) B   19 (A) A   18 (A) B      0.0072
     5 (A) A   8 (A) A    9 (A) A   20 (A) A     -0.0069
     4 (A) A   5 (A) B    9 (A) A   18 (A) B     -0.0068
     7 (A) A   7 (A) B   20 (A) A   22 (A) B     -0.0065
     7 (A) A   8 (A) B   17 (A) A    9 (A) B     -0.0065
     5 (A) A   6 (A) B    9 (A) A   14 (A) B     -0.0063
     8 (A) A             10 (A) A                -0.0063
     4 (A) A   7 (A) A    9 (A) A   19 (A) A     -0.0061
     4 (A) A   5 (A) B   10 (A) A    9 (A) B     -0.0061
     5 (A) A   7 (A) B   11 (A) A   20 (A) B     -0.0060
     5 (A) A             38 (A) A                -0.0060
     4 (A) A   7 (A) B    9 (A) A   14 (A) B      0.0060
     4 (A) A   8 (A) A    9 (A) A   25 (A) A      0.0057
    -----------------------------------------------------

  Density matrix analysis:
  ------------------------
  NOs
    Occupation of frontier NOs:
       0.9579   1.0538
    Number of electrons: 16.000000
    Number of unpaired electrons: n_u =  2.35533, n_u,nl =  2.06280
    NO participation ratio (PR_NO):  3.027763
  
  
  Mulliken Population Analysis
  Atom      Charge (e)              h+              e-           Del q
  --------------------------------------------------------------------
   1 H        0.149043        0.121402       -0.023328        0.098075
   2 C       -0.301966        0.270943       -0.472001       -0.201058
   3 H        0.152112        0.127216       -0.025740        0.101477
   4 C       -0.302385        0.273126       -0.474127       -0.201001
   5 H        0.154597        0.127882       -0.023416        0.104466
   6 H        0.148599        0.123382       -0.025340        0.098041
  --------------------------------------------------------------------
  Sum:       -0.000000        1.043951       -1.043951        0.000000
  
  Multipole moment analysis of the density matrix
    Molecular charge:                      -0.000000
    Number of electrons:                   16.000000
      Center of electronic charge [Ang]: [ -1.560473,  -0.065940,   0.001719]
    Total nuclear charge:                  16.000000
      Center of nuclear charge [Ang]:    [ -1.560576,  -0.065602,   0.001666]
    Dipole moment [D]:                     0.027464
      Cartesian components [D]:          [ -0.007949,   0.025971,  -0.004074]
    RMS size of the density [Ang]:         1.200111
      Cartesian components [Ang]:        [  0.787059,   0.768267,   0.480178]
  
  Exciton analysis of the difference density matrix
    <r_h> [Ang]:                  [ -1.565117,  -0.063284,   0.001466]
    <r_e> [Ang]:                  [ -1.563862,  -0.068096,   0.001824]
    |<r_e - r_h>| [Ang]:            0.004986
    Hole size [Ang]:                1.486308
      Cartesian components [Ang]: [  0.999018,   1.002157,   0.454703]
    Electron size [Ang]:            1.477151
      Cartesian components [Ang]: [  0.881295,   0.859540,   0.816386]

  Transition density matrix analysis:
  -----------------------------------
  
  CT numbers (Mulliken)
    omega =     0.9218
    <Phe> =    -0.0122
  
  Exciton analysis of the transition density matrix
    Trans. dipole moment [D]:             0.029967
      Cartesian components [D]:         [ -0.021142,   0.020811,   0.004236]
    <r_h> [Ang]:                        [ -1.565751,  -0.062695,   0.001355]
    <r_e> [Ang]:                        [ -1.563502,  -0.068720,   0.001944]
    |<r_e - r_h>| [Ang]:                  0.006458
    Hole size [Ang]:                      1.514934
      Cartesian components [Ang]:       [  1.021596,   1.026604,   0.444353]
    Electron size [Ang]:                  1.474220
      Cartesian components [Ang]:       [  0.871912,   0.848865,   0.832178]
    RMS electron-hole separation [Ang]:   2.094042
      Cartesian components [Ang]:       [  1.327231,   1.317163,   0.942631]
    Covariance(r_h, r_e) [Ang^2]:         0.041688
    Correlation coefficient:              0.018666
    Center-of-mass size [Ang]:            1.066738
      Cartesian components [Ang]:       [  0.679382,   0.673442,   0.472067]

  Decomposition into state-averaged NTOs
    H- 1 -> L+ 0: -0.6615 ( 87.5%)
    H- 0 -> L+ 2:  0.1482 (  4.4%)
                   omega =  92.2%
  ----------------------------------------------------------------------------


  Excited state 3 (singlet, A)                                     [converged]
  ----------------------------------------------------------------------------
  Term symbol:  4 (1) A                                     R^2 =  1.60286e-13

  Total energy:                                            -77.9826338467 a.u.
  Excitation energy:                                               9.170307 eV

  Osc. strength:                                                      0.025175
  Trans. dip. moment [a.u.]:           [  -0.013247,   -0.022908,    0.333699]
  <i|r^2|0> [a.u.]:                    [  -0.069516,   -0.014466,   -0.002983]
  Two-photon absorption cross-section (SoS) [a.u.]:                   0.029426
  Two-photon absorption matrix (SoS) [a.u.]:
                                       |    0.058096    0.001763    0.014582 |
                                       |    0.001763   -0.058028    0.003107 |
                                       |    0.014582    0.003107    0.010410 |
  Two-photon absorption cross-section [a.u.]:                         0.017199
  Two-photon absorption matrix [a.u.]:
                                       |    0.044736   -0.000298    0.017700 |
                                       |   -0.000298   -0.038988    0.002473 |
                                       |    0.017700    0.002473    0.007335 |

  Dip. moment [a.u.]:                  [   0.002512,    0.014735,    0.002261]
  Total dipole [Debye]:                                               0.038426
  <r^2> [a.u.]:                        [ 180.876742,   40.608424,   11.032062]
  Total <r^2> [a.u.]:                                               232.517228

  V1^2 = 0.9587, V2^2 = 0.0413

  Important amplitudes:
      occ i     occ j     vir a      vir b          v   
    -----------------------------------------------------
     8 (A) A             10 (A) A                -0.6891
     8 (A) A             24 (A) A                -0.0507
     8 (A) A             18 (A) A                 0.0313
     4 (A) A              9 (A) A                 0.0238
     8 (A) A   8 (A) B    9 (A) A   12 (A) B     -0.0219
     8 (A) A   8 (A) B   10 (A) A   17 (A) B     -0.0173
     8 (A) A             15 (A) A                -0.0169
     5 (A) A   8 (A) B   11 (A) A   10 (A) B     -0.0165
     7 (A) A   8 (A) B   13 (A) A   10 (A) B      0.0141
     4 (A) A   8 (A) B   12 (A) A   10 (A) B      0.0111
     6 (A) A   8 (A) A   10 (A) A   15 (A) A      0.0110
     7 (A) A   8 (A) B   22 (A) A   10 (A) B     -0.0108
     6 (A) A   8 (A) B   15 (A) A   10 (A) B     -0.0108
     4 (A) A   8 (A) A   10 (A) A   12 (A) A     -0.0106
     7 (A) A   8 (A) A   10 (A) A   22 (A) A      0.0099
     7 (A) A   8 (A) A   10 (A) A   13 (A) A     -0.0097
     5 (A) A   8 (A) B   21 (A) A   10 (A) B     -0.0094
     5 (A) A   8 (A) A   10 (A) A   11 (A) A      0.0094
     6 (A) A   8 (A) A   10 (A) A   18 (A) A      0.0088
     6 (A) A   8 (A) B   10 (A) A   10 (A) B      0.0087
     7 (A) A   8 (A) A   12 (A) A   16 (A) A     -0.0082
     5 (A) A   8 (A) A   10 (A) A   21 (A) A      0.0080
     3 (A) A   4 (A) B   10 (A) A    9 (A) B     -0.0079
     4 (A) A   8 (A) B   19 (A) A   10 (A) B     -0.0075
     8 (A) A   8 (A) B    9 (A) A   23 (A) B     -0.0075
     8 (A) A   8 (A) B   10 (A) A   28 (A) B      0.0073
     3 (A) A   8 (A) B   10 (A) A   10 (A) B     -0.0072
     5 (A) A   8 (A) B   10 (A) A   11 (A) B     -0.0071
     3 (A) A   8 (A) A   10 (A) A   24 (A) A      0.0071
     7 (A) A   8 (A) B   16 (A) A   12 (A) B      0.0070
     3 (A) A   8 (A) B   10 (A) A   18 (A) B      0.0069
     8 (A) A   8 (A) B    9 (A) A   19 (A) B      0.0068
     6 (A) A   8 (A) B   18 (A) A   10 (A) B     -0.0067
     7 (A) A              9 (A) A                -0.0064
     3 (A) A   6 (A) B   10 (A) A   28 (A) B      0.0062
     7 (A) A   8 (A) B   12 (A) A   11 (A) B     -0.0058
     6 (A) A             28 (A) A                -0.0057
     3 (A) A   5 (A) B   10 (A) A   25 (A) B      0.0056
     5 (A) A   8 (A) A   10 (A) A   16 (A) A     -0.0056
     3 (A) A   8 (A) A   10 (A) A   18 (A) A      0.0056
    -----------------------------------------------------

  Density matrix analysis:
  ------------------------
  NOs
    Occupation of frontier NOs:
       0.9815   0.9849
    Number of electrons: 16.000000
    Number of unpaired electrons: n_u =  2.28539, n_u,nl =  2.02443
    NO participation ratio (PR_NO):  2.692234
  
  
  Mulliken Population Analysis
  Atom      Charge (e)              h+              e-           Del q
  --------------------------------------------------------------------
   1 H       -0.162368        0.053912       -0.267248       -0.213337
   2 C        0.327487        0.538891       -0.110496        0.428395
   3 H       -0.166340        0.053726       -0.270701       -0.216975
   4 C        0.326638        0.537456       -0.109435        0.428022
   5 H       -0.161997        0.054006       -0.266134       -0.212128
   6 H       -0.163419        0.053856       -0.267833       -0.213977
  --------------------------------------------------------------------
  Sum:       -0.000000        1.291847       -1.291847        0.000000
  
  Multipole moment analysis of the density matrix
    Molecular charge:                      -0.000000
    Number of electrons:                   16.000000
      Center of electronic charge [Ang]: [ -1.560659,  -0.066090,   0.001591]
    Total nuclear charge:                  16.000000
      Center of nuclear charge [Ang]:    [ -1.560576,  -0.065602,   0.001666]
    Dipole moment [D]:                     0.038426
      Cartesian components [D]:          [  0.006384,   0.037453,   0.005747]
    RMS size of the density [Ang]:         1.276494
      Cartesian components [Ang]:        [  0.854405,   0.840447,   0.439407]
  
  Exciton analysis of the difference density matrix
    <r_h> [Ang]:                  [ -1.560046,  -0.066130,   0.001941]
    <r_e> [Ang]:                  [ -1.561342,  -0.071869,   0.000648]
    |<r_e - r_h>| [Ang]:            0.006024
    Hole size [Ang]:                1.410262
      Cartesian components [Ang]: [  0.833983,   0.819871,   0.788113]
    Electron size [Ang]:            2.076011
      Cartesian components [Ang]: [  1.373244,   1.376861,   0.726826]

  Transition density matrix analysis:
  -----------------------------------
  
  CT numbers (Mulliken)
    omega =     0.9259
    <Phe> =    -0.0109
  
  Exciton analysis of the transition density matrix
    Trans. dipole moment [D]:             0.425420
      Cartesian components [D]:         [ -0.016835,  -0.029113,   0.424089]
    <r_h> [Ang]:                        [ -1.559695,  -0.065663,   0.002234]
    <r_e> [Ang]:                        [ -1.561496,  -0.074005,   0.000276]
    |<r_e - r_h>| [Ang]:                  0.008756
    Hole size [Ang]:                      1.212955
      Cartesian components [Ang]:       [  0.636475,   0.623645,   0.822938]
    Electron size [Ang]:                  2.296371
      Cartesian components [Ang]:       [  1.517843,   1.524384,   0.803570]
    RMS electron-hole separation [Ang]:   2.587140
      Cartesian components [Ang]:       [  1.638396,   1.640055,   1.148552]
    Covariance(r_h, r_e) [Ang^2]:         0.025682
    Correlation coefficient:              0.009220
    Center-of-mass size [Ang]:            1.303451
      Cartesian components [Ang]:       [  0.826673,   0.826990,   0.575921]

  Decomposition into state-averaged NTOs
    H- 0 -> L+ 1:  0.6797 ( 92.4%)
                   omega =  92.6%
  ----------------------------------------------------------------------------


  Excited state 4 (singlet, A)                                     [converged]
  ----------------------------------------------------------------------------
  Term symbol:  5 (1) A                                     R^2 =  1.67476e-13

  Total energy:                                            -77.9582871566 a.u.
  Excitation energy:                                               9.832814 eV

  Osc. strength:                                                      0.000020
  Trans. dip. moment [a.u.]:           [   0.006459,   -0.006061,   -0.001878]
  <i|r^2|0> [a.u.]:                    [   0.019927,   -0.020228,    0.036869]
  Two-photon absorption cross-section (SoS) [a.u.]:                 149.512089
  Two-photon absorption matrix (SoS) [a.u.]:
                                       |   -0.309685   -0.330944    3.008155 |
                                       |   -0.330944   -0.352037    3.033491 |
                                       |    3.008155    3.033491    0.661067 |
  Two-photon absorption cross-section [a.u.]:                        91.823978
  Two-photon absorption matrix [a.u.]:
                                       |   -0.253782   -0.259952    2.351236 |
                                       |   -0.259952   -0.265427    2.383358 |
                                       |    2.351236    2.383358    0.518239 |

  Dip. moment [a.u.]:                  [  -0.017032,   -0.010635,   -0.000165]
  Total dipole [Debye]:                                               0.051039
  <r^2> [a.u.]:                        [ 181.193154,   40.535989,   10.769195]
  Total <r^2> [a.u.]:                                               232.498337

  V1^2 = 0.9635, V2^2 = 0.0365

  Important amplitudes:
      occ i     occ j     vir a      vir b          v   
    -----------------------------------------------------
     8 (A) A             11 (A) A                 0.6697
     7 (A) A              9 (A) A                -0.1503
     8 (A) A             21 (A) A                 0.0781
     8 (A) A             16 (A) A                -0.0646
     8 (A) A   8 (A) B    9 (A) A   13 (A) B     -0.0167
     5 (A) A   8 (A) B   11 (A) A   11 (A) B      0.0155
     8 (A) A   8 (A) B   11 (A) A   17 (A) B      0.0140
     7 (A) A             20 (A) A                -0.0137
     7 (A) A   8 (A) B   13 (A) A   11 (A) B     -0.0127
     8 (A) A             12 (A) A                 0.0111
     5 (A) A   8 (A) A   11 (A) A   21 (A) A     -0.0110
     4 (A) A   8 (A) B   12 (A) A   11 (A) B     -0.0110
     8 (A) A   8 (A) B    9 (A) A   22 (A) B      0.0108
     7 (A) A   8 (A) A   11 (A) A   22 (A) A     -0.0096
     6 (A) A   8 (A) B   15 (A) A   11 (A) B      0.0090
     6 (A) A   8 (A) B   10 (A) A   11 (A) B     -0.0090
     7 (A) A   8 (A) B   22 (A) A   11 (A) B      0.0089
     3 (A) A   4 (A) B   11 (A) A    9 (A) B      0.0083
     3 (A) A   8 (A) B   11 (A) A   18 (A) B     -0.0081
     6 (A) A   8 (A) A   11 (A) A   15 (A) A     -0.0080
     7 (A) A   8 (A) A   13 (A) A   16 (A) A     -0.0078
     7 (A) A   8 (A) A   11 (A) A   13 (A) A      0.0077
     6 (A) A              9 (A) A                 0.0075
     5 (A) A   8 (A) B   21 (A) A   11 (A) B      0.0071
     4 (A) A   8 (A) B   19 (A) A   11 (A) B      0.0070
     5 (A) A   8 (A) B    9 (A) A    9 (A) B      0.0068
     4 (A) A   8 (A) A   11 (A) A   12 (A) A      0.0062
     6 (A) A   8 (A) A   11 (A) A   18 (A) A     -0.0062
     3 (A) A   6 (A) B   11 (A) A   28 (A) B     -0.0060
     6 (A) A   8 (A) B   18 (A) A   11 (A) B      0.0060
     7 (A) A   8 (A) B   16 (A) A   13 (A) B      0.0057
     3 (A) A   8 (A) A   11 (A) A   18 (A) A     -0.0056
     5 (A) A   8 (A) B   10 (A) A   10 (A) B      0.0056
     3 (A) A   8 (A) B   11 (A) A   30 (A) B     -0.0055
     3 (A) A   5 (A) B   11 (A) A   25 (A) B     -0.0055
     6 (A) A   8 (A) B   11 (A) A   10 (A) B     -0.0054
     7 (A) A   8 (A) B   12 (A) A   10 (A) B      0.0054
     8 (A) A   8 (A) B   20 (A) A   22 (A) B      0.0053
     3 (A) A   8 (A) A   11 (A) A   24 (A) A     -0.0053
     5 (A) A   8 (A) A   11 (A) A   16 (A) A      0.0048
    -----------------------------------------------------

  Density matrix analysis:
  ------------------------
  NOs
    Occupation of frontier NOs:
       0.9407   1.0278
    Number of electrons: 16.000000
    Number of unpaired electrons: n_u =  2.31916, n_u,nl =  2.04912
    NO participation ratio (PR_NO):  2.914585
  
  
  Mulliken Population Analysis
  Atom      Charge (e)              h+              e-           Del q
  --------------------------------------------------------------------
   1 H       -0.147147        0.045782       -0.243897       -0.198116
   2 C        0.274758        0.497176       -0.121509        0.375666
   3 H       -0.128011        0.046932       -0.225578       -0.178646
   4 C        0.273151        0.496761       -0.122227        0.374534
   5 H       -0.131927        0.047071       -0.229129       -0.182058
   6 H       -0.140823        0.045836       -0.237217       -0.191381
  --------------------------------------------------------------------
  Sum:       -0.000000        1.179558       -1.179558        0.000000
  
  Multipole moment analysis of the density matrix
    Molecular charge:                      -0.000000
    Number of electrons:                   16.000000
      Center of electronic charge [Ang]: [ -1.560013,  -0.065251,   0.001671]
    Total nuclear charge:                  16.000000
      Center of nuclear charge [Ang]:    [ -1.560576,  -0.065602,   0.001666]
    Dipole moment [D]:                     0.051039
      Cartesian components [D]:          [ -0.043291,  -0.027032,  -0.000420]
    RMS size of the density [Ang]:         1.277198
      Cartesian components [Ang]:        [  0.858815,   0.839759,   0.434140]
  
  Exciton analysis of the difference density matrix
    <r_h> [Ang]:                  [ -1.559967,  -0.065365,   0.002031]
    <r_e> [Ang]:                  [ -1.552618,  -0.060269,   0.001704]
    |<r_e - r_h>| [Ang]:            0.008949
    Hole size [Ang]:                1.394842
      Cartesian components [Ang]: [  0.818240,   0.806943,   0.790514]
    Electron size [Ang]:            2.124109
      Cartesian components [Ang]: [  1.440665,   1.405526,   0.678839]

  Transition density matrix analysis:
  -----------------------------------
  
  CT numbers (Mulliken)
    omega =     0.9298
    <Phe> =    -0.0135
  
  Exciton analysis of the transition density matrix
    Trans. dipole moment [D]:             0.011507
      Cartesian components [D]:         [  0.008209,  -0.007703,  -0.002386]
    <r_h> [Ang]:                        [ -1.560448,  -0.065681,   0.002157]
    <r_e> [Ang]:                        [ -1.551241,  -0.059140,   0.001703]
    |<r_e - r_h>| [Ang]:                  0.011303
    Hole size [Ang]:                      1.227957
      Cartesian components [Ang]:       [  0.657878,   0.650348,   0.807540]
    Electron size [Ang]:                  2.262165
      Cartesian components [Ang]:       [  1.534867,   1.497167,   0.721153]
    RMS electron-hole separation [Ang]:   2.563296
      Cartesian components [Ang]:       [  1.661389,   1.624535,   1.082202]
    Covariance(r_h, r_e) [Ang^2]:         0.027455
    Correlation coefficient:              0.009883
    Center-of-mass size [Ang]:            1.292302
      Cartesian components [Ang]:       [  0.839213,   0.820039,   0.541573]

  Decomposition into state-averaged NTOs
    H- 0 -> L+ 2:  0.6650 ( 88.4%)
    H- 1 -> L+ 0:  0.1483 (  4.4%)
                   omega =  93.0%
  ----------------------------------------------------------------------------


  Excited state 5 (singlet, A)                                     [converged]
  ----------------------------------------------------------------------------
  Term symbol:  6 (1) A                                     R^2 =  1.39961e-13

  Total energy:                                            -77.9443628876 a.u.
  Excitation energy:                                              10.211712 eV

  Osc. strength:                                                      0.000000
  Trans. dip. moment [a.u.]:           [   0.000731,    0.001036,   -0.000062]
  <i|r^2|0> [a.u.]:                    [  -0.084566,    0.105984,   -0.017986]
  Two-photon absorption cross-section (SoS) [a.u.]:                 178.246522
  Two-photon absorption matrix (SoS) [a.u.]:
                                       |   -0.336206   -0.037441    3.352659 |
                                       |   -0.037441    0.386288   -3.302180 |
                                       |    3.352659   -3.302180   -0.081526 |
  Two-photon absorption cross-section [a.u.]:                        79.801624
  Two-photon absorption matrix [a.u.]:
                                       |   -0.233665   -0.029878    2.229056 |
[...]
    16   -1.467527366459e-03
    17   -1.912860212007e-03
    18   -1.233247699283e-04
    19   -3.318554195082e-03
    20    1.088345288055e-02
    21    9.354741700730e-01
    22   -2.720740037952e-04
    23    1.398313216001e-02
    24    8.959366590485e-04
    25    7.022721976466e-02
    26   -5.222825789795e-02
    27   -1.398576417285e+00
    28    9.796811792961e-02
    29   -9.260328040010e-02
    30   -1.422675778410e-03
    31    3.850835492464e-01
    32   -3.622480915195e-01
    33   -5.538522950409e-03
    34    1.562732004560e-02
    35   -1.416309714226e-03
    36   -1.804562021734e-03
    37   -4.311128654472e-05
    38   -3.128425701461e-03
    39    9.830970935942e-03
    40    9.313287218367e-01
    41    2.474884884846e-04
    42   -1.392103786461e-02
    43   -8.382091037862e-04
    44    1.011162256172e-02
    45    9.399482398227e-01
    46    1.412225525149e-02
    47    3.744631272064e-04
    48    6.598038272730e-04
Sym=X
Ene= 0.232950
Spin=Alpha
Occup=0
     1    2.613469244235e-02
     2    1.233343349358e+00
     3   -1.430950423558e-02
     4   -3.814217371370e-03
     5   -9.317775548819e-04
     6    2.965691587472e-03
     7   -3.370223077098e-03
     8   -4.723757978433e-02
     9   -1.548129129746e-01
    10   -1.586128294700e-01
    11   -1.760150137682e-02
    12   -5.564268967566e-01
    13   -5.580833731655e-01
    14   -6.283947378111e-02
    15    5.256207235115e-04
    16   -3.370503782306e-05
    17    3.390423556421e-05
    18   -2.051583223916e-04
    19   -3.493026723335e-04
    20   -2.511558669581e-02
    21   -1.161009150915e+00
    22   -2.498499478732e-03
    23   -1.356721170641e-02
    24   -9.906444958672e-04
    25   -2.604609086751e-03
    26    3.074773074880e-03
    27    3.752782600295e-02
    28   -1.538289196971e-01
    29   -1.591469853101e-01
    30   -1.648868667099e-02
    31   -5.475159410089e-01
    32   -5.558944894997e-01
    33   -5.774019875019e-02
    34   -4.515412829592e-04
    35    7.134866004960e-06
    36    2.065557858421e-05
    37    3.784491707617e-04
    38    3.246164855971e-04
    39    2.509980060037e-02
    40    1.160133949674e+00
    41   -2.472644509620e-03
    42   -1.365207339872e-02
    43   -9.301885067642e-04
    44   -2.621581161448e-02
    45   -1.220204506760e+00
    46   -1.420356844784e-02
    47   -3.754623097023e-03
    48   -8.639802000967e-04
Sym=X
Ene= 0.239400
Spin=Alpha
Occup=0
     1   -1.605201606544e-02
     2   -1.052533797975e+00
     3    1.653585636365e-02
     4    9.099877580870e-03
     5    1.307270087996e-03
     6   -8.649656794359e-02
     7    7.974806610701e-02
     8    1.592393000972e+00
     9    5.337184635286e-02
    10   -6.040870880921e-02
    11   -1.788582040333e-03
    12    2.117987775199e-01
    13   -2.346743058580e-01
    14   -6.672841272141e-03
    15   -2.251596918166e-02
    16    2.625016168872e-03
    17    3.101649934713e-03
    18   -4.899341142312e-04
    19    1.285917044862e-02
    20   -1.701947682278e-02
    21   -1.122649411782e+00
    22   -8.530707986681e-03
    23   -1.772374145894e-02
    24   -1.546383076642e-03
    25    8.646110710208e-02
    26   -7.932990452550e-02
    27   -1.596640617350e+00
    28    5.359944926814e-02
    29   -6.099856879968e-02
    30   -1.035154580435e-03
    31    2.119367566367e-01
    32   -2.403583335004e-01
    33   -3.743565864038e-03
    34    2.261451875996e-02
    35   -2.644078677878e-03
    36   -3.006071967005e-03
    37    7.218929099293e-04
    38   -1.279139974786e-02
    39    1.681443178062e-02
    40    1.129475114239e+00
    41   -8.621628846652e-03
    42   -1.788367807523e-02
    43   -1.487061591417e-03
    44    1.564151452759e-02
    45    1.050582137821e+00
    46    1.645586192322e-02
    47    9.272034514130e-03
    48    1.344948533540e-03
Sym=X
Ene= 0.303258
Spin=Alpha
Occup=0
     1   -2.079167406492e-02
     2    1.691156672806e+00
     3   -2.291108019881e-02
     4    2.686211238601e-04
     5   -1.090014096003e-03
     6   -2.067138961682e-04
     7    1.788129724924e-04
     8    1.577688055245e-03
     9   -1.338542744669e-01
    10   -1.395318125646e-01
    11   -1.521679811053e-02
    12   -1.144045908408e+00
    13   -1.193258314263e+00
    14   -1.284420693022e-01
    15   -8.561103445756e-05
    16   -1.557835096263e-03
    17    2.049327470452e-03
    18   -3.264282839609e-02
    19   -1.605269769408e-03
    20    1.992288139550e-02
    21   -1.689074751150e+00
    22    1.427551470503e-03
    23   -2.290010745643e-02
    24   -1.362471792779e-03
    25    8.927373276220e-05
    26    2.596951141432e-04
    27   -8.826266944472e-03
    28    1.347331906857e-01
    29    1.402895113509e-01
    30    1.465818777727e-02
    31    1.139887054434e+00
    32    1.197641460205e+00
    33    1.263248754148e-01
    34    6.427794157755e-05
    35   -1.665268525636e-03
    36    1.856016049432e-03
    37   -3.251187709986e-02
    38   -1.687685801723e-03
    39    1.959054070232e-02
    40   -1.692278535929e+00
    41   -1.614436073363e-03
    42    2.284191847652e-02
    43    1.265025504508e-03
    44   -2.014243231035e-02
    45    1.698836080103e+00
    46    2.304901483729e-02
    47   -3.611852158107e-04
    48    1.081655332654e-03
Sym=X
Ene= 0.462032
Spin=Alpha
Occup=0
     1   -1.155844348579e-01
     2   -7.145727104691e-01
     3   -1.566767937898e-02
     4   -1.033129341701e-02
     5   -1.433130150212e-03
     6    6.080484712200e-02
     7    1.740002068264e-02
     8   -3.592254648881e+00
     9    1.030386398531e-01
    10   -9.895407289347e-02
    11   -1.841934963508e-03
    12    2.426292971950e+00
    13   -2.302662675931e+00
    14   -2.294791396288e-02
    15    5.364129687195e-02
    16   -3.514671661577e-03
    17   -4.874229232413e-03
    18   -7.626176752144e-04
    19    1.802243804667e-02
    20   -1.213667126605e-01
    21   -7.014148274393e-01
    22    8.719330768907e-03
    23    1.637860919095e-02
    24    1.431305542447e-03
    25   -6.094255670394e-02
    26   -1.628282557667e-02
    27    3.591302357152e+00
    28    1.051791369544e-01
    29   -1.004143987343e-01
    30   -1.371104227601e-03
    31    2.422580890352e+00
    32   -2.298392721649e+00
    33   -2.080351379614e-02
    34   -5.270809152137e-02
    35    3.126337435010e-03
    36    4.562638560184e-03
    37    6.643860694680e-04
    38   -1.904011054041e-02
    39    1.151903500994e-01
    40    7.091892852531e-01
    41    8.576867749396e-03
    42    1.625226893887e-02
    43    1.363691507065e-03
    44    1.107348629319e-01
    45    7.180531034930e-01
    46   -1.545619446026e-02
    47   -9.942056186298e-03
    48   -1.308640441655e-03
Sym=X
Ene= 0.577497
Spin=Alpha
Occup=0
     1    2.470546487977e-01
     2    4.085996198801e-02
     3   -1.846261178553e-02
     4    2.569343602279e-02
     5    7.314705554985e-04
     6   -4.442887023284e-03
     7   -1.571796635120e-01
     8   -4.664046933194e-01
     9    2.987896544119e-01
    10   -2.879432159964e-01
    11   -2.955143184519e-03
    12   -7.195238283403e-01
    13    6.955299522506e-01
    14    8.800564629134e-03
    15   -5.887971402733e-03
    16    3.979585225563e-03
    17    3.799418087900e-03
    18   -4.373942146974e-03
    19    6.023162542103e-02
    20    2.553672558421e-01
    21    2.860092705919e-02
    22   -2.645332307317e-02
    23    1.647787498080e-02
    24   -2.247925330558e-04
    25   -5.643959036380e-03
    26   -1.578671338131e-01
    27   -4.090678897261e-01
    28   -2.973347346411e-01
    29    2.851907362333e-01
    30    2.882088786810e-03
    31    7.630593420619e-01
    32   -7.333769637064e-01
    33   -8.491855294003e-03
    34   -5.863672448764e-03
    35    3.986918367559e-03
    36    3.739938210938e-03
    37   -3.804625282663e-03
    38    6.018584022820e-02
    39    2.508385599192e-01
    40    5.003756900445e-02
    41    2.722252010259e-02
    42   -1.699780194409e-02
    43    2.594944523048e-04
    44    2.490341866650e-01
    45    5.633101111006e-02
    46    1.843390816574e-02
    47   -2.587983010463e-02
    48   -6.897537357181e-04
Sym=X
Ene= 0.615158
Spin=Alpha
Occup=0
     1   -5.221417317960e-01
     2    2.000749723667e-01
     3   -6.136315078891e-02
     4    3.762639489448e-02
     5   -5.113499968058e-04
     6   -5.909194403806e-04
     7   -1.616248763001e-05
     8   -1.649526055344e-02
     9   -4.033043662138e-02
    10   -3.843036060591e-02
    11   -4.124137984005e-03
    12    3.048014290226e-01
    13    2.781614072698e-01
    14    3.289266404455e-02
    15    1.931377729256e-03
    16   -7.341958842573e-03
    17    8.855187380601e-03
    18   -1.479920420769e-01
    19   -6.443354025125e-03
    20    5.083227540879e-01
    21   -2.058856139485e-01
    22    4.180303339454e-02
    23   -5.846857029162e-02
    24   -1.620660945867e-03
    25    4.148910919434e-04
    26   -1.009545120324e-03
    27    2.492524653787e-02
    28   -4.000751225344e-02
    29   -4.025498056173e-02
    30   -4.534731757671e-03
    31    3.042659907315e-01
    32    2.897145836202e-01
    33    3.084738012774e-02
    34   -1.464305694045e-03
    35    7.628410739188e-03
    36   -8.572010164829e-03
    37    1.491364367807e-01
    38    6.314629543113e-03
    39   -5.148017334385e-01
    40    2.072718754548e-01
    41    4.092862737221e-02
    42   -5.857987760550e-02
    43   -1.629212124558e-03
    44    5.219759507106e-01
    45   -2.039668828561e-01
    46   -6.147669404843e-02
    47    3.759878274616e-02
    48   -7.044371399959e-04
Sym=X
Ene= 0.689148
Spin=Alpha
Occup=0
     1    3.218421704595e-04
     2    1.065167001451e-03
     3    7.924876547866e-04
     4    1.417006127140e-03
     5   -2.101351085559e-02
     6    8.542448013949e-06
     7   -1.092440047383e-03
     8    1.650083247066e-03
     9    3.266658830903e-02
    10    4.137034415747e-02
    11   -6.702228387292e-01
    12   -3.245139162419e-02
    13   -3.592968644754e-02
    14    6.134325713479e-01
    15   -1.048132750902e-03
    16    8.264991346987e-02
    17   -7.835464048275e-02
    18   -8.529110790804e-03
    19   -1.108989475018e-03
    20    6.544678313614e-05
    21    2.159270597048e-03
    22    1.040546088479e-03
    23    1.597730095271e-03
    24   -2.084005204171e-02
    25   -6.965880417147e-05
    26   -3.183808602774e-04
    27   -8.216346808757e-04
    28    3.128791471718e-02
    29    4.038396157561e-02
    30   -6.701098627400e-01
    31   -3.071068215776e-02
    32   -3.451386983890e-02
    33    6.132916378385e-01
    34    1.493238817049e-03
    35   -8.277972619600e-02
    36    7.839197596082e-02
    37    8.948771472319e-03
    38    9.642886712525e-04
    39   -1.245274210111e-03
    40   -2.326813214321e-04
    41    7.808514544728e-04
    42    1.127730108726e-03
    43   -2.108970109421e-02
    44   -1.024158976666e-03
    45   -1.339656229018e-03
    46    1.037328106198e-03
    47    1.317845074834e-03
    48   -2.104151409669e-02
Sym=X
Ene= 0.708860
Spin=Alpha
Occup=0
     1   -4.759368032813e-01
     2    1.585319131746e-01
     3   -8.075335289216e-02
     4   -4.423944581814e-02
     5   -6.694657609990e-03
     6   -4.785751254777e-02
     7   -3.196956431719e-01
     8    5.098096677033e-01
     9    2.034703439630e-01
    10   -1.925271098665e-01
    11   -1.134742876245e-03
    12   -9.812448474934e-02
    13    8.269260556407e-02
    14   -2.349748449191e-03
    15    1.940078185504e-01
    16   -2.099719365144e-02
    17   -2.471411430565e-02
    18    3.107942577034e-03
    19   -7.740716798311e-02
    20   -4.787758328141e-01
    21    1.515014903561e-01
    22    4.096473632956e-02
    23    8.173604559723e-02
    24    6.964343269501e-03
    25   -4.665713884920e-02
    26   -3.211570547021e-01
    27    4.618766858702e-01
    28   -2.043791466532e-01
    29    1.918162864283e-01
    30    2.629037514681e-03
    31    6.456065128840e-02
    32   -5.100883057845e-02
    33    7.084702183608e-04
    34    1.934814120982e-01
    35   -2.048176839442e-02
    36   -2.401933044967e-02
    37    2.425520638542e-03
    38   -7.552048237472e-02
    39   -4.721251060958e-01
    40    1.347977589419e-01
    41   -4.063372494373e-02
    42   -8.094852600138e-02
    43   -6.667570104389e-03
    44   -4.739216427344e-01
    45    1.458301141272e-01
    46    8.044167228317e-02
    47    4.398517168610e-02
    48    6.564886673640e-03
Sym=X
Ene= 0.784497
Spin=Alpha
Occup=0
     1    5.261600435917e-01
     2   -4.685445729974e-01
     3    1.101463714244e-01
     4    2.593617141161e-02
     5    6.947291816985e-03
     6    9.091655713849e-02
     7   -2.162962483783e-01
     8   -6.413683490665e-01
     9    1.109522055965e-01
    10   -1.056174696088e-01
    11   -2.203481564936e-03
    12    3.170740161071e-01
    13   -2.945675122077e-01
    14    3.378589742126e-04
    15   -2.059566192394e-01
    16    1.770741461090e-02
    17    2.314226234589e-02
    18   -1.086784059659e-03
    19    9.151809112722e-03
    20    5.359839373012e-01
    21   -4.696811925556e-01
    22   -2.026695161325e-02
    23   -1.122673059822e-01
    24   -7.967675033956e-03
    25   -9.141253538188e-02
    26    2.125948088126e-01
    27    6.574810009555e-01
    28    1.114071228506e-01
    29   -1.055466779771e-01
    30    8.376770203095e-04
    31    3.102735608558e-01
    32   -2.881085590483e-01
    33   -5.513985264388e-03
    34    2.078226824354e-01
    35   -1.743794015262e-02
    36   -2.210605664109e-02
    37    1.866453173506e-03
    38   -8.955355537059e-03
    39   -5.419595608564e-01
    40    4.668886854612e-01
    41   -2.054984642429e-02
    42   -1.129501647904e-01
    43   -7.676278814991e-03
    44   -5.318940707334e-01
    45    4.649402017961e-01
    46    1.100510341926e-01
    47    2.679124467292e-02
    48    6.819603486774e-03
Sym=X
Ene= 0.807967
Spin=Alpha
Occup=0
     1   -9.758495220890e-04
     2    2.811750256273e-03
     3    9.738349352618e-04
     4    2.038198513967e-03
     5   -3.384396423240e-02
     6   -1.511452591338e-04
     7   -2.759422999622e-04
     8    6.546398664123e-04
     9    3.703112555941e-02
    10    4.789028727688e-02
    11   -7.628044033011e-01
    12   -5.611532117960e-02
    13   -6.969968145639e-02
    14    1.126630871107e+00
    15    1.600917006047e-03
    16   -6.530891051037e-02
    17    6.180666829385e-02
    18    6.492154155377e-03
    19    9.828561944232e-04
    20   -9.169776530807e-04
    21   -1.549311211210e-04
    22    1.434553691956e-03
    23    2.451773735350e-03
    24   -3.441113251072e-02
    25    2.103162361219e-04
    26   -1.047576444424e-03
    27    3.534692373638e-05
    28   -3.624583283161e-02
    29   -4.471579769241e-02
    30    7.632902724505e-01
    31    5.231719540190e-02
    32    6.672956060882e-02
    33   -1.127118298323e+00
    34    5.073295785591e-04
    35   -6.515856431111e-02
    36    6.185379537571e-02
    37    7.289370996412e-03
    38    7.859897704916e-04
    39    9.476623624867e-04
    40    5.676404662586e-04
    41   -1.747499866478e-03
    42   -2.054241978268e-03
    43    3.425067437442e-02
    44    9.667076066272e-04
    45   -2.475182150651e-03
    46   -1.938778093702e-03
    47   -2.160652728354e-03
    48    3.372131584282e-02
Sym=X
Ene= 0.862236
Spin=Alpha
Occup=0
     1    1.388271896068e-02
     2   -1.096232110078e+00
     3    1.485060223409e-01
     4    5.642948441927e-02
     5    1.043438231233e-02
     6    2.552551981086e-04
     7   -3.178759400396e-05
     8    1.598142581828e-03
     9   -4.068175948445e-01
    10   -4.292300690933e-01
    11   -4.725995384713e-02
    12    9.476592814118e-01
    13    9.988903593414e-01
    14    1.098772805046e-01
    15   -9.895011500095e-04
    16    1.170244282555e-02
    17   -1.400095636687e-02
    18    2.352498355330e-01
    19    9.427938311540e-03
    20   -1.358074660576e-02
    21    1.103404992583e+00
    22    5.038348226404e-02
    23    1.513225230369e-01
    24    1.197488530640e-02
    25   -1.278325717130e-04
    26    2.181840745512e-03
    27   -2.768134557611e-03
    28   -4.063288361613e-01
    29   -4.295854391231e-01
    30   -4.392322864905e-02
    31    9.463858313383e-01
    32    1.002324316065e+00
    33    1.025590903143e-01
    34    4.469047239694e-04
    35   -1.180744891427e-02
    36    1.400727213085e-02
    37   -2.363165715974e-01
    38   -1.016815704591e-02
    39    1.161933158908e-02
    40   -1.101787942027e+00
    41    4.895533987793e-02
    42    1.514675961575e-01
    43    1.154565277846e-02
    44   -1.139445689097e-02
    45    1.094584828898e+00
    46    1.486937306554e-01
    47    5.568398391316e-02
    48    1.027292838328e-02
Sym=X
Ene= 0.935891
Spin=Alpha
Occup=0
     1   -1.135139235349e-01
     2    1.276840680295e+00
     3   -1.809723411628e-01
     4    5.595123412983e-03
     5   -8.495376969469e-03
     6   -1.045551029341e-04
     7   -3.748915050404e-03
     8   -4.176156597369e-04
     9    4.717120940396e-01
    10    5.000733021347e-01
    11    5.354471200230e-02
    12   -1.462162130596e+00
    13   -1.541823481806e+00
    14   -1.653426829613e-01
    15   -5.859570021225e-04
    16   -5.935123119203e-03
    17    7.657670740136e-03
    18   -1.201223578602e-01
    19   -1.755879080462e-03
    20    1.172776164505e-01
    21   -1.287554635630e+00
    22    1.139233672876e-02
    23   -1.829722249236e-01
    24   -1.075491932204e-02
    25    1.082364658089e-04
    26   -1.352620548276e-03
    27    3.515697269140e-03
    28   -4.756490393069e-01
    29   -4.967114373191e-01
    30   -5.242532623614e-02
    31    1.472291914753e+00
    32    1.529795295514e+00
    33    1.619684037101e-01
    34   -8.254720721322e-04
    35   -6.075509516766e-03
    36    6.641521381588e-03
    37   -1.208549596348e-01
    38   -5.250836337429e-03
    39    1.169559946329e-01
    40   -1.280904056348e+00
    41   -1.352582457418e-02
    42    1.820605478380e-01
    43    1.005290874723e-02
    44   -1.154105163998e-01
    45    1.287691263816e+00
    46    1.820437775223e-01
    47   -5.321406107364e-03
    48    8.434232232375e-03
Sym=X
Ene= 0.972438
Spin=Alpha
Occup=0
     1   -6.450131993574e-02
     2    9.306663503580e-01
     3   -9.155782772679e-02
     4   -9.856313256657e-02
     5   -1.010454624082e-02
     6    2.536157052259e-02
     7    2.545149615573e-01
     8    5.160926473139e-01
     9    4.826583547195e-01
    10   -4.533288377478e-01
    11   -5.181360771417e-03
    12   -1.500010877431e+00
    13    1.402771362280e+00
    14    1.516949868197e-02
    15   -5.399009894007e-02
    16   -1.289982760866e-02
    17   -1.000266620027e-02
    18    1.303641851895e-02
    19   -3.017233708085e-01
    20   -6.252967731057e-02
    21    9.062439458396e-01
    22    9.532381878897e-02
    23    9.254344095943e-02
    24    1.056453827398e-02
    25   -2.515489148408e-02
    26   -2.362789489594e-01
    27   -5.463739773419e-01
    28    4.766993122902e-01
    29   -4.560822764689e-01
    30   -4.519073442760e-03
    31   -1.479354485802e+00
    32    1.420003764967e+00
    33    1.411720270104e-02
    34    5.283354669681e-02
    35    1.284504431358e-02
    36    1.001555943749e-02
    37   -1.435274149603e-02
    38    2.988685805502e-01
    39    6.210848404643e-02
    40   -9.115552989896e-01
    41    9.412463201375e-02
    42    9.309401259033e-02
    43    1.021772515606e-02
    44    6.584315622242e-02
    45   -9.065065267307e-01
    46   -8.833038677219e-02
    47   -9.777999206060e-02
    48   -1.003839640020e-02
[5D]

======= END OF MOLDEN-FORMATTED INPUT FILE =======


        *************************************************************
        *                                                           *
        *  Thank you very much for using Q-Chem.  Have a nice day.  *
        *                                                           *
        *************************************************************


