                  Welcome to Q-Chem
     A Quantum Leap Into The Future Of Chemistry


 Q-Chem 5.4 (devel), Q-Chem, Inc., Pleasanton, CA (2021)

 E. Epifanovsky,  A. T. B. Gilbert,  Xintian Feng,  Joonho Lee,  Yuezhi Mao,  
 N. Mardirossian,  P. Pokhilko,  A. White,  M. Wormit,  M. P. Coons,  
 A. L. Dempwolff,  Zhengting Gan,  D. Hait,  P. R. Horn,  L. D. Jacobson,  
 I. Kaliman,  J. Kussmann,  A. W. Lange,  Ka Un Lao,  D. S. Levine,  Jie Liu,  
 S. C. McKenzie,  A. F. Morrison,  K. Nanda,  F. Plasser,  D. R. Rehn,  
 M. L. Vidal,  Zhi-Qiang You,  Ying Zhu,  B. Alam,  B. Albrecht,  
 A. Aldossary,  E. Alguire,  J. H. Andersen,  D. Barton,  K. Begam,  A. Behn,  
 Y. A. Bernard,  E. J. Berquist,  H. Burton,  A. Carreras,  K. Carter-Fenk,  
 R. Chakraborty,  A. D. Chien,  K. D. Closser,  V. Cofer-Shabica,  
 S. Dasgupta,  Jia Deng,  M. de Wergifosse,  M. Diedenhofen,  Hainam Do,  
 S. Ehlert,  Po-Tung Fang,  S. Fatehi,  Qingguo Feng,  T. Friedhoff,  
 J. Gayvert,  Qinghui Ge,  G. Gidofalvi,  M. Goldey,  J. Gomes,  
 C. Gonzalez-Espinoza,  S. Gulania,  A. Gunina,  M. W. D. Hanson-Heine,  
 P. H. P. Harbach,  A. W. Hauser,  M. F. Herbst,  M. Hernandez Vera,  
 M. Hodecker,  Z. C. Holden,  S. Houck,  Xunkun Huang,  Kerwin Hui,  
 B. C. Huynh,  M. Ivanov,  Hyunjun Ji,  Hanjie Jiang,  B. Kaduk,  S. Kaehler,  
 K. Khistyaev,  Jaehoon Kim,  P. Klunzinger,  Z. Koczor-Benda,  
 Joong Hoon Koh,  D. Kosenkov,  L. Koulias,  T. Kowalczyk,  C. M. Krauter,  
 K. Kue,  A. Kunitsa,  T. Kus,  A. Landau,  K. V. Lawler,  D. Lefrancois,  
 S. Lehtola,  Rain Li,  Yi-Pei Li,  Jiashu Liang,  M. Liebenthal,  
 Hung-Hsuan Lin,  You-Sheng Lin,  Fenglai Liu,  Kuan-Yu Liu,  
 M. Loipersberger,  A. Luenser,  A. Manjanath,  P. Manohar,  E. Mansoor,  
 S. F. Manzer,  Shan-Ping Mao,  A. V. Marenich,  T. Markovich,  S. Mason,  
 S. A. Maurer,  P. F. McLaughlin,  M. F. S. J. Menger,  J.-M. Mewes,  
 S. A. Mewes,  P. Morgante,  J. W. Mullinax,  K. J. Oosterbaan,  G. Paran,  
 Alexander C. Paul,  Suranjan K. Paul,  F. Pavosevic,  Zheng Pei,  S. Prager,  
 E. I. Proynov,  E. Ramos,  B. Rana,  A. E. Rask,  A. Rettig,  R. M. Richard,  
 F. Rob,  E. Rossomme,  T. Scheele,  M. Scheurer,  M. Schneider,  
 N. Sergueev,  S. M. Sharada,  W. Skomorowski,  D. W. Small,  C. J. Stein,  
 Yu-Chuan Su,  E. J. Sundstrom,  Zhen Tao,  J. Thirman,  T. Tsuchimochi,  
 N. M. Tubman,  S. P. Veccham,  O. Vydrov,  J. Wenzel,  J. Witte,  A. Yamada,  
 Kun Yao,  S. Yeganeh,  S. R. Yost,  A. Zech,  Igor Ying Zhang,  Xing Zhang,  
 Yu Zhang,  D. Zuev,  A. Aspuru-Guzik,  A. T. Bell,  N. A. Besley,  
 K. B. Bravaya,  B. R. Brooks,  D. Casanova,  Jeng-Da Chai,  S. Coriani,  
 C. J. Cramer,  A. E. DePrince, III,  R. A. DiStasio Jr.,  A. Dreuw,  
 B. D. Dunietz,  T. R. Furlani,  W. A. Goddard III,  S. Grimme,  
 S. Hammes-Schiffer,  T. Head-Gordon,  W. J. Hehre,  Chao-Ping Hsu,  
 T.-C. Jagau,  Yousung Jung,  A. Klamt,  Jing Kong,  D. S. Lambrecht,  
 WanZhen Liang,  N. J. Mayhall,  C. W. McCurdy,  J. B. Neaton,  
 C. Ochsenfeld,  J. A. Parkhill,  R. Peverati,  V. A. Rassolov,  Yihan Shao,  
 L. V. Slipchenko,  T. Stauch,  R. P. Steele,  J. E. Subotnik,  
 A. J. W. Thom,  A. Tkatchenko,  D. G. Truhlar,  T. Van Voorhis,  
 T. A. Wesolowski,  K. B. Whaley,  H. L. Woodcock III,  P. M. Zimmerman,  
 S. Faraji,  P. M. W. Gill,  M. Head-Gordon,  J. M. Herbert,  A. I. Krylov

 Additional authors for Version 5.4.1: 
 S. Kotaru,  Shaozhi Li,  Xiangyuan Li,  F. Matz,  A. Molle,  Haisheng Ren,  
 Yingli Su,  Hung-Yi Tsai,  C. Utku,  Fang Wang

 Contributors to earlier versions of Q-Chem not listed above: 
 R. D. Adamson,  B. Austin,  R. Baer,  J. Baker,  G. J. O. Beran,  
 K. Brandhorst,  S. T. Brown,  E. F. C. Byrd,  A. K. Chakraborty,  
 G. K. L. Chan,  Chun-Min Chang,  Yunqing Chen,  C.-L. Cheng,  
 Siu Hung Chien,  D. M. Chipman,  D. L. Crittenden,  H. Dachsel,  
 R. J. Doerksen,  A. D. Dutoi,  R. G. Edgar,  J. Fosso-Tande,  
 L. Fusti-Molnar,  D. Ghosh,  A. Ghysels,  A. Golubeva-Zadorozhnaya,  
 J. Gonthier,  M. S. Gordon,  S. R. Gwaltney,  G. Hawkins,  J. E. Herr,  
 A. Heyden,  S. Hirata,  E. G. Hohenstein,  G. Kedziora,  F. J. Keil,  
 C. Kelley,  Jihan Kim,  R. A. King,  R. Z. Khaliullin,  P. P. Korambath,  
 W. Kurlancheek,  A. Laurent,  A. M. Lee,  M. S. Lee,  S. V. Levchenko,  
 Ching Yeh Lin,  D. Liotard,  E. Livshits,  R. C. Lochan,  I. Lotan,  
 L. A. Martinez-Martinez,  P. E. Maslen,  N. Nair,  D. P. O'Neill,  
 D. Neuhauser,  E. Neuscamman,  C. M. Oana,  R. Olivares-Amaya,  R. Olson,  
 T. M. Perrine,  B. Peters,  P. A. Pieniazek,  A. Prociuk,  Y. M. Rhee,  
 J. Ritchie,  M. A. Rohrdanz,  E. Rosta,  N. J. Russ,  H. F. Schaefer III,  
 M. W. Schmidt,  N. E. Schultz,  S. Sharma,  N. Shenvi,  C. D. Sherrill,  
 A. C. Simmonett,  A. Sodt,  T. Stein,  D. Stuck,  K. S. Thanthiriwatte,  
 V. Vanovschi,  L. Vogt,  Tao Wang,  A. Warshel,  M. A. Watson,  
 C. F. Williams,  Q. Wu,  X. Xu,  Jun Yang,  W. Zhang,  Yan Zhao

 Please cite Q-Chem as follows:
 Y. Shao et al., Mol. Phys. 113, 184-215 (2015)
 DOI: 10.1080/00268976.2014.952696

 Q-Chem 5.4.1 for Intel X86 EM64T Linux

 Parts of Q-Chem use Armadillo 9.800.1 (Horizon Scraper).
 http://arma.sourceforge.net/

 Q-Chem begins on Thu Nov 17 00:23:29 2022  

 Host: cpu316.baobab
0

     Scratch files written to /scratch/fum/qchem17604//
 Processing $rem in /home/share/wesolowski/qc5.aug2021.FDE/config/preferences:
 Processing $rem in /home/fum/.qchemrc:

 Checking the input file for inconsistencies... 	...done.

--------------------------------------------------------------
User input:
--------------------------------------------------------------
$comment
generated from CCJob.Templates
$end

$rem
sym_ignore = true
method = adc(2)
ee_states = 10
basis = cc-pVDZ
mem_static = 1024
mem_total = 30000
adc_davidson_maxiter = 900
adc_davidson_conv = 6
adc_print = 3
adc_prop_es = true
adc_prop_es2es = true
adc_prop_tpa = true
molden_format = True
state_analysis = true
print_orbitals = 15
gen_scfman = false
fde_export_density = true
fde_details = 3
$end

$molecule
0 1
H -0.0348278765 -0.2442097827 0.0586489606
C -1.0765972949 -0.5242748755 -0.0023551776
H -1.313264467 -1.5767591607 -0.0757276926
C -2.043634118 0.3926884087 0.0061254933
H -1.8137616575 1.4459188338 0.0804456828
H -3.085977293 0.114931858 -0.0593381042                     
$end
--------------------------------------------------------------
 ----------------------------------------------------------------
             Standard Nuclear Orientation (Angstroms)
    I     Atom           X                Y                Z
 ----------------------------------------------------------------
    1      H      -0.0348278765    -0.2442097827     0.0586489606
    2      C      -1.0765972949    -0.5242748755    -0.0023551776
    3      H      -1.3132644670    -1.5767591607    -0.0757276926
    4      C      -2.0436341180     0.3926884087     0.0061254933
    5      H      -1.8137616575     1.4459188338     0.0804456828
    6      H      -3.0859772930     0.1149318580    -0.0593381042
 ----------------------------------------------------------------
 Nuclear Repulsion Energy =          33.42460782 hartrees
 There are        8 alpha and        8 beta electrons
 Requested basis set is cc-pVDZ
 There are 24 shells and 48 basis functions
 Total memory of 30000 MB is distributed as follows: 
   MEM_STATIC is set to 1024 MB
   QALLOC/CCMAN JOB total memory use is  28976 MB
 Warning: actual memory use might exceed 30000 MB

 Total QAlloc Memory Limit  30000 MB
 Mega-Array Size      1001 MB
 MEM_STATIC part      1024 MB

                       Distance Matrix (Angstroms)
             H (  1)   C (  2)   H (  3)   C (  4)   H (  5)
   C (  2)  1.080482
   H (  3)  1.851525  1.081258
   C (  4)  2.108009  1.332687  2.102109
   H (  5)  2.453898  2.105215  3.067812  1.080583
   H (  6)  3.074478  2.109370  2.450428  1.080700  1.846510

 A cutoff of  1.0D-11 yielded    300 shell pairs
 There are      1220 function pairs (      1329 Cartesian)
 Smallest overlap matrix eigenvalue = 4.80E-03

 Scale SEOQF with 1.000000e-01/1.000000e-01/1.000000e+00

 Standard Electronic Orientation quadrupole field applied
 Nucleus-field energy     =     0.0000000022 hartrees
 Guess from superposition of atomic densities
 Warning:  Energy on first SCF cycle will be non-variational
 SAD guess density has 16.000000 electrons
 A restricted Hartree-Fock SCF calculation will be
 performed using Pulay DIIS extrapolation
 SCF converges when DIIS error is below 1.0E-08
 using 8 threads for integral computing
 -------------------------------------------------------
 OpenMP Integral computing Module                
 Release: version 1.0, May 2013, Q-Chem Inc. Pittsburgh 
 -------------------------------------------------------
 ---------------------------------------
  Cycle       Energy         DIIS Error
 ---------------------------------------
    1     -78.4390315093      1.01E-01
    2     -78.0176859235      7.21E-03
    3     -78.0383187751      1.84E-03
    4     -78.0398017279      5.73E-04
    5     -78.0399233584      5.79E-05
    6     -78.0399252341      9.30E-06
    7     -78.0399252947      2.18E-06
    8     -78.0399252975      8.40E-07
    9     -78.0399252977      9.20E-08
   10     -78.0399252977      9.84E-09 Convergence criterion met
 ---------------------------------------
 SCF time:  CPU 1.44 s  wall 1.95 s
 SCF   energy in the final basis set = -78.03992530
 Total energy in the final basis set = -78.03992530
Exporting Density Matrix to file 'Densmat_SCF.txt'.
Export successful
================================================================================
|                                                                              |
|                                 A D C  M A N                                 |
|                                                                              |
 ------------------------------------------------------------------------------ 
|                                                                              |
| Components:                                                                  |
|                                                                              |
| - libvmm - 1.3-trunk                                                         |
|   Authors:                                                                   |
|   Evgeny Epifanovsky, Ilya Kaliman                                           |
|                                                                              |
| - libtensor - 2.5-trunk                                                      |
|   Authors:                                                                   |
|   Evgeny Epifanovsky, Michael Wormit, Dmitry Zuev, Sam Manzer,               |
|   Ilya Kaliman                                                               |
|                                                                              |
| - libwfa - 1.1-trunk                                                         |
|   Authors:                                                                   |
|   Felix Plasser, Stefanie Mewes (Baeppler), Benjamin Thomitzni,              |
|   Michael Wormit, Feng Chen, Anna I. Krylov, Pavel Pokhilko                  |
|                                                                              |
| - libadc - 1.1-trunk                                                         |
|   Authors:                                                                   |
|   Michael Wormit, Adrian L. Dempwolff, Philipp H. P. Harbach,                |
|   Caroline Krauter, Dirk Rehn, Matthias Schneider, Jan Wenzel                |
|                                                                              |
| - adcman - 2.6-trunk                                                         |
|   Authors:                                                                   |
|   Michael Wormit, Adrian L. Dempwolff, Philipp H. P. Harbach,                |
|   Caroline Krauter, Daniel Lefrancois, Jan-Michael Mewes, Dirk Rehn,         |
|   Matthias Schneider, Jan Wenzel, Andreas Dreuw                              |
|                                                                              |
| Authors of earlier versions of ADCMAN:                                       |
| Andreas Dreuw, Jan Hendrik Starcke, Dirk Rehn, Michael Wormit                |
|                                                                              |
================================================================================

 Created directory /scratch/fum/qchem17604/plots
  Import QC data ...  CPU 0.00 s  wall 0.00 s

 Alpha MOs, Restricted
 -- Occupied --                  
-11.235 -11.233  -1.032  -0.790  -0.641  -0.582  -0.505  -0.374
  1 A     2 A     3 A     4 A     5 A     6 A     7 A     8 A                  
 -- Virtual --                   
  0.168   0.204   0.233   0.239   0.303   0.462   0.578   0.615
  9 A    10 A    11 A    12 A    13 A    14 A    15 A    16 A                  
  0.689   0.709   0.785   0.808   0.862   0.936   0.972   1.010
 17 A    18 A    19 A    20 A    21 A    22 A    23 A    24 A                  
  1.130   1.235   1.254   1.266   1.293   1.601   1.727   1.750
 25 A    26 A    27 A    28 A    29 A    30 A    31 A    32 A                  
  1.819   1.859   1.867   1.922   1.977   1.978   2.222   2.258
 33 A    34 A    35 A    36 A    37 A    38 A    39 A    40 A                  
  2.376   2.454   2.506   2.634   2.721   2.822   3.140   3.399
 41 A    42 A    43 A    44 A    45 A    46 A    47 A    48 A                  

 Beta MOs, Restricted
 -- Occupied --                  
-11.235 -11.233  -1.032  -0.790  -0.641  -0.582  -0.505  -0.374
  1 A     2 A     3 A     4 A     5 A     6 A     7 A     8 A                  
 -- Virtual --                   
  0.168   0.204   0.233   0.239   0.303   0.462   0.578   0.615
  9 A    10 A    11 A    12 A    13 A    14 A    15 A    16 A                  
  0.689   0.709   0.785   0.808   0.862   0.936   0.972   1.010
 17 A    18 A    19 A    20 A    21 A    22 A    23 A    24 A                  
  1.130   1.235   1.254   1.266   1.293   1.601   1.727   1.750
 25 A    26 A    27 A    28 A    29 A    30 A    31 A    32 A                  
  1.819   1.859   1.867   1.922   1.977   1.978   2.222   2.258
 33 A    34 A    35 A    36 A    37 A    38 A    39 A    40 A                  
  2.376   2.454   2.506   2.634   2.721   2.822   3.140   3.399
 41 A    42 A    43 A    44 A    45 A    46 A    47 A    48 A                  
  Import AO data ...  CPU 0.00 s  wall 0.00 s
  Using point group: C1
  Irreducible representations in point group: A
  Molecular orbitals: 
  Occupied MOs:
  Block   0:   1 (  A) A   2 (  A) A   3 (  A) A   4 (  A) A   5 (  A) A
                  -11.24      -11.23      -1.032     -0.7898     -0.6412
               6 (  A) A   7 (  A) A   8 (  A) A
                 -0.5819     -0.5046      -0.374
  Block   1:   1 (  A) B   2 (  A) B   3 (  A) B   4 (  A) B   5 (  A) B
                  -11.24      -11.23      -1.032     -0.7898     -0.6412
               6 (  A) B   7 (  A) B   8 (  A) B
                 -0.5819     -0.5046      -0.374
  Virtual MOs:
  Block   0:   9 (  A) A  10 (  A) A  11 (  A) A  12 (  A) A  13 (  A) A
                  0.1684      0.2037       0.233      0.2394      0.3033
              14 (  A) A  15 (  A) A  16 (  A) A  17 (  A) A  18 (  A) A
                  0.4621      0.5775      0.6151      0.6892      0.7089
              19 (  A) A  20 (  A) A  21 (  A) A  22 (  A) A
                  0.7846       0.808      0.8623       0.936
  Block   1:  23 (  A) A  24 (  A) A  25 (  A) A  26 (  A) A  27 (  A) A
                  0.9725        1.01        1.13       1.235       1.254
              28 (  A) A  29 (  A) A  30 (  A) A  31 (  A) A  32 (  A) A
                   1.266       1.293       1.601       1.727        1.75
              33 (  A) A  34 (  A) A  35 (  A) A  36 (  A) A
                   1.819       1.859       1.867       1.922
  Block   2:  37 (  A) A  38 (  A) A  39 (  A) A  40 (  A) A  41 (  A) A
                   1.977       1.978       2.222       2.258       2.376
              42 (  A) A  43 (  A) A  44 (  A) A  45 (  A) A  46 (  A) A
                   2.454       2.506       2.634       2.721       2.822
              47 (  A) A  48 (  A) A
                    3.14       3.399
  Block   3:   9 (  A) B  10 (  A) B  11 (  A) B  12 (  A) B  13 (  A) B
                  0.1684      0.2037       0.233      0.2394      0.3033
              14 (  A) B  15 (  A) B  16 (  A) B  17 (  A) B  18 (  A) B
                  0.4621      0.5775      0.6151      0.6892      0.7089
              19 (  A) B  20 (  A) B  21 (  A) B  22 (  A) B
                  0.7846       0.808      0.8623       0.936
  Block   4:  23 (  A) B  24 (  A) B  25 (  A) B  26 (  A) B  27 (  A) B
                  0.9725        1.01        1.13       1.235       1.254
              28 (  A) B  29 (  A) B  30 (  A) B  31 (  A) B  32 (  A) B
                   1.266       1.293       1.601       1.727        1.75
              33 (  A) B  34 (  A) B  35 (  A) B  36 (  A) B
                   1.819       1.859       1.867       1.922
  Block   5:  37 (  A) B  38 (  A) B  39 (  A) B  40 (  A) B  41 (  A) B
                   1.977       1.978       2.222       2.258       2.376
              42 (  A) B  43 (  A) B  44 (  A) B  45 (  A) B  46 (  A) B
                   2.454       2.506       2.634       2.721       2.822
              47 (  A) B  48 (  A) B
                    3.14       3.399
  Import MO data ...  CPU 0.00 s  wall 0.00 s
  Import HF data ...  CPU 0.63 s  wall 0.17 s
  Import 2e integrals ...  CPU 3.89 s  wall 0.58 s

--------------------------------------------------------------------------------
                                   HF Summary                                   
--------------------------------------------------------------------------------
  Energy:                                                  -78.0399252977 a.u.
  Dip. moment [a.u.]:                  [  -0.000583,    0.000745,   -0.000908]
  Total dipole [Debye]:                                               0.003334
  <r^2> [a.u.]:                        [ 175.320079,   34.918852,   11.623939]
  Total <r^2> [a.u.]:                                               221.862870
--------------------------------------------------------------------------------
  HF properties ...  CPU 0.01 s  wall 0.00 s
  MP(1) calculation ...  CPU 0.01 s  wall 0.00 s
  N^6 prerequesite intermediates ...  CPU 0.45 s  wall 0.08 s
  Difference density matrix of state mp2_gs printed to ASCII file 'State_mp2_gs_Difference.txt'
Exporting MP density matrix to file 'Densmat_MP.txt'.
Export successful
  Total density matrix of state mp2_gs printed to ASCII file 'State_mp2_gs_Total.txt'
Exporting MP density matrix to file 'Densmat_MP.txt'.
Export successful

--------------------------------------------------------------------------------
                                 MP(2) Summary                                  
--------------------------------------------------------------------------------
  MP energy contribution:                                   -0.2797001616 a.u.
  Total energy:                                            -78.3196254593 a.u.
  Dip. moment [a.u.]:                  [  -0.000578,    0.000636,   -0.000903]
  Total dipole [Debye]:                                               0.003168
  <r^2> [a.u.]:                        [ 175.366810,   34.959452,   11.455767]
  Total <r^2> [a.u.]:                                               221.782029

  Density matrix analysis:
  ------------------------
  NOs
    Occupation of frontier NOs:
       0.0453   1.9383
    Number of electrons: 16.000000
    Number of unpaired electrons: n_u =  0.40340, n_u,nl =  0.04507
    NO participation ratio (PR_NO): 13.857275
  
  
  Mulliken Population Analysis
  Atom      Charge (e)              h+              e-           Del q
  --------------------------------------------------------------------
   1 H        0.050873        0.014036       -0.011201        0.002836
   2 C       -0.100629        0.093202       -0.098838       -0.005637
   3 H        0.050524        0.014076       -0.011190        0.002886
   4 C       -0.101455        0.092986       -0.098899       -0.005914
   5 H        0.050130        0.014121       -0.011184        0.002937
   6 H        0.050557        0.014083       -0.011192        0.002891
  --------------------------------------------------------------------
  Sum:       -0.000000        0.242504       -0.242504        0.000000
  
  Multipole moment analysis of the density matrix
    Molecular charge:                      -0.000000
    Number of electrons:                   16.000000
      Center of electronic charge [Ang]: [ -1.560557,  -0.065623,   0.001696]
    Total nuclear charge:                  16.000000
      Center of nuclear charge [Ang]:    [ -1.560576,  -0.065602,   0.001666]
    Dipole moment [D]:                     0.003168
      Cartesian components [D]:          [ -0.001469,   0.001616,  -0.002294]
    RMS size of the density [Ang]:         1.200805
      Cartesian components [Ang]:        [  0.796174,   0.779453,   0.447765]
  
  Exciton analysis of the difference density matrix
    <r_h> [Ang]:                  [ -1.560480,  -0.065886,   0.001832]
    <r_e> [Ang]:                  [ -1.560490,  -0.065647,   0.001820]
    |<r_e - r_h>| [Ang]:            0.000240
    Hole size [Ang]:                1.393667
      Cartesian components [Ang]: [  0.846599,   0.834151,   0.727852]
    Electron size [Ang]:            1.359763
      Cartesian components [Ang]: [  0.877873,   0.861812,   0.579288]
--------------------------------------------------------------------------------
  MP(2) calculation ...  CPU 0.59 s  wall 0.17 s
  Start ADC(2)-s ...  CPU 0.01 s  wall 0.00 s
  ADC(2) intermediates ...  CPU 0.10 s  wall 0.02 s
  Starting Davidson for singlet states of irrep A ... 
--------------------------------------------------------------------------------
   It NVec Conv  Avg. Norm  Max. Norm  Conv. states           Remark
--------------------------------------------------------------------------------
        10    0  1.330e-01  4.687e-01  0.4119 n n n n n n n n Guess.
    1   20    0  2.304e-02  1.109e-01  0.3262 n n n n n n n n 
    2   30    0  5.862e-03  2.552e-02  0.3215 n n n n n n n n 
    3   40    0  2.023e-03  1.340e-02  0.3211 n n n n n n n n 
    4   50    0  5.802e-04  3.957e-03  0.3211 n n n n n n n n 
    5   20    0  2.682e-04  1.885e-03  0.3211 n n n n n n n n Subspace collapsed.
    6   30    0  1.613e-04  1.358e-03  0.3211 n n n n n n n n 
    7   40    0  1.316e-04  1.058e-03  0.3211 n n n n n n n n 
    8   50    0  1.245e-04  1.192e-03  0.3211 n n n n n n n n 
    9   20    1  6.129e-05  5.835e-04  0.3211 n y n n n n n n Subspace collapsed.
   10   30    3  4.451e-05  4.079e-04  0.3211 n y y y n n n n 
   11   40    4  2.625e-05  2.507e-04  0.3211 n y y y y n n n 
   12   50    6  3.274e-05  3.248e-04  0.3211 y y y y y y n n 
   13   20    6  2.085e-05  2.071e-04  0.3211 y y y y y y n n Subspace collapsed.
   14   30    6  2.562e-05  2.549e-04  0.3211 y y y y y y n n 
   15   40    6  2.380e-05  2.373e-04  0.3211 y y y y y y n n 
   16   50    6  2.644e-05  2.641e-04  0.3211 y y y y y y n n 
   17   20    6  1.305e-05  1.303e-04  0.3211 y y y y y y n n Subspace collapsed.
   18   30    6  1.183e-05  1.182e-04  0.3211 y y y y y y n n 
   19   40    8  7.647e-06  7.640e-05  0.3211 y y y y y y y y 
   20   50    8  8.405e-06  8.401e-05  0.3211 y y y y y y y y 
   21   20    8  4.590e-06  4.588e-05  0.3211 y y y y y y y y Subspace collapsed.
   22   30    8  5.990e-06  5.988e-05  0.3211 y y y y y y y y 
   23   31    8  6.121e-06  6.119e-05  0.3211 y y y y y y y y 
   24   33    8  6.043e-06  6.041e-05  0.3211 y y y y y y y y 
   25   41    8  6.512e-06  6.510e-05  0.3211 y y y y y y y y 
   26   49    9  6.584e-06  6.583e-05  0.3211 y y y y y y y y 
   27   49    9  6.584e-06  6.583e-05  0.3211 y y y y y y y y 
   28   50    9  6.667e-06  6.666e-05  0.3211 y y y y y y y y 
   29   16    9  3.077e-06  3.077e-05  0.3211 y y y y y y y y Subspace collapsed.
   30   22    9  2.882e-06  2.882e-05  0.3211 y y y y y y y y 
   31   28    9  1.886e-06  1.886e-05  0.3211 y y y y y y y y 
   32   33    9  1.782e-06  1.782e-05  0.3211 y y y y y y y y 
   33   33    9  1.782e-06  1.782e-05  0.3211 y y y y y y y y 
   34   43    9  2.045e-06  2.045e-05  0.3211 y y y y y y y y 
   35   47    9  1.908e-06  1.908e-05  0.3211 y y y y y y y y 
   36   50    9  9.305e-07  9.304e-06  0.3211 y y y y y y y y 
   37   14    9  4.934e-07  4.934e-06  0.3211 y y y y y y y y Subspace collapsed.
   38   18    9  3.284e-07  3.284e-06  0.3211 y y y y y y y y 
   39   22    9  1.685e-07  1.685e-06  0.3211 y y y y y y y y 
   40   26    9  1.073e-07  1.073e-06  0.3211 y y y y y y y y 
   41   30   10  7.749e-08  7.749e-07  0.3211 y y y y y y y y Converged.
--------------------------------------------------------------------------------
  Davidson Summary: 
 ------------------------------------------------------------
  State  0: excitation energy =   0.3211 a.u.   (converged)
  State  1: excitation energy =   0.3328 a.u.   (converged)
  State  2: excitation energy =   0.3370 a.u.   (converged)
  State  3: excitation energy =   0.3614 a.u.   (converged)
  State  4: excitation energy =   0.3753 a.u.   (converged)
  State  5: excitation energy =   0.3872 a.u.   (converged)
  State  6: excitation energy =   0.4247 a.u.   (converged)
  State  7: excitation energy =   0.4471 a.u.   (converged)
  State  8: excitation energy =   0.4563 a.u.   (converged)
  State  9: excitation energy =   0.4647 a.u.   (converged)
 ------------------------------------------------------------

  Singlet states of irrep A ...  CPU 96.78 s  wall 31.25 s
  TDMs ...  CPU 0.84 s  wall 0.31 s
  SDMs ...  CPU 3.07 s  wall 0.78 s
  Starting TPA DIIS iterations ... 
------------------------------------ 
   It     Res. Norm  Remark
------------------------------------
                       Guess.
    1     4.406e+00  
    2     5.841e+00  
    3     1.077e+00  
    4     2.566e-01  
    5     6.575e-02  
    6     2.674e-02  
    7     8.238e-03  
    8     1.441e-03  
    9     5.340e-04  
   10     9.096e-05  
   11     2.840e-05  
   12     5.081e-06  
   13     1.683e-06  
   14     8.577e-07  Converged.
   ... Converged in 14 steps (norm: 8.5768e-07)
------------------------------------
  Starting TPA DIIS iterations ... 
------------------------------------ 
   It     Res. Norm  Remark
------------------------------------
                       Guess.
    1     4.185e+00  
    2     5.541e+00  
    3     1.029e+00  
    4     2.555e-01  
    5     6.535e-02  
    6     2.673e-02  
    7     8.116e-03  
    8     1.454e-03  
    9     5.369e-04  
   10     9.051e-05  
   11     2.853e-05  
   12     4.855e-06  
   13     1.724e-06  
   14     7.791e-07  Converged.
   ... Converged in 14 steps (norm: 7.79126e-07)
------------------------------------
  Starting TPA DIIS iterations ... 
------------------------------------ 
   It     Res. Norm  Remark
------------------------------------
                       Guess.
    1     6.874e-01  
    2     4.822e-01  
    3     1.702e-01  
    4     5.377e-02  
    5     1.834e-02  
    6     6.809e-03  
    7     1.035e-03  
    8     4.476e-04  
    9     1.235e-04  
   10     3.004e-05  
   11     4.996e-06  
   12     1.490e-06  
   13     7.225e-07  Converged.
   ... Converged in 13 steps (norm: 7.22459e-07)
------------------------------------
  Starting TPA DIIS iterations ... 
------------------------------------ 
   It     Res. Norm  Remark
------------------------------------
                       Guess.
    1     4.694e+00  
    2     6.358e+00  
    3     1.158e+00  
    4     2.852e-01  
    5     7.409e-02  
    6     3.039e-02  
    7     9.345e-03  
    8     1.632e-03  
    9     6.094e-04  
   10     1.045e-04  
   11     3.296e-05  
   12     6.058e-06  
   13     2.026e-06  
   14     1.078e-06  
   15     2.769e-07  Converged.
   ... Converged in 15 steps (norm: 2.76925e-07)
------------------------------------
  Starting TPA DIIS iterations ... 
------------------------------------ 
   It     Res. Norm  Remark
------------------------------------
                       Guess.
    1     4.457e+00  
    2     6.031e+00  
    3     1.107e+00  
    4     2.838e-01  
    5     7.366e-02  
    6     3.040e-02  
    7     9.209e-03  
    8     1.648e-03  
    9     6.127e-04  
   10     1.040e-04  
   11     3.308e-05  
   12     5.758e-06  
   13     2.073e-06  
   14     9.714e-07  Converged.
   ... Converged in 14 steps (norm: 9.71429e-07)
------------------------------------
  Starting TPA DIIS iterations ... 
------------------------------------ 
   It     Res. Norm  Remark
------------------------------------
                       Guess.
    1     6.994e-01  
    2     4.996e-01  
    3     1.800e-01  
    4     6.062e-02  
    5     1.985e-02  
    6     7.422e-03  
    7     1.169e-03  
    8     5.277e-04  
    9     1.494e-04  
   10     3.449e-05  
   11     5.653e-06  
   12     1.753e-06  
   13     9.080e-07  Converged.
   ... Converged in 13 steps (norm: 9.08044e-07)
------------------------------------
  Starting TPA DIIS iterations ... 
------------------------------------ 
   It     Res. Norm  Remark
------------------------------------
                       Guess.
    1     4.807e+00  
    2     6.564e+00  
    3     1.190e+00  
    4     2.968e-01  
    5     7.747e-02  
    6     3.188e-02  
    7     9.794e-03  
    8     1.709e-03  
    9     6.402e-04  
   10     1.100e-04  
   11     3.485e-05  
   12     6.471e-06  
   13     2.172e-06  
   14     1.175e-06  
   15     2.996e-07  Converged.
   ... Converged in 15 steps (norm: 2.99607e-07)
------------------------------------
  Starting TPA DIIS iterations ... 
------------------------------------ 
   It     Res. Norm  Remark
------------------------------------
                       Guess.
    1     4.565e+00  
    2     6.226e+00  
    3     1.137e+00  
    4     2.952e-01  
    5     7.702e-02  
    6     3.189e-02  
    7     9.653e-03  
    8     1.727e-03  
    9     6.435e-04  
   10     1.094e-04  
   11     3.495e-05  
   12     6.137e-06  
   13     2.222e-06  
   14     1.055e-06  
   15     3.100e-07  Converged.
   ... Converged in 15 steps (norm: 3.10007e-07)
------------------------------------
  Starting TPA DIIS iterations ... 
------------------------------------ 
   It     Res. Norm  Remark
------------------------------------
                       Guess.
    1     7.039e-01  
    2     5.062e-01  
    3     1.838e-01  
    4     6.344e-02  
    5     2.042e-02  
    6     7.670e-03  
    7     1.224e-03  
    8     5.613e-04  
    9     1.603e-04  
   10     3.596e-05  
   11     5.912e-06  
   12     1.864e-06  
   13     9.901e-07  Converged.
   ... Converged in 13 steps (norm: 9.9008e-07)
------------------------------------
  Starting TPA DIIS iterations ... 
------------------------------------ 
   It     Res. Norm  Remark
------------------------------------
                       Guess.
    1     5.547e+00  
    2     7.945e+00  
    3     1.398e+00  
    4     3.769e-01  
    5     1.008e-01  
    6     4.225e-02  
    7     1.290e-02  
    8     2.243e-03  
    9     8.545e-04  
   10     1.489e-04  
   11     4.835e-05  
   12     9.580e-06  
   13     3.297e-06  
   14     1.964e-06  
   15     4.825e-07  Converged.
   ... Converged in 15 steps (norm: 4.82459e-07)
------------------------------------
  Starting TPA DIIS iterations ... 
------------------------------------ 
   It     Res. Norm  Remark
------------------------------------
                       Guess.
    1     5.265e+00  
    2     7.535e+00  
    3     1.335e+00  
    4     3.742e-01  
    5     1.003e-01  
    6     4.235e-02  
    7     1.272e-02  
    8     2.268e-03  
    9     8.586e-04  
   10     1.479e-04  
   11     4.831e-05  
   12     8.960e-06  
   13     3.351e-06  
   14     1.729e-06  
   15     4.706e-07  Converged.
   ... Converged in 15 steps (norm: 4.706e-07)
------------------------------------
  Starting TPA DIIS iterations ... 
------------------------------------ 
   It     Res. Norm  Remark
------------------------------------
                       Guess.
    1     7.307e-01  
    2     5.473e-01  
    3     2.081e-01  
    4     8.372e-02  
    5     2.407e-02  
    6     9.387e-03  
    7     1.621e-03  
    8     7.993e-04  
    9     2.358e-04  
   10     4.164e-05  
   11     7.653e-06  
   12     2.682e-06  
   13     1.659e-06  
   14     5.738e-07  Converged.
   ... Converged in 14 steps (norm: 5.73761e-07)
------------------------------------
  Starting TPA DIIS iterations ... 
------------------------------------ 
   It     Res. Norm  Remark
------------------------------------
                       Guess.
    1     6.058e+00  
    2     8.930e+00  
    3     1.540e+00  
    4     4.363e-01  
    5     1.181e-01  
    6     5.004e-02  
    7     1.520e-02  
    8     2.637e-03  
    9     1.015e-03  
   10     1.782e-04  
   11     5.880e-05  
   12     1.216e-05  
   13     4.258e-06  
   14     2.685e-06  
   15     6.518e-07  Converged.
   ... Converged in 15 steps (norm: 6.51842e-07)
------------------------------------
  Starting TPA DIIS iterations ... 
------------------------------------ 
   It     Res. Norm  Remark
------------------------------------
                       Guess.
    1     5.749e+00  
    2     8.470e+00  
    3     1.470e+00  
    4     4.327e-01  
    5     1.175e-01  
    6     5.020e-02  
    7     1.500e-02  
    8     2.669e-03  
    9     1.020e-03  
   10     1.769e-04  
   11     5.856e-05  
   12     1.127e-05  
   13     4.295e-06  
   14     2.334e-06  
   15     5.987e-07  Converged.
   ... Converged in 15 steps (norm: 5.98652e-07)
------------------------------------
  Starting TPA DIIS iterations ... 
------------------------------------ 
   It     Res. Norm  Remark
------------------------------------
                       Guess.
    1     7.470e-01  
    2     5.737e-01  
    3     2.243e-01  
    4     9.946e-02  
    5     2.654e-02  
    6     1.067e-02  
    7     1.932e-03  
    8     9.712e-04  
    9     2.894e-04  
   10     4.279e-05  
   11     8.931e-06  
   12     3.338e-06  
   13     2.258e-06  
   14     7.303e-07  Converged.
   ... Converged in 14 steps (norm: 7.30304e-07)
------------------------------------
  Starting TPA DIIS iterations ... 
------------------------------------ 
   It     Res. Norm  Remark
------------------------------------
                       Guess.
    1     6.558e+00  
    2     9.920e+00  
    3     1.678e+00  
    4     4.974e-01  
    5     1.359e-01  
    6     5.812e-02  
    7     1.757e-02  
    8     3.042e-03  
    9     1.182e-03  
   10     2.087e-04  
   11     6.984e-05  
   12     1.506e-05  
   13     5.358e-06  
   14     3.552e-06  
   15     8.616e-07  Converged.
   ... Converged in 15 steps (norm: 8.616e-07)
------------------------------------
  Starting TPA DIIS iterations ... 
------------------------------------ 
   It     Res. Norm  Remark
------------------------------------
                       Guess.
    1     6.222e+00  
    2     9.407e+00  
    3     1.601e+00  
    4     4.928e-01  
    5     1.353e-01  
    6     5.835e-02  
    7     1.734e-02  
    8     3.079e-03  
    9     1.187e-03  
   10     2.070e-04  
   11     6.933e-05  
   12     1.382e-05  
   13     5.352e-06  
   14     3.052e-06  
   15     7.377e-07  Converged.
   ... Converged in 15 steps (norm: 7.37653e-07)
------------------------------------
  Starting TPA DIIS iterations ... 
------------------------------------ 
   It     Res. Norm  Remark
------------------------------------
                       Guess.
    1     7.614e-01  
    2     5.982e-01  
    3     2.397e-01  
    4     1.162e-01  
    5     2.900e-02  
    6     1.200e-02  
    7     2.265e-03  
    8     1.135e-03  
    9     3.408e-04  
   10     4.316e-05  
   11     1.027e-05  
   12     4.049e-06  
   13     2.953e-06  
   14     9.022e-07  Converged.
   ... Converged in 14 steps (norm: 9.02162e-07)
------------------------------------
  Starting TPA DIIS iterations ... 
------------------------------------ 
   It     Res. Norm  Remark
------------------------------------
                       Guess.
    1     8.666e+00  
    2     1.433e+01  
    3     2.251e+00  
    4     7.826e-01  
    5     2.192e-01  
    6     9.665e-02  
    7     2.865e-02  
    8     4.926e-03  
    9     1.977e-03  
   10     3.555e-04  
   11     1.237e-04  
   12     3.166e-05  
   13     1.208e-05  
   14     9.318e-06  
   15     2.432e-06  
   16     1.862e-06  
   17     4.236e-07  Converged.
   ... Converged in 17 steps (norm: 4.23628e-07)
------------------------------------
  Starting TPA DIIS iterations ... 
------------------------------------ 
   It     Res. Norm  Remark
------------------------------------
                       Guess.
    1     8.219e+00  
    2     1.359e+01  
    3     2.147e+00  
    4     7.725e-01  
    5     2.183e-01  
    6     9.730e-02  
    7     2.830e-02  
    8     4.988e-03  
    9     1.979e-03  
   10     3.508e-04  
   11     1.210e-04  
   12     2.807e-05  
   13     1.125e-05  
   14     7.733e-06  
   15     1.537e-06  
   16     1.423e-06  
   17     2.739e-07  Converged.
   ... Converged in 17 steps (norm: 2.73882e-07)
------------------------------------
  Starting TPA DIIS iterations ... 
------------------------------------ 
   It     Res. Norm  Remark
------------------------------------
                       Guess.
    1     8.112e-01  
    2     6.906e-01  
    3     3.007e-01  
    4     1.981e-01  
    5     4.014e-02  
    6     1.819e-02  
    7     3.930e-03  
    8     1.654e-03  
    9     5.389e-04  
   10     5.139e-05  
   11     1.694e-05  
   12     7.709e-06  
   13     6.955e-06  
   14     1.845e-06  
   15     6.537e-07  Converged.
   ... Converged in 15 steps (norm: 6.53672e-07)
------------------------------------
  Starting TPA DIIS iterations ... 
------------------------------------ 
   It     Res. Norm  Remark
------------------------------------
                       Guess.
    1     1.049e+01  
    2     1.843e+01  
    3     2.734e+00  
    4     1.057e+00  
    5     2.999e-01  
    6     1.349e-01  
    7     3.940e-02  
    8     6.746e-03  
    9     2.765e-03  
   10     5.027e-04  
   11     1.775e-04  
   12     5.251e-05  
   13     2.159e-05  
   14     1.758e-05  
   15     4.986e-06  
   16     3.383e-06  
   17     8.350e-07  Converged.
   ... Converged in 17 steps (norm: 8.35048e-07)
------------------------------------
  Starting TPA DIIS iterations ... 
------------------------------------ 
   It     Res. Norm  Remark
------------------------------------
                       Guess.
    1     9.946e+00  
    2     1.747e+01  
    3     2.606e+00  
    4     1.040e+00  
    5     2.989e-01  
    6     1.361e-01  
    7     3.893e-02  
    8     6.828e-03  
    9     2.761e-03  
   10     4.936e-04  
   11     1.714e-04  
   12     4.548e-05  
   13     1.841e-05  
   14     1.445e-05  
   15     2.734e-06  
   16     2.752e-06  
   17     5.005e-07  Converged.
   ... Converged in 17 steps (norm: 5.00509e-07)
------------------------------------
  Starting TPA DIIS iterations ... 
------------------------------------ 
   It     Res. Norm  Remark
------------------------------------
                       Guess.
    1     8.443e-01  
    2     7.600e-01  
    3     3.493e-01  
    4     2.779e-01  
    5     5.074e-02  
    6     2.388e-02  
    7     5.610e-03  
    8     1.868e-03  
    9     6.909e-04  
   10     6.918e-05  
   11     2.394e-05  
   12     1.159e-05  
   13     1.162e-05  
   14     2.977e-06  
   15     1.133e-06  
   16     8.769e-07  Converged.
   ... Converged in 16 steps (norm: 8.76872e-07)
------------------------------------
  Starting TPA DIIS iterations ... 
------------------------------------ 
   It     Res. Norm  Remark
------------------------------------
                       Guess.
    1     1.143e+01  
    2     2.063e+01  
    3     2.978e+00  
    4     1.206e+00  
    5     3.442e-01  
    6     1.562e-01  
    7     4.529e-02  
    8     7.742e-03  
    9     3.203e-03  
   10     5.848e-04  
   11     2.075e-04  
   12     6.583e-05  
   13     2.832e-05  
   14     2.312e-05  
   15     6.768e-06  
   16     4.339e-06  
   17     1.082e-06  
   18     3.895e-07  Converged.
   ... Converged in 18 steps (norm: 3.8946e-07)
------------------------------------
  Starting TPA DIIS iterations ... 
------------------------------------ 
   It     Res. Norm  Remark
------------------------------------
                       Guess.
    1     1.084e+01  
    2     1.956e+01  
    3     2.838e+00  
    4     1.185e+00  
    5     3.431e-01  
    6     1.576e-01  
    7     4.475e-02  
    8     7.833e-03  
    9     3.195e-03  
   10     5.729e-04  
   11     1.989e-04  
   12     5.648e-05  
   13     2.304e-05  
   14     1.902e-05  
   15     3.639e-06  
   16     3.662e-06  
   17     6.457e-07  Converged.
   ... Converged in 17 steps (norm: 6.45703e-07)
------------------------------------
  Starting TPA DIIS iterations ... 
------------------------------------ 
   It     Res. Norm  Remark
------------------------------------
                       Guess.
    1     8.589e-01  
    2     7.930e-01  
    3     3.731e-01  
    4     3.197e-01  
    5     5.644e-02  
    6     2.677e-02  
    7     6.526e-03  
    8     1.926e-03  
    9     7.648e-04  
   10     8.005e-05  
   11     2.797e-05  
   12     1.385e-05  
   13     1.443e-05  
   14     3.692e-06  
   15     1.503e-06  
   16     1.157e-06  
   17     5.539e-07  Converged.
   ... Converged in 17 steps (norm: 5.53915e-07)
------------------------------------
  Starting TPA DIIS iterations ... 
------------------------------------ 
   It     Res. Norm  Remark
------------------------------------
                       Guess.
    1     1.240e+01  
    2     2.298e+01  
    3     3.229e+00  
    4     1.365e+00  
    5     3.919e-01  
    6     1.793e-01  
    7     5.164e-02  
    8     8.816e-03  
    9     3.678e-03  
   10     6.744e-04  
   11     2.403e-04  
   12     8.162e-05  
   13     3.685e-05  
   14     2.978e-05  
   15     8.911e-06  
   16     5.468e-06  
   17     1.349e-06  
   18     4.928e-07  Converged.
   ... Converged in 18 steps (norm: 4.92777e-07)
------------------------------------
  Starting TPA DIIS iterations ... 
------------------------------------ 
   It     Res. Norm  Remark
------------------------------------
                       Guess.
    1     1.176e+01  
    2     2.179e+01  
    3     3.076e+00  
    4     1.340e+00  
    5     3.907e-01  
    6     1.810e-01  
    7     5.103e-02  
    8     8.914e-03  
    9     3.665e-03  
   10     6.590e-04  
   11     2.287e-04  
   12     6.947e-05  
   13     2.870e-05  
   14     2.458e-05  
   15     4.831e-06  
   16     4.798e-06  
   17     8.077e-07  Converged.
   ... Converged in 17 steps (norm: 8.07686e-07)
------------------------------------
  Starting TPA DIIS iterations ... 
------------------------------------ 
   It     Res. Norm  Remark
------------------------------------
                       Guess.
    1     8.728e-01  
    2     8.257e-01  
    3     3.970e-01  
    4     3.625e-01  
    5     6.250e-02  
    6     2.967e-02  
    7     7.501e-03  
    8     1.969e-03  
    9     8.395e-04  
   10     9.182e-05  
   11     3.248e-05  
   12     1.642e-05  
   13     1.764e-05  
   14     4.543e-06  
   15     2.002e-06  
   16     1.493e-06  
   17     7.471e-07  Converged.
   ... Converged in 17 steps (norm: 7.47096e-07)
------------------------------------
  Two-photon absorbption ...  CPU 88.95 s  wall 22.08 s
  Transition density matrix of state singlet_A_1 printed to ASCII file 'State_singlet_A_1_Transition.txt'
  Transition density matrix of state singlet_A_2 printed to ASCII file 'State_singlet_A_2_Transition.txt'
  Transition density matrix of state singlet_A_3 printed to ASCII file 'State_singlet_A_3_Transition.txt'
  Transition density matrix of state singlet_A_4 printed to ASCII file 'State_singlet_A_4_Transition.txt'
  Transition density matrix of state singlet_A_5 printed to ASCII file 'State_singlet_A_5_Transition.txt'
  Transition density matrix of state singlet_A_6 printed to ASCII file 'State_singlet_A_6_Transition.txt'
  Transition density matrix of state singlet_A_7 printed to ASCII file 'State_singlet_A_7_Transition.txt'
  Transition density matrix of state singlet_A_8 printed to ASCII file 'State_singlet_A_8_Transition.txt'
  Transition density matrix of state singlet_A_9 printed to ASCII file 'State_singlet_A_9_Transition.txt'
  Transition density matrix of state singlet_A_10 printed to ASCII file 'State_singlet_A_10_Transition.txt'
  Transition properties ...  CPU 0.13 s  wall 0.41 s
  Difference density matrix of state singlet_A_1 printed to ASCII file 'State_singlet_A_1_Difference.txt'
  Total density matrix of state singlet_A_1 printed to ASCII file 'State_singlet_A_1_Total.txt'
  Difference density matrix of state singlet_A_2 printed to ASCII file 'State_singlet_A_2_Difference.txt'
  Total density matrix of state singlet_A_2 printed to ASCII file 'State_singlet_A_2_Total.txt'
  Difference density matrix of state singlet_A_3 printed to ASCII file 'State_singlet_A_3_Difference.txt'
  Total density matrix of state singlet_A_3 printed to ASCII file 'State_singlet_A_3_Total.txt'
  Difference density matrix of state singlet_A_4 printed to ASCII file 'State_singlet_A_4_Difference.txt'
  Total density matrix of state singlet_A_4 printed to ASCII file 'State_singlet_A_4_Total.txt'
  Difference density matrix of state singlet_A_5 printed to ASCII file 'State_singlet_A_5_Difference.txt'
  Total density matrix of state singlet_A_5 printed to ASCII file 'State_singlet_A_5_Total.txt'
  Difference density matrix of state singlet_A_6 printed to ASCII file 'State_singlet_A_6_Difference.txt'
  Total density matrix of state singlet_A_6 printed to ASCII file 'State_singlet_A_6_Total.txt'
  Difference density matrix of state singlet_A_7 printed to ASCII file 'State_singlet_A_7_Difference.txt'
  Total density matrix of state singlet_A_7 printed to ASCII file 'State_singlet_A_7_Total.txt'
  Difference density matrix of state singlet_A_8 printed to ASCII file 'State_singlet_A_8_Difference.txt'
  Total density matrix of state singlet_A_8 printed to ASCII file 'State_singlet_A_8_Total.txt'
  Difference density matrix of state singlet_A_9 printed to ASCII file 'State_singlet_A_9_Difference.txt'
  Total density matrix of state singlet_A_9 printed to ASCII file 'State_singlet_A_9_Total.txt'
  Difference density matrix of state singlet_A_10 printed to ASCII file 'State_singlet_A_10_Difference.txt'
  Total density matrix of state singlet_A_10 printed to ASCII file 'State_singlet_A_10_Total.txt'
  Properties ...  CPU 0.29 s  wall 0.63 s
  ISR TDMS ...  CPU 16.08 s  wall 4.41 s
  ISR transition properties ...  CPU 0.26 s  wall 0.10 s
  Sum-over-states TPA ...  CPU 0.00 s  wall 0.00 s

--------------------------------------------------------------------------------
                   State-averaged natural transition orbitals
--------------------------------------------------------------------------------
--------------------------------------------------------------------------------
  SA-NTO decomposition ...  CPU 0.01 s  wall 0.02 s

--------------------------------------------------------------------------------
                             Excited State Summary
--------------------------------------------------------------------------------
--------------------------------------------------------------------------------

  Excited state 1 (singlet, A)                                     [converged]
  ----------------------------------------------------------------------------
  Term symbol:  2 (1) A                                     R^2 =  1.06390e-13

  Total energy:                                            -77.9985504111 a.u.
  Excitation energy:                                               8.736896 eV

  Osc. strength:                                                      0.445388
  Trans. dip. moment [a.u.]:           [  -1.045238,    0.994063,    0.009006]
  <i|r^2|0> [a.u.]:                    [  -6.165912,    0.246808,    0.002920]
  Two-photon absorption cross-section (SoS) [a.u.]:                   0.000453
  Two-photon absorption matrix (SoS) [a.u.]:
                                       |   -0.005774    0.001238   -0.000509 |
                                       |    0.001238   -0.001095    0.000747 |
                                       |   -0.000509    0.000747   -0.003938 |
  Two-photon absorption cross-section [a.u.]:                         0.002308
  Two-photon absorption matrix [a.u.]:
                                       |    0.000312    0.003507   -0.011942 |
                                       |    0.003507    0.007670   -0.009426 |
                                       |   -0.011942   -0.009426   -0.005146 |

  Dip. moment [a.u.]:                  [  -0.000518,    0.000459,   -0.001123]
  Total dipole [Debye]:                                               0.003353
  <r^2> [a.u.]:                        [ 176.120067,   35.648525,   11.866435]
  Total <r^2> [a.u.]:                                               223.635027

  V1^2 = 0.9715, V2^2 = 0.0285

  Important amplitudes:
      occ i     occ j     vir a      vir b          v   
    -----------------------------------------------------
     8 (A) A              9 (A) A                 0.6810
     6 (A) A             14 (A) A                 0.0623
     4 (A) A             10 (A) A                 0.0606
     7 (A) A             16 (A) A                -0.0569
     5 (A) A             13 (A) A                 0.0513
     6 (A) A             23 (A) A                 0.0486
     8 (A) A             20 (A) A                -0.0350
     6 (A) A             19 (A) A                 0.0309
     3 (A) A             12 (A) A                -0.0281
     5 (A) A             22 (A) A                -0.0215
     7 (A) A             11 (A) A                -0.0209
     4 (A) A             24 (A) A                 0.0187
     3 (A) A             26 (A) A                 0.0185
     8 (A) A   8 (A) B   17 (A) A   20 (A) B      0.0184
     8 (A) A   8 (A) B    9 (A) A   28 (A) B      0.0168
     6 (A) A             26 (A) A                 0.0163
     7 (A) A             21 (A) A                -0.0148
     3 (A) A             14 (A) A                 0.0139
     7 (A) A              9 (A) A                -0.0134
     6 (A) A             12 (A) A                 0.0132
     3 (A) A   4 (A) B    9 (A) A    9 (A) B     -0.0129
     3 (A) A             19 (A) A                 0.0119
     8 (A) A   8 (A) B   18 (A) A   19 (A) B     -0.0113
     7 (A) A             32 (A) A                -0.0096
     7 (A) A             36 (A) A                -0.0086
     3 (A) A             23 (A) A                 0.0080
     8 (A) A   8 (A) B   25 (A) A   29 (A) B     -0.0076
     6 (A) A             35 (A) A                 0.0072
     6 (A) A             40 (A) A                 0.0068
     3 (A) A   6 (A) B    9 (A) A   28 (A) B      0.0065
     6 (A) A   8 (A) A   19 (A) A   28 (A) A     -0.0061
     5 (A) A   7 (A) B    9 (A) A    9 (A) B      0.0060
     5 (A) A   8 (A) B   11 (A) A   20 (A) B      0.0059
     7 (A) A   8 (A) B   13 (A) A   20 (A) B     -0.0059
     5 (A) A   8 (A) B   16 (A) A    9 (A) B     -0.0059
     5 (A) A   8 (A) B   11 (A) A    9 (A) B      0.0059
     3 (A) A   5 (A) B    9 (A) A   25 (A) B     -0.0058
     3 (A) A             40 (A) A                 0.0057
     7 (A) A   8 (A) B   22 (A) A   20 (A) B      0.0057
     6 (A) A   8 (A) A    9 (A) A   18 (A) A     -0.0057
    -----------------------------------------------------

  Density matrix analysis:
  ------------------------
  NOs
    Occupation of frontier NOs:
       0.9495   1.0217
    Number of electrons: 16.000000
    Number of unpaired electrons: n_u =  2.31339, n_u,nl =  2.03263
    NO participation ratio (PR_NO):  2.863795
  
  
  Mulliken Population Analysis
  Atom      Charge (e)              h+              e-           Del q
  --------------------------------------------------------------------
   1 H        0.058663        0.020327       -0.012538        0.007790
   2 C       -0.115949        0.490769       -0.506088       -0.015320
   3 H        0.058155        0.020230       -0.012599        0.007631
   4 C       -0.117110        0.490611       -0.506266       -0.015655
   5 H        0.057821        0.020245       -0.012554        0.007691
   6 H        0.058420        0.020378       -0.012514        0.007863
  --------------------------------------------------------------------
  Sum:       -0.000000        1.062560       -1.062560        0.000000
  
  Multipole moment analysis of the density matrix
    Molecular charge:                      -0.000000
    Number of electrons:                   16.000000
      Center of electronic charge [Ang]: [ -1.560559,  -0.065617,   0.001703]
    Total nuclear charge:                  16.000000
      Center of nuclear charge [Ang]:    [ -1.560576,  -0.065602,   0.001666]
    Dipole moment [D]:                     0.003353
      Cartesian components [D]:          [ -0.001317,   0.001165,  -0.002855]
    RMS size of the density [Ang]:         1.214232
      Cartesian components [Ang]:        [  0.804407,   0.787151,   0.455720]
  
  Exciton analysis of the difference density matrix
    <r_h> [Ang]:                  [ -1.560263,  -0.065827,   0.002151]
    <r_e> [Ang]:                  [ -1.560293,  -0.065738,   0.002261]
    |<r_e - r_h>| [Ang]:            0.000144
    Hole size [Ang]:                1.285537
      Cartesian components [Ang]: [  0.728589,   0.712789,   0.783386]
    Electron size [Ang]:            1.463169
      Cartesian components [Ang]: [  0.853969,   0.830469,   0.849660]

  Transition density matrix analysis:
  -----------------------------------
  
  CT numbers (Mulliken)
    omega =     0.9535
    <Phe> =    -0.1606
  
  Exciton analysis of the transition density matrix
    Trans. dipole moment [D]:             1.833216
      Cartesian components [D]:         [ -1.328365,   1.263328,   0.011445]
    <r_h> [Ang]:                        [ -1.560102,  -0.065934,   0.002083]
    <r_e> [Ang]:                        [ -1.560315,  -0.065731,   0.002337]
    |<r_e - r_h>| [Ang]:                  0.000389
    Hole size [Ang]:                      1.214313
      Cartesian components [Ang]:       [  0.649803,   0.636649,   0.804357]
    Electron size [Ang]:                  1.486000
      Cartesian components [Ang]:       [  0.864397,   0.839357,   0.869766]
    RMS electron-hole separation [Ang]:   1.936777
      Cartesian components [Ang]:       [  1.106818,   1.075233,   1.170441]
    Covariance(r_h, r_e) [Ang^2]:        -0.034177
    Correlation coefficient:             -0.018940
    Center-of-mass size [Ang]:            0.950579
      Cartesian components [Ang]:       [  0.527686,   0.515645,   0.599382]

  Decomposition into state-averaged NTOs
    H- 0 -> L+ 0:  0.6698 ( 89.7%)
    H- 2 -> L+ 5:  0.0836 (  1.4%)
                   omega =  95.4%
  ----------------------------------------------------------------------------


  Excited state 2 (singlet, A)                                     [converged]
  ----------------------------------------------------------------------------
  Term symbol:  3 (1) A                                     R^2 =  2.14528e-13

  Total energy:                                            -77.9868703306 a.u.
  Excitation energy:                                               9.054728 eV

  Osc. strength:                                                      0.000226
  Trans. dip. moment [a.u.]:           [   0.023320,   -0.021624,    0.002838]
  <i|r^2|0> [a.u.]:                    [   0.072427,   -0.088124,    0.147802]
  Two-photon absorption cross-section (SoS) [a.u.]:                   4.891159
  Two-photon absorption matrix (SoS) [a.u.]:
                                       |   -0.056137   -0.057913    0.539699 |
                                       |   -0.057913   -0.059393    0.553841 |
                                       |    0.539699    0.553841    0.115644 |
  Two-photon absorption cross-section [a.u.]:                         0.078314
  Two-photon absorption matrix [a.u.]:
                                       |   -0.010329    0.006147   -0.058447 |
                                       |    0.006147    0.024978   -0.076592 |
                                       |   -0.058447   -0.076592   -0.014405 |

  Dip. moment [a.u.]:                  [  -0.003587,    0.010166,   -0.001641]
  Total dipole [Debye]:                                               0.027716
  <r^2> [a.u.]:                        [ 174.523723,   33.971232,   13.170828]
  Total <r^2> [a.u.]:                                               221.665783

  V1^2 = 0.9542, V2^2 = 0.0458

  Important amplitudes:
      occ i     occ j     vir a      vir b          v   
    -----------------------------------------------------
     7 (A) A              9 (A) A                -0.6691
     8 (A) A             11 (A) A                 0.1481
     7 (A) A             20 (A) A                 0.0759
     5 (A) A   8 (A) B    9 (A) A    9 (A) B     -0.0316
     8 (A) A             16 (A) A                -0.0273
     8 (A) A             21 (A) A                 0.0176
     5 (A) A             28 (A) A                 0.0150
     4 (A) A   7 (A) B    9 (A) A   19 (A) B      0.0135
     5 (A) A   7 (A) B    9 (A) A   16 (A) B     -0.0134
     8 (A) A              9 (A) A                -0.0131
     7 (A) A   8 (A) B   20 (A) A   17 (A) B     -0.0105
     7 (A) A   8 (A) A    9 (A) A   28 (A) A      0.0097
     5 (A) A   8 (A) B    9 (A) A   20 (A) B      0.0096
     4 (A) A   6 (A) B    9 (A) A   16 (A) B     -0.0091
     5 (A) A   6 (A) A    9 (A) A   23 (A) A      0.0091
     5 (A) A   6 (A) A    9 (A) A   14 (A) A      0.0089
     5 (A) A   6 (A) B    9 (A) A   19 (A) B      0.0087
     8 (A) A   7 (A) B    9 (A) A   28 (A) B     -0.0085
     4 (A) A   5 (A) A    9 (A) A   10 (A) A     -0.0085
     6 (A) A   7 (A) B    9 (A) A   18 (A) B      0.0083
     5 (A) A   6 (A) B    9 (A) A   23 (A) B      0.0080
     3 (A) A   7 (A) B    9 (A) A   18 (A) B     -0.0080
     5 (A) A   7 (A) A    9 (A) A   16 (A) A     -0.0079
     4 (A) A   8 (A) B    9 (A) A   25 (A) B     -0.0077
     7 (A) A   8 (A) B   17 (A) A   20 (A) B     -0.0074
     4 (A) A   7 (A) B   19 (A) A    9 (A) B      0.0074
     5 (A) A   5 (A) B    9 (A) A   13 (A) B      0.0072
     7 (A) A   8 (A) B   19 (A) A   18 (A) B      0.0072
     5 (A) A   8 (A) A    9 (A) A   20 (A) A      0.0069
     4 (A) A   5 (A) B    9 (A) A   18 (A) B      0.0068
     7 (A) A   7 (A) B   20 (A) A   22 (A) B     -0.0065
     7 (A) A   8 (A) B   17 (A) A    9 (A) B      0.0065
     5 (A) A   6 (A) B    9 (A) A   14 (A) B      0.0063
     4 (A) A   7 (A) A    9 (A) A   19 (A) A      0.0061
     4 (A) A   5 (A) B   10 (A) A    9 (A) B      0.0061
     5 (A) A             38 (A) A                -0.0060
     5 (A) A   7 (A) B   11 (A) A   20 (A) B     -0.0060
     4 (A) A   7 (A) B    9 (A) A   14 (A) B     -0.0060
     8 (A) A             10 (A) A                -0.0060
     4 (A) A   8 (A) A    9 (A) A   25 (A) A     -0.0057
    -----------------------------------------------------

  Density matrix analysis:
  ------------------------
  NOs
    Occupation of frontier NOs:
       0.9580   1.0537
    Number of electrons: 16.000000
    Number of unpaired electrons: n_u =  2.35528, n_u,nl =  2.06273
    NO participation ratio (PR_NO):  3.027190
  
  
  Mulliken Population Analysis
  Atom      Charge (e)              h+              e-           Del q
  --------------------------------------------------------------------
   1 H        0.148865        0.121361       -0.023369        0.097992
   2 C       -0.301719        0.270919       -0.472009       -0.201090
   3 H        0.152013        0.127133       -0.025644        0.101489
   4 C       -0.302429        0.273223       -0.474198       -0.200975
   5 H        0.154603        0.127925       -0.023451        0.104473
   6 H        0.148668        0.123382       -0.025271        0.098111
  --------------------------------------------------------------------
  Sum:       -0.000000        1.043944       -1.043944       -0.000000
  
  Multipole moment analysis of the density matrix
    Molecular charge:                      -0.000000
    Number of electrons:                   16.000000
      Center of electronic charge [Ang]: [ -1.560458,  -0.065939,   0.001720]
    Total nuclear charge:                  16.000000
      Center of nuclear charge [Ang]:    [ -1.560576,  -0.065602,   0.001666]
    Dipole moment [D]:                     0.027716
      Cartesian components [D]:          [ -0.009117,   0.025839,  -0.004172]
    RMS size of the density [Ang]:         1.200070
      Cartesian components [Ang]:        [  0.787050,   0.768251,   0.480115]
  
  Exciton analysis of the difference density matrix
    <r_h> [Ang]:                  [ -1.565268,  -0.063047,   0.001517]
    <r_e> [Ang]:                  [ -1.563743,  -0.067878,   0.001892]
    |<r_e - r_h>| [Ang]:            0.005080
    Hole size [Ang]:                1.486194
      Cartesian components [Ang]: [  0.998963,   1.002129,   0.454514]
    Electron size [Ang]:            1.477068
      Cartesian components [Ang]: [  0.881220,   0.859389,   0.816475]

  Transition density matrix analysis:
  -----------------------------------
  
  CT numbers (Mulliken)
    omega =     0.9218
    <Phe> =    -0.0122
  
  Exciton analysis of the transition density matrix
    Trans. dipole moment [D]:             0.040578
      Cartesian components [D]:         [  0.029637,  -0.027481,   0.003606]
    <r_h> [Ang]:                        [ -1.565931,  -0.062440,   0.001372]
    <r_e> [Ang]:                        [ -1.563348,  -0.068509,   0.002010]
    |<r_e - r_h>| [Ang]:                  0.006626
    Hole size [Ang]:                      1.514794
      Cartesian components [Ang]:       [  1.021523,   1.026567,   0.444131]
    Electron size [Ang]:                  1.474154
      Cartesian components [Ang]:       [  0.871849,   0.848718,   0.832277]
    RMS electron-hole separation [Ang]:   2.093900
      Cartesian components [Ang]:       [  1.327137,   1.317046,   0.942611]
    Covariance(r_h, r_e) [Ang^2]:         0.041678
    Correlation coefficient:              0.018664
    Center-of-mass size [Ang]:            1.066664
      Cartesian components [Ang]:       [  0.679333,   0.673378,   0.472060]

  Decomposition into state-averaged NTOs
    H- 1 -> L+ 0: -0.6615 ( 87.5%)
    H- 0 -> L+ 2: -0.1481 (  4.4%)
                   omega =  92.2%
  ----------------------------------------------------------------------------


  Excited state 3 (singlet, A)                                     [converged]
  ----------------------------------------------------------------------------
  Term symbol:  4 (1) A                                     R^2 =  1.78365e-13

  Total energy:                                            -77.9825911249 a.u.
  Excitation energy:                                               9.171171 eV

  Osc. strength:                                                      0.025207
  Trans. dip. moment [a.u.]:           [  -0.013023,   -0.021898,    0.333969]
  <i|r^2|0> [a.u.]:                    [  -0.088982,    0.006528,   -0.002862]
  Two-photon absorption cross-section (SoS) [a.u.]:                   0.053516
  Two-photon absorption matrix (SoS) [a.u.]:
                                       |   -0.079520   -0.004691    0.008350 |
                                       |   -0.004691    0.080279    0.011201 |
                                       |    0.008350    0.011201    0.010586 |
  Two-photon absorption cross-section [a.u.]:                         0.029701
  Two-photon absorption matrix [a.u.]:
                                       |   -0.054813   -0.005024    0.012720 |
                                       |   -0.005024    0.061256    0.008456 |
                                       |    0.012720    0.008456    0.007423 |

  Dip. moment [a.u.]:                  [   0.004708,    0.012996,    0.002215]
  Total dipole [Debye]:                                               0.035582
  <r^2> [a.u.]:                        [ 180.891376,   40.609718,   11.024792]
  Total <r^2> [a.u.]:                                               232.525886

  V1^2 = 0.9587, V2^2 = 0.0413

  Important amplitudes:
      occ i     occ j     vir a      vir b          v   
    -----------------------------------------------------
     8 (A) A             10 (A) A                -0.6891
     8 (A) A             24 (A) A                -0.0507
     8 (A) A             18 (A) A                 0.0312
     4 (A) A              9 (A) A                -0.0238
     8 (A) A   8 (A) B    9 (A) A   12 (A) B      0.0219
     8 (A) A   8 (A) B   10 (A) A   17 (A) B     -0.0173
     8 (A) A             15 (A) A                -0.0169
     5 (A) A   8 (A) B   11 (A) A   10 (A) B     -0.0165
     7 (A) A   8 (A) B   13 (A) A   10 (A) B      0.0141
     4 (A) A   8 (A) B   12 (A) A   10 (A) B      0.0111
     6 (A) A   8 (A) A   10 (A) A   15 (A) A      0.0110
     7 (A) A   8 (A) B   22 (A) A   10 (A) B     -0.0108
     6 (A) A   8 (A) B   15 (A) A   10 (A) B     -0.0108
     4 (A) A   8 (A) A   10 (A) A   12 (A) A     -0.0106
     7 (A) A   8 (A) A   10 (A) A   22 (A) A      0.0099
     7 (A) A   8 (A) A   10 (A) A   13 (A) A     -0.0097
     5 (A) A   8 (A) B   21 (A) A   10 (A) B     -0.0094
     5 (A) A   8 (A) A   10 (A) A   11 (A) A      0.0094
     6 (A) A   8 (A) A   10 (A) A   18 (A) A      0.0088
     6 (A) A   8 (A) B   10 (A) A   10 (A) B      0.0087
     7 (A) A   8 (A) A   12 (A) A   16 (A) A     -0.0082
     5 (A) A   8 (A) A   10 (A) A   21 (A) A      0.0080
     3 (A) A   4 (A) B   10 (A) A    9 (A) B      0.0079
     4 (A) A   8 (A) B   19 (A) A   10 (A) B     -0.0075
     8 (A) A   8 (A) B    9 (A) A   23 (A) B      0.0075
     8 (A) A   8 (A) B   10 (A) A   28 (A) B     -0.0073
     3 (A) A   8 (A) B   10 (A) A   10 (A) B     -0.0072
     5 (A) A   8 (A) B   10 (A) A   11 (A) B     -0.0071
     3 (A) A   8 (A) A   10 (A) A   24 (A) A      0.0071
     7 (A) A   8 (A) B   16 (A) A   12 (A) B      0.0070
     3 (A) A   8 (A) B   10 (A) A   18 (A) B      0.0069
     8 (A) A   8 (A) B    9 (A) A   19 (A) B     -0.0068
     6 (A) A   8 (A) B   18 (A) A   10 (A) B     -0.0067
     3 (A) A   6 (A) B   10 (A) A   28 (A) B     -0.0062
     7 (A) A              9 (A) A                 0.0062
     7 (A) A   8 (A) B   12 (A) A   11 (A) B     -0.0058
     6 (A) A             28 (A) A                 0.0057
     3 (A) A   5 (A) B   10 (A) A   25 (A) B      0.0056
     5 (A) A   8 (A) A   10 (A) A   16 (A) A     -0.0056
     3 (A) A   8 (A) A   10 (A) A   18 (A) A      0.0056
    -----------------------------------------------------

  Density matrix analysis:
  ------------------------
  NOs
    Occupation of frontier NOs:
       0.9815   0.9850
    Number of electrons: 16.000000
    Number of unpaired electrons: n_u =  2.28534, n_u,nl =  2.02442
    NO participation ratio (PR_NO):  2.692095
  
  
  Mulliken Population Analysis
  Atom      Charge (e)              h+              e-           Del q
  --------------------------------------------------------------------
   1 H       -0.162232        0.053912       -0.267017       -0.213105
   2 C        0.327849        0.538730       -0.110252        0.428478
   3 H       -0.166291        0.053733       -0.270548       -0.216815
   4 C        0.326880        0.537650       -0.109315        0.428335
   5 H       -0.162356        0.053995       -0.266480       -0.212485
   6 H       -0.163851        0.053853       -0.268260       -0.214408
  --------------------------------------------------------------------
  Sum:       -0.000000        1.291872       -1.291872        0.000000
  
  Multipole moment analysis of the density matrix
    Molecular charge:                      -0.000000
    Number of electrons:                   16.000000
      Center of electronic charge [Ang]: [ -1.560732,  -0.066032,   0.001592]
    Total nuclear charge:                  16.000000
      Center of nuclear charge [Ang]:    [ -1.560576,  -0.065602,   0.001666]
    Dipole moment [D]:                     0.035582
      Cartesian components [D]:          [  0.011967,   0.033033,   0.005630]
    RMS size of the density [Ang]:         1.276468
      Cartesian components [Ang]:        [  0.854422,   0.840465,   0.439262]
  
  Exciton analysis of the difference density matrix
    <r_h> [Ang]:                  [ -1.560185,  -0.066013,   0.001943]
    <r_e> [Ang]:                  [ -1.562351,  -0.071076,   0.000666]
    |<r_e - r_h>| [Ang]:            0.005653
    Hole size [Ang]:                1.410259
      Cartesian components [Ang]: [  0.833966,   0.819837,   0.788161]
    Electron size [Ang]:            2.076111
      Cartesian components [Ang]: [  1.373409,   1.377026,   0.726487]

  Transition density matrix analysis:
  -----------------------------------
  
  CT numbers (Mulliken)
    omega =     0.9259
    <Phe> =    -0.0109
  
  Exciton analysis of the transition density matrix
    Trans. dipole moment [D]:             0.425666
      Cartesian components [D]:         [ -0.016551,  -0.027830,   0.424432]
    <r_h> [Ang]:                        [ -1.559725,  -0.065654,   0.002236]
    <r_e> [Ang]:                        [ -1.562848,  -0.072953,   0.000300]
    |<r_e - r_h>| [Ang]:                  0.008172
    Hole size [Ang]:                      1.212959
      Cartesian components [Ang]:       [  0.636422,   0.623560,   0.823050]
    Electron size [Ang]:                  2.296496
      Cartesian components [Ang]:       [  1.518040,   1.524580,   0.803185]
    RMS electron-hole separation [Ang]:   2.587252
      Cartesian components [Ang]:       [  1.638559,   1.640201,   1.148362]
    Covariance(r_h, r_e) [Ang^2]:         0.025680
    Correlation coefficient:              0.009219
    Center-of-mass size [Ang]:            1.303507
      Cartesian components [Ang]:       [  0.826754,   0.827064,   0.575826]

  Decomposition into state-averaged NTOs
    H- 0 -> L+ 1: -0.6797 ( 92.4%)
                   omega =  92.6%
  ----------------------------------------------------------------------------


  Excited state 4 (singlet, A)                                     [converged]
  ----------------------------------------------------------------------------
  Term symbol:  5 (1) A                                     R^2 =  1.45404e-13

  Total energy:                                            -77.9582379081 a.u.
  Excitation energy:                                               9.833855 eV

  Osc. strength:                                                      0.000037
  Trans. dip. moment [a.u.]:           [  -0.008860,    0.008469,   -0.001718]
  <i|r^2|0> [a.u.]:                    [  -0.069697,   -0.016089,    0.035606]
  Two-photon absorption cross-section (SoS) [a.u.]:                 149.683427
  Two-photon absorption matrix (SoS) [a.u.]:
                                       |   -0.298179   -0.319528    3.012841 |
                                       |   -0.319528   -0.340985    3.037239 |
                                       |    3.012841    3.037239    0.638298 |
  Two-photon absorption cross-section [a.u.]:                        91.935718
  Two-photon absorption matrix [a.u.]:
                                       |   -0.244809   -0.251023    2.355101 |
                                       |   -0.251023   -0.256603    2.386285 |
                                       |    2.355101    2.386285    0.500415 |

  Dip. moment [a.u.]:                  [  -0.016045,   -0.011346,   -0.000006]
  Total dipole [Debye]:                                               0.049949
  <r^2> [a.u.]:                        [ 181.203234,   40.535230,   10.761694]
  Total <r^2> [a.u.]:                                               232.500158

  V1^2 = 0.9635, V2^2 = 0.0365

  Important amplitudes:
      occ i     occ j     vir a      vir b          v   
    -----------------------------------------------------
     8 (A) A             11 (A) A                 0.6697
     7 (A) A              9 (A) A                 0.1501
     8 (A) A             21 (A) A                 0.0781
     8 (A) A             16 (A) A                -0.0645
     8 (A) A   8 (A) B    9 (A) A   13 (A) B      0.0167
     5 (A) A   8 (A) B   11 (A) A   11 (A) B      0.0155
     8 (A) A   8 (A) B   11 (A) A   17 (A) B      0.0140
     7 (A) A             20 (A) A                -0.0137
     7 (A) A   8 (A) B   13 (A) A   11 (A) B     -0.0127
     8 (A) A             12 (A) A                 0.0112
     5 (A) A   8 (A) A   11 (A) A   21 (A) A     -0.0110
     4 (A) A   8 (A) B   12 (A) A   11 (A) B     -0.0110
     8 (A) A   8 (A) B    9 (A) A   22 (A) B     -0.0107
     7 (A) A   8 (A) A   11 (A) A   22 (A) A     -0.0096
     6 (A) A   8 (A) B   15 (A) A   11 (A) B      0.0090
     6 (A) A   8 (A) B   10 (A) A   11 (A) B     -0.0090
     7 (A) A   8 (A) B   22 (A) A   11 (A) B      0.0089
     3 (A) A   4 (A) B   11 (A) A    9 (A) B     -0.0083
     3 (A) A   8 (A) B   11 (A) A   18 (A) B     -0.0081
     6 (A) A   8 (A) A   11 (A) A   15 (A) A     -0.0080
     7 (A) A   8 (A) A   13 (A) A   16 (A) A     -0.0078
     7 (A) A   8 (A) A   11 (A) A   13 (A) A      0.0077
     6 (A) A              9 (A) A                -0.0076
     5 (A) A   8 (A) B   21 (A) A   11 (A) B      0.0071
     4 (A) A   8 (A) B   19 (A) A   11 (A) B      0.0070
     5 (A) A   8 (A) B    9 (A) A    9 (A) B      0.0068
     4 (A) A   8 (A) A   11 (A) A   12 (A) A      0.0062
     6 (A) A   8 (A) A   11 (A) A   18 (A) A     -0.0062
     3 (A) A   6 (A) B   11 (A) A   28 (A) B      0.0060
     6 (A) A   8 (A) B   18 (A) A   11 (A) B      0.0060
     7 (A) A   8 (A) B   16 (A) A   13 (A) B      0.0057
     3 (A) A   8 (A) A   11 (A) A   18 (A) A     -0.0056
     5 (A) A   8 (A) B   10 (A) A   10 (A) B      0.0056
     3 (A) A   8 (A) B   11 (A) A   30 (A) B     -0.0055
     3 (A) A   5 (A) B   11 (A) A   25 (A) B     -0.0055
     6 (A) A   8 (A) B   11 (A) A   10 (A) B     -0.0054
     7 (A) A   8 (A) B   12 (A) A   10 (A) B      0.0054
     8 (A) A   8 (A) B   20 (A) A   22 (A) B      0.0053
     3 (A) A   8 (A) A   11 (A) A   24 (A) A     -0.0053
     5 (A) A   8 (A) A   11 (A) A   16 (A) A      0.0048
    -----------------------------------------------------

  Density matrix analysis:
  ------------------------
  NOs
    Occupation of frontier NOs:
       0.9408   1.0277
    Number of electrons: 16.000000
    Number of unpaired electrons: n_u =  2.31912, n_u,nl =  2.04906
    NO participation ratio (PR_NO):  2.914060
  
  
  Mulliken Population Analysis
  Atom      Charge (e)              h+              e-           Del q
  --------------------------------------------------------------------
   1 H       -0.147267        0.045772       -0.243911       -0.198140
   2 C        0.275128        0.497157       -0.121400        0.375757
   3 H       -0.127996        0.046929       -0.225449       -0.178521
   4 C        0.273238        0.496875       -0.122182        0.374692
   5 H       -0.131986        0.047065       -0.229180       -0.182116
   6 H       -0.141116        0.045823       -0.237496       -0.191673
  --------------------------------------------------------------------
  Sum:       -0.000000        1.179619       -1.179619        0.000000
  
  Multipole moment analysis of the density matrix
    Molecular charge:                      -0.000000
    Number of electrons:                   16.000000
      Center of electronic charge [Ang]: [ -1.560046,  -0.065227,   0.001666]
    Total nuclear charge:                  16.000000
      Center of nuclear charge [Ang]:    [ -1.560576,  -0.065602,   0.001666]
    Dipole moment [D]:                     0.049949
      Cartesian components [D]:          [ -0.040782,  -0.028839,  -0.000016]
    RMS size of the density [Ang]:         1.277172
      Cartesian components [Ang]:        [  0.858858,   0.839752,   0.433989]
  
  Exciton analysis of the difference density matrix
    <r_h> [Ang]:                  [ -1.560022,  -0.065317,   0.002035]
    <r_e> [Ang]:                  [ -1.553083,  -0.059942,   0.001633]
    |<r_e - r_h>| [Ang]:            0.008786
    Hole size [Ang]:                1.394815
      Cartesian components [Ang]: [  0.818196,   0.806883,   0.790573]
    Electron size [Ang]:            2.124182
      Cartesian components [Ang]: [  1.441023,   1.405475,   0.678411]

  Transition density matrix analysis:
  -----------------------------------
  
  CT numbers (Mulliken)
    omega =     0.9298
    <Phe> =    -0.0135
  
  Exciton analysis of the transition density matrix
    Trans. dipole moment [D]:             0.015729
      Cartesian components [D]:         [ -0.011259,   0.010763,  -0.002183]
    <r_h> [Ang]:                        [ -1.560452,  -0.065672,   0.002172]
    <r_e> [Ang]:                        [ -1.551805,  -0.058739,   0.001610]
    |<r_e - r_h>| [Ang]:                  0.011098
    Hole size [Ang]:                      1.227928
      Cartesian components [Ang]:       [  0.657775,   0.650247,   0.807662]
    Electron size [Ang]:                  2.262294
      Cartesian components [Ang]:       [  1.535298,   1.497140,   0.720700]
    RMS electron-hole separation [Ang]:   2.563396
      Cartesian components [Ang]:       [  1.661740,   1.624474,   1.081992]
    Covariance(r_h, r_e) [Ang^2]:         0.027453
    Correlation coefficient:              0.009882
    Center-of-mass size [Ang]:            1.292351
      Cartesian components [Ang]:       [  0.839391,   0.820004,   0.541468]

  Decomposition into state-averaged NTOs
    H- 0 -> L+ 2: -0.6650 ( 88.5%)
    H- 1 -> L+ 0:  0.1481 (  4.4%)
                   omega =  93.0%
  ----------------------------------------------------------------------------


  Excited state 5 (singlet, A)                                     [converged]
  ----------------------------------------------------------------------------
  Term symbol:  6 (1) A                                     R^2 =  1.52743e-13

  Total energy:                                            -77.9443231232 a.u.
  Excitation energy:                                              10.212496 eV

  Osc. strength:                                                      0.000001
  Trans. dip. moment [a.u.]:           [  -0.000912,   -0.001395,   -0.000501]
  <i|r^2|0> [a.u.]:                    [  -0.090899,    0.102097,   -0.018034]
  Two-photon absorption cross-section (SoS) [a.u.]:                 178.596062
  Two-photon absorption matrix (SoS) [a.u.]:
                                       |   -0.324701   -0.037128    3.355610 |
                                       |   -0.037128    0.374644   -3.307047 |
                                       |    3.355610   -3.307047   -0.081366 |
  Two-photon absorption cross-section [a.u.]:                        80.054844
  Two-photon absorption matrix [a.u.]:
[...]
    16   -1.321563042007e-03
    17   -1.762176171252e-03
    18   -1.209692634249e-04
    19   -3.323524807084e-03
    20    1.079871636580e-02
    21    9.353288277369e-01
    22   -2.614417973900e-04
    23    1.398999195749e-02
    24    8.276834296387e-04
    25    7.027375631564e-02
    26   -5.227778679866e-02
    27   -1.399401228497e+00
    28    9.798444359441e-02
    29   -9.262001787935e-02
    30   -1.417617768176e-03
    31    3.851824910953e-01
    32   -3.623466674815e-01
    33   -5.531350979606e-03
    34    1.563165729162e-02
    35   -1.451297704651e-03
    36   -1.840826364245e-03
    37   -4.403770473871e-05
    38   -3.137547998156e-03
    39    9.841312976621e-03
    40    9.318589853624e-01
    41    2.435192546503e-04
    42   -1.392789627937e-02
    43   -8.535665381783e-04
    44    1.011757653920e-02
    45    9.404622069252e-01
    46    1.412911315114e-02
    47    3.781975655306e-04
    48    6.760969525604e-04
Sym=X
Ene= 0.232980
Spin=Alpha
Occup=0
     1    2.612736662521e-02
     2    1.233939390983e+00
     3   -1.432917159112e-02
     4   -3.821561437813e-03
     5   -8.219441190681e-04
     6    3.003182177874e-03
     7   -3.407476453440e-03
     8   -4.786160273006e-02
     9   -1.548655366019e-01
    10   -1.586309720896e-01
    11   -1.566053333370e-02
    12   -5.567439616239e-01
    13   -5.582476774411e-01
    14   -5.517194660931e-02
    15    5.324295571470e-04
    16    3.395265433813e-05
    17   -2.408054124249e-05
    18   -2.156431277354e-04
    19   -3.540680351536e-04
    20   -2.509149916030e-02
    21   -1.160703381280e+00
    22   -2.496893480587e-03
    23   -1.357573322489e-02
    24   -8.856384209279e-04
    25   -2.642853008031e-03
    26    3.111731481477e-03
    27    3.819230294071e-02
    28   -1.538575342551e-01
    29   -1.591216687465e-01
    30   -1.723005127228e-02
    31   -5.477083023999e-01
    32   -5.558424789586e-01
    33   -6.117244897738e-02
    34   -4.619787855742e-04
    35    7.119797757668e-05
    36   -4.089907846649e-05
    37    3.866238871637e-04
    38    3.297451054045e-04
    39    2.505936857569e-02
    40    1.160055891562e+00
    41   -2.466681347943e-03
    42   -1.364860548093e-02
    43   -9.728514965657e-04
    44   -2.619255928940e-02
    45   -1.221061438927e+00
    46   -1.421450099804e-02
    47   -3.755953039216e-03
    48   -9.070875963388e-04
Sym=X
Ene= 0.239415
Spin=Alpha
Occup=0
     1   -1.597145698288e-02
     2   -1.052796576684e+00
     3    1.655482026496e-02
     4    9.114768964520e-03
     5    1.236340157362e-03
     6   -8.651278673284e-02
     7    7.973569479357e-02
     8    1.593633585431e+00
     9    5.332636666776e-02
    10   -6.049114864069e-02
    11   -1.746608131420e-03
    12    2.118868268844e-01
    13   -2.352210418786e-01
    14   -6.499530972049e-03
    15   -2.257631465485e-02
    16    2.479072535878e-03
    17    2.948250335293e-03
    18   -4.925975240326e-04
    19    1.287567734079e-02
    20   -1.695514748448e-02
    21   -1.123955200282e+00
    22   -8.547194499970e-03
    23   -1.775844170538e-02
    24   -1.471545077126e-03
    25    8.642176233630e-02
    26   -7.929306122945e-02
    27   -1.595858473719e+00
    28    5.348573661064e-02
    29   -6.103658290192e-02
    30   -1.056738747347e-03
    31    2.114919994743e-01
    32   -2.404910801310e-01
    33   -3.847717505215e-03
    34    2.261485029020e-02
    35   -2.597575288420e-03
    36   -2.959803782711e-03
    37    7.252191563399e-04
    38   -1.278726337984e-02
    39    1.681727347701e-02
    40    1.129594073073e+00
    41   -8.623094769046e-03
    42   -1.788636594427e-02
    43   -1.463918106043e-03
    44    1.563145806165e-02
    45    1.049525302326e+00
    46    1.644353211195e-02
    47    9.271503922437e-03
    48    1.319047746413e-03
Sym=X
Ene= 0.303264
Spin=Alpha
Occup=0
     1   -2.079666384675e-02
     2    1.692049120944e+00
     3   -2.291836877439e-02
     4    2.774347614975e-04
     5   -9.919618449204e-04
     6   -2.108863616075e-04
     7    1.788790952057e-04
     8    1.802023533846e-03
     9   -1.339371724474e-01
    10   -1.396257998302e-01
    11   -1.393848274149e-02
    12   -1.144663307284e+00
    13   -1.193889619600e+00
    14   -1.214543284026e-01
    15   -9.400574114274e-05
    16   -1.456306112248e-03
    17    1.954158787899e-03
    18   -3.267053249339e-02
    19   -1.603495306059e-03
    20    1.993802964314e-02
    21   -1.690135006075e+00
    22    1.435631340486e-03
    23   -2.291125889453e-02
    24   -1.264576993707e-03
    25    9.212128816977e-05
    26    2.618775126927e-04
    27   -8.962242583670e-03
    28    1.346791258613e-01
    29    1.402239661271e-01
    30    1.489895169807e-02
    31    1.139832100530e+00
    32    1.197666304593e+00
    33    1.244502357256e-01
    34    6.630372027995e-05
    35   -1.640273662402e-03
    36    1.832231523859e-03
    37   -3.250978704256e-02
    38   -1.688547426513e-03
    39    1.956526753896e-02
    40   -1.691942448648e+00
    41   -1.615933008526e-03
    42    2.283612660693e-02
    43    1.278997946705e-03
    44   -2.011958032700e-02
    45    1.698578038147e+00
    46    2.304641046194e-02
    47   -3.618080873275e-04
    48    1.095081285609e-03
Sym=X
Ene= 0.462065
Spin=Alpha
Occup=0
     1   -1.153446699952e-01
     2   -7.152414901305e-01
     3   -1.567200826303e-02
     4   -1.033222235154e-02
     5   -1.297760889161e-03
     6    6.080707330661e-02
     7    1.734367955895e-02
     8   -3.591915813097e+00
     9    1.030540535812e-01
    10   -9.898526629381e-02
    11   -1.842405890353e-03
    12    2.426650068208e+00
    13   -2.303126164680e+00
    14   -2.295594536524e-02
    15    5.366613461816e-02
    16   -3.139219508490e-03
    17   -4.478351449635e-03
    18   -7.605087352410e-04
    19    1.799358836221e-02
    20   -1.211313263299e-01
    21   -7.022332493437e-01
    22    8.714270818380e-03
    23    1.638325577437e-02
    24    1.297406214756e-03
    25   -6.095301900052e-02
    26   -1.626033691473e-02
    27    3.591708459143e+00
    28    1.051684630452e-01
    29   -1.004000232621e-01
    30   -1.373696598493e-03
    31    2.423016413808e+00
    32   -2.298756330582e+00
    33   -2.080712995143e-02
    34   -5.270280773428e-02
    35    3.223764750224e-03
    36    4.664830257562e-03
    37    6.606043366752e-04
    38   -1.903394482862e-02
    39    1.152706044811e-01
    40    7.092695327500e-01
    41    8.582102029843e-03
    42    1.625167074467e-02
    43    1.400377073395e-03
    44    1.108032051572e-01
    45    7.182119596615e-01
    46   -1.545311994122e-02
    47   -9.946615519062e-03
    48   -1.345410826948e-03
Sym=X
Ene= 0.577513
Spin=Alpha
Occup=0
     1    2.468841934066e-01
     2    4.157603091776e-02
     3   -1.846363875107e-02
     4    2.568669801751e-02
     5    7.021508245170e-04
     6   -4.463497177064e-03
     7   -1.572134257478e-01
     8   -4.658890399242e-01
     9    2.987664743252e-01
    10   -2.879541915477e-01
    11   -2.937249230361e-03
    12   -7.203980757494e-01
    13    6.965497071703e-01
    14    8.785068078697e-03
    15   -5.868364878701e-03
    16    3.828399720746e-03
    17    3.636171978394e-03
    18   -4.388326447191e-03
    19    6.023178571346e-02
    20    2.553261494197e-01
    21    2.931270304593e-02
    22   -2.643214883052e-02
    23    1.646194708266e-02
    24   -1.941216859774e-04
    25   -5.628150372256e-03
    26   -1.579136101682e-01
    27   -4.101630422023e-01
    28   -2.974095894081e-01
    29    2.852575650849e-01
    30    2.888547406135e-03
    31    7.623591114808e-01
    32   -7.327102639895e-01
    33   -8.472848350589e-03
    34   -5.858670689449e-03
    35    3.875040836560e-03
    36    3.615464612453e-03
    37   -3.794071238183e-03
    38    6.018829025591e-02
    39    2.507261687693e-01
    40    4.981845627673e-02
    41    2.722210724750e-02
    42   -1.701554201338e-02
    43    2.567525048390e-04
    44    2.490238083572e-01
    45    5.605209227846e-02
    46    1.843943031644e-02
    47   -2.586907871649e-02
    48   -6.865114118835e-04
Sym=X
Ene= 0.615138
Spin=Alpha
Occup=0
     1   -5.221670686653e-01
     2    1.992793501812e-01
     3   -6.133985603140e-02
     4    3.759507863190e-02
     5   -5.599646100106e-04
     6   -5.918414044095e-04
     7    1.249148040633e-05
     8   -1.654448437966e-02
     9   -4.052712217471e-02
    10   -3.857283208401e-02
    11   -4.384272275994e-03
    12    3.059649846836e-01
    13    2.791829947100e-01
    14    2.861017165479e-02
    15    1.934051203828e-03
    16   -6.972119833951e-03
    17    8.522625887742e-03
    18   -1.479688210164e-01
    19   -6.448318875914e-03
    20    5.082077109093e-01
    21   -2.050174446893e-01
    22    4.178107468326e-02
    23   -5.844640081088e-02
    24   -1.675204166175e-03
    25    4.155753216956e-04
    26   -1.000283822860e-03
    27    2.506296410422e-02
    28   -3.999539539622e-02
    29   -4.030194647436e-02
    30   -4.002845273395e-03
    31    3.038217812304e-01
    32    2.893323732786e-01
    33    3.296044861723e-02
    34   -1.462673426197e-03
    35    7.406490239005e-03
    36   -8.357079734527e-03
    37    1.491293594575e-01
    38    6.305806499463e-03
    39   -5.147901898934e-01
    40    2.073688197582e-01
    41    4.092525955339e-02
    42   -5.858028460576e-02
    43   -1.501079809163e-03
    44    5.219103560729e-01
    45   -2.040907907387e-01
    46   -6.148177702485e-02
    47    3.760208997366e-02
    48   -5.755743703940e-04
Sym=X
Ene= 0.689154
Spin=Alpha
Occup=0
     1    6.641793610863e-05
     2    2.371557302819e-03
     3    6.222224636860e-04
     4    1.147855487530e-03
     5   -2.108586976490e-02
     6    1.175260023536e-05
     7   -1.077213734798e-03
     8    1.614836466005e-03
     9    3.005552888992e-02
    10    3.865374953178e-02
    11   -6.704802600369e-01
    12   -2.949738230776e-02
    13   -3.281517763464e-02
    14    6.137722532519e-01
    15   -1.057871828812e-03
    16    8.265351471332e-02
    17   -7.835419893331e-02
    18   -8.703002721289e-03
    19   -1.111766043726e-03
    20    3.918138581614e-04
    21    8.455523765421e-04
    22    7.742022704095e-04
    23    1.413690753359e-03
    24   -2.092474627479e-02
    25   -6.705746674640e-05
    26   -2.998091993427e-04
    27   -8.469480529136e-04
    28    3.140484006561e-02
    29    4.048435969510e-02
    30   -6.701126370038e-01
    31   -3.139487935755e-02
    32   -3.521678616675e-02
    33    6.132228792464e-01
    34    1.482848668653e-03
    35   -8.281205690267e-02
    36    7.843213117739e-02
    37    8.158168321838e-03
    38    9.260349486085e-04
    39   -9.296021289224e-04
    40   -1.564525860005e-03
    41    9.701231915682e-04
    42    1.239741715780e-03
    43   -2.107531928829e-02
    44   -1.288954998151e-03
    45   -3.323740236154e-05
    46    1.132695078823e-03
    47    1.508083625123e-03
    48   -2.102678135708e-02
Sym=X
Ene= 0.708948
Spin=Alpha
Occup=0
     1   -4.753541533697e-01
     2    1.571997898997e-01
     3   -8.070511933256e-02
     4   -4.426523134136e-02
     5   -6.258310551337e-03
     6   -4.777922632839e-02
     7   -3.201711361375e-01
     8    5.091220754520e-01
     9    2.034653878476e-01
    10   -1.924618268807e-01
    11   -1.173649778590e-03
    12   -9.654671236082e-02
    13    8.095856654785e-02
    14   -2.313241911495e-03
    15    1.941312740213e-01
    16   -1.969529959561e-02
    17   -2.336419709897e-02
    18    3.119380059017e-03
    19   -7.748336880723e-02
    20   -4.781834293802e-01
    21    1.499386110748e-01
    22    4.099172613547e-02
    23    8.168421547943e-02
    24    6.528119916593e-03
    25   -4.676296200264e-02
    26   -3.210496320417e-01
    27    4.641500394688e-01
    28   -2.042343244513e-01
    29    1.916735758592e-01
    30    2.593346832604e-03
    31    6.560961014149e-02
    32   -5.196243751696e-02
    33    7.308539240152e-04
    34    1.937380869439e-01
    35   -2.025211057414e-02
    36   -2.376768176633e-02
    37    2.429904006952e-03
    38   -7.562125305365e-02
    39   -4.726981567683e-01
    40    1.355246373690e-01
    41   -4.067366507371e-02
    42   -8.104966275961e-02
    43   -6.637674378848e-03
    44   -4.745365594929e-01
    45    1.466109467316e-01
    46    8.054767954712e-02
    47    4.402384633689e-02
    48    6.534841365939e-03
Sym=X
Ene= 0.784581
Spin=Alpha
Occup=0
     1    5.266008119382e-01
     2   -4.678325576669e-01
     3    1.102936932378e-01
     4    2.600901221296e-02
     5    6.398322994710e-03
     6    9.099879217881e-02
     7   -2.154370163391e-01
     8   -6.423068045402e-01
     9    1.108954021357e-01
    10   -1.057076490594e-01
    11   -2.199435777804e-03
    12    3.160158035743e-01
    13   -2.931843503862e-01
    14    3.163324924000e-04
    15   -2.065846498788e-01
    16    1.611444020355e-02
    17    2.147506239795e-02
    18   -1.091342482846e-03
    19    9.285526453658e-03
    20    5.363984717485e-01
    21   -4.685836661630e-01
    22   -2.032184576780e-02
    23   -1.123949633838e-01
    24   -7.413036033252e-03
    25   -9.136227013299e-02
    26    2.131683424491e-01
    27    6.554367679590e-01
    28    1.116789482364e-01
    29   -1.058051669249e-01
    30    8.239245176711e-04
    31    3.094711947385e-01
    32   -2.873409611011e-01
    33   -5.475956917835e-03
    34    2.075870720938e-01
    35   -1.766599383754e-02
    36   -2.234385193702e-02
    37    1.858212457491e-03
    38   -8.766392367555e-03
    39   -5.414908840092e-01
    40    4.665011001238e-01
    41   -2.048033803511e-02
    42   -1.128841201020e-01
    43   -7.715674621383e-03
    44   -5.313439771137e-01
    45    4.645403591966e-01
    46    1.099788394343e-01
    47    2.673381649139e-02
    48    6.857504343016e-03
Sym=X
Ene= 0.807969
Spin=Alpha
Occup=0
     1   -8.869586408935e-04
     2   -7.819208804866e-04
     3    1.259987559396e-03
     4    2.232918007568e-03
     5   -3.385699384440e-02
     6   -1.490313386351e-04
     7   -2.941218675627e-04
     8    6.785136056356e-04
     9    3.326105090406e-02
    10    4.393330083607e-02
    11   -7.632061967513e-01
    12   -5.012144867779e-02
    13   -6.339611640141e-02
    14    1.127321681927e+00
    15    1.594411756194e-03
    16   -6.526400778015e-02
    17    6.176426319335e-02
    18    7.199755764687e-03
    19    1.014513568630e-03
    20   -9.858570915876e-04
    21    3.446685415559e-03
    22    1.611773618726e-03
    23    2.741097842407e-03
    24   -3.443908462515e-02
    25    2.090291917678e-04
    26   -1.035500936569e-03
    27    2.218655693819e-05
    28   -3.718748843515e-02
    29   -4.570609749427e-02
    30    7.631708379073e-01
    31    5.415922574453e-02
    32    6.868799836503e-02
    33   -1.126912286842e+00
    34    5.125968666292e-04
    35   -6.521259834439e-02
    36    6.191853147112e-02
    37    6.093566008757e-03
    38    7.265616108965e-04
    39    1.006591217141e-03
    40   -3.050052317322e-03
    41   -1.448946870390e-03
    42   -1.630302939670e-03
    43    3.428896594723e-02
    44    8.916563062674e-04
    45    1.130732378681e-03
    46   -1.523975165376e-03
    47   -1.840392246427e-03
    48    3.375767366154e-02
Sym=X
Ene= 0.862276
Spin=Alpha
Occup=0
     1    1.361718084408e-02
     2   -1.095934949781e+00
     3    1.484655037536e-01
     4    5.639058834259e-02
     5    9.745761300651e-03
     6    2.458764298490e-04
     7   -6.190089075877e-05
     8    1.625855475239e-03
     9   -4.066838026140e-01
    10   -4.290868085203e-01
    11   -4.165730433630e-02
    12    9.477103415796e-01
    13    9.990031772477e-01
    14    9.725391710615e-02
    15   -9.484799714495e-04
    16    1.122809548800e-02
    17   -1.355900523198e-02
    18    2.353915010591e-01
    19    9.430100638705e-03
    20   -1.338863859372e-02
    21    1.103169324064e+00
    22    5.034648626041e-02
    23    1.513071371130e-01
    24    1.129245987747e-02
    25   -1.223559493762e-04
    26    2.150156706373e-03
    27   -2.738091931367e-03
    28   -4.065312718326e-01
    29   -4.297434227202e-01
    30   -4.632273064078e-02
    31    9.467089889319e-01
    32    1.002641728536e+00
    33    1.077546113829e-01
    34    4.259593673970e-04
    35   -1.137019420162e-02
    36    1.358723936102e-02
    37   -2.364962767845e-01
    38   -1.018617274178e-02
    39    1.196491644345e-02
    40   -1.102611389433e+00
    41    4.892980494325e-02
    42    1.516201214416e-01
    43    1.145398002217e-02
    44   -1.169588338492e-02
    45    1.095334530997e+00
    46    1.488309006663e-01
    47    5.566860122305e-02
    48    1.018659089898e-02
Sym=X
Ene= 0.935970
Spin=Alpha
Occup=0
     1   -1.133461613304e-01
     2    1.278419925361e+00
     3   -1.811513563544e-01
     4    5.581492586237e-03
     5   -7.786454140098e-03
     6   -9.172679719569e-05
     7   -3.623872113557e-03
     8   -5.150608906468e-04
     9    4.721619272214e-01
    10    5.004005291691e-01
    11    5.041739268002e-02
    12   -1.464027667342e+00
    13   -1.543433755643e+00
    14   -1.560579619456e-01
    15   -6.504636201710e-04
    16   -5.141016192849e-03
    17    6.878208220017e-03
    18   -1.205189346336e-01
    19   -1.803240912986e-03
    20    1.171698706284e-01
    21   -1.288914331039e+00
    22    1.140962759406e-02
    23   -1.831512314600e-01
    24   -1.002352359328e-02
    25    1.011899243219e-04
    26   -1.277967764175e-03
    27    3.287584280468e-03
    28   -4.753689518914e-01
    29   -4.965445938381e-01
    30   -5.185969308176e-02
    31    1.472127808317e+00
    32    1.529879088338e+00
    33    1.599422463167e-01
    34   -8.033321998312e-04
    35   -6.418173150702e-03
    36    6.965724394756e-03
    37   -1.205764938354e-01
    38   -5.201440400086e-03
    39    1.166877293549e-01
    40   -1.280303906299e+00
    41   -1.353612373322e-02
    42    1.819333527414e-01
    43    1.011099991799e-02
    44   -1.151659103943e-01
    45    1.287067013357e+00
    46    1.819280729958e-01
    47   -5.355856577011e-03
    48    8.488319556819e-03
Sym=X
Ene= 0.972478
Spin=Alpha
Occup=0
     1   -6.455398546102e-02
     2    9.299669228513e-01
     3   -9.148992597117e-02
     4   -9.854181494056e-02
     5   -9.621749071917e-03
     6    2.530817412146e-02
     7    2.530918803648e-01
     8    5.183872692558e-01
     9    4.823162605184e-01
    10   -4.531554635126e-01
    11   -5.221962057773e-03
    12   -1.499625386994e+00
    13    1.402866377327e+00
    14    1.529347232952e-02
    15   -5.370528278613e-02
    16   -1.252841396570e-02
    17   -9.641454886527e-03
    18    1.306347338425e-02
    19   -3.015736833772e-01
    20   -6.262584045629e-02
    21    9.060081707385e-01
    22    9.531318027552e-02
    23    9.254515242949e-02
    24    1.009752616082e-02
    25   -2.514102113431e-02
    26   -2.378928989480e-01
    27   -5.436335418327e-01
    28    4.769110061740e-01
    29   -4.561742943314e-01
    30   -4.501847663842e-03
    31   -1.480244600262e+00
    32    1.420528763107e+00
    33    1.407233565064e-02
    34    5.270019245729e-02
    35    1.244203635717e-02
    36    9.594783594515e-03
    37   -1.435026886713e-02
    38    2.990526653432e-01
    39    6.223438487831e-02
    40   -9.126364924252e-01
    41    9.421721884314e-02
    42    9.330762365552e-02
    43    9.981577288123e-03
    44    6.601729621445e-02
    45   -9.078927794100e-01
    46   -8.858385562800e-02
    47   -9.788203059686e-02
    48   -9.802781585689e-03
[5D]

======= END OF MOLDEN-FORMATTED INPUT FILE =======


        *************************************************************
        *                                                           *
        *  Thank you very much for using Q-Chem.  Have a nice day.  *
        *                                                           *
        *************************************************************


