                  Welcome to Q-Chem
     A Quantum Leap Into The Future Of Chemistry


 Q-Chem 5.4 (devel), Q-Chem, Inc., Pleasanton, CA (2021)

 E. Epifanovsky,  A. T. B. Gilbert,  Xintian Feng,  Joonho Lee,  Yuezhi Mao,  
 N. Mardirossian,  P. Pokhilko,  A. White,  M. Wormit,  M. P. Coons,  
 A. L. Dempwolff,  Zhengting Gan,  D. Hait,  P. R. Horn,  L. D. Jacobson,  
 I. Kaliman,  J. Kussmann,  A. W. Lange,  Ka Un Lao,  D. S. Levine,  Jie Liu,  
 S. C. McKenzie,  A. F. Morrison,  K. Nanda,  F. Plasser,  D. R. Rehn,  
 M. L. Vidal,  Zhi-Qiang You,  Ying Zhu,  B. Alam,  B. Albrecht,  
 A. Aldossary,  E. Alguire,  J. H. Andersen,  D. Barton,  K. Begam,  A. Behn,  
 Y. A. Bernard,  E. J. Berquist,  H. Burton,  A. Carreras,  K. Carter-Fenk,  
 R. Chakraborty,  A. D. Chien,  K. D. Closser,  V. Cofer-Shabica,  
 S. Dasgupta,  Jia Deng,  M. de Wergifosse,  M. Diedenhofen,  Hainam Do,  
 S. Ehlert,  Po-Tung Fang,  S. Fatehi,  Qingguo Feng,  T. Friedhoff,  
 J. Gayvert,  Qinghui Ge,  G. Gidofalvi,  M. Goldey,  J. Gomes,  
 C. Gonzalez-Espinoza,  S. Gulania,  A. Gunina,  M. W. D. Hanson-Heine,  
 P. H. P. Harbach,  A. W. Hauser,  M. F. Herbst,  M. Hernandez Vera,  
 M. Hodecker,  Z. C. Holden,  S. Houck,  Xunkun Huang,  Kerwin Hui,  
 B. C. Huynh,  M. Ivanov,  Hyunjun Ji,  Hanjie Jiang,  B. Kaduk,  S. Kaehler,  
 K. Khistyaev,  Jaehoon Kim,  P. Klunzinger,  Z. Koczor-Benda,  
 Joong Hoon Koh,  D. Kosenkov,  L. Koulias,  T. Kowalczyk,  C. M. Krauter,  
 K. Kue,  A. Kunitsa,  T. Kus,  A. Landau,  K. V. Lawler,  D. Lefrancois,  
 S. Lehtola,  Rain Li,  Yi-Pei Li,  Jiashu Liang,  M. Liebenthal,  
 Hung-Hsuan Lin,  You-Sheng Lin,  Fenglai Liu,  Kuan-Yu Liu,  
 M. Loipersberger,  A. Luenser,  A. Manjanath,  P. Manohar,  E. Mansoor,  
 S. F. Manzer,  Shan-Ping Mao,  A. V. Marenich,  T. Markovich,  S. Mason,  
 S. A. Maurer,  P. F. McLaughlin,  M. F. S. J. Menger,  J.-M. Mewes,  
 S. A. Mewes,  P. Morgante,  J. W. Mullinax,  K. J. Oosterbaan,  G. Paran,  
 Alexander C. Paul,  Suranjan K. Paul,  F. Pavosevic,  Zheng Pei,  S. Prager,  
 E. I. Proynov,  E. Ramos,  B. Rana,  A. E. Rask,  A. Rettig,  R. M. Richard,  
 F. Rob,  E. Rossomme,  T. Scheele,  M. Scheurer,  M. Schneider,  
 N. Sergueev,  S. M. Sharada,  W. Skomorowski,  D. W. Small,  C. J. Stein,  
 Yu-Chuan Su,  E. J. Sundstrom,  Zhen Tao,  J. Thirman,  T. Tsuchimochi,  
 N. M. Tubman,  S. P. Veccham,  O. Vydrov,  J. Wenzel,  J. Witte,  A. Yamada,  
 Kun Yao,  S. Yeganeh,  S. R. Yost,  A. Zech,  Igor Ying Zhang,  Xing Zhang,  
 Yu Zhang,  D. Zuev,  A. Aspuru-Guzik,  A. T. Bell,  N. A. Besley,  
 K. B. Bravaya,  B. R. Brooks,  D. Casanova,  Jeng-Da Chai,  S. Coriani,  
 C. J. Cramer,  A. E. DePrince, III,  R. A. DiStasio Jr.,  A. Dreuw,  
 B. D. Dunietz,  T. R. Furlani,  W. A. Goddard III,  S. Grimme,  
 S. Hammes-Schiffer,  T. Head-Gordon,  W. J. Hehre,  Chao-Ping Hsu,  
 T.-C. Jagau,  Yousung Jung,  A. Klamt,  Jing Kong,  D. S. Lambrecht,  
 WanZhen Liang,  N. J. Mayhall,  C. W. McCurdy,  J. B. Neaton,  
 C. Ochsenfeld,  J. A. Parkhill,  R. Peverati,  V. A. Rassolov,  Yihan Shao,  
 L. V. Slipchenko,  T. Stauch,  R. P. Steele,  J. E. Subotnik,  
 A. J. W. Thom,  A. Tkatchenko,  D. G. Truhlar,  T. Van Voorhis,  
 T. A. Wesolowski,  K. B. Whaley,  H. L. Woodcock III,  P. M. Zimmerman,  
 S. Faraji,  P. M. W. Gill,  M. Head-Gordon,  J. M. Herbert,  A. I. Krylov

 Additional authors for Version 5.4.1: 
 S. Kotaru,  Shaozhi Li,  Xiangyuan Li,  F. Matz,  A. Molle,  Haisheng Ren,  
 Yingli Su,  Hung-Yi Tsai,  C. Utku,  Fang Wang

 Contributors to earlier versions of Q-Chem not listed above: 
 R. D. Adamson,  B. Austin,  R. Baer,  J. Baker,  G. J. O. Beran,  
 K. Brandhorst,  S. T. Brown,  E. F. C. Byrd,  A. K. Chakraborty,  
 G. K. L. Chan,  Chun-Min Chang,  Yunqing Chen,  C.-L. Cheng,  
 Siu Hung Chien,  D. M. Chipman,  D. L. Crittenden,  H. Dachsel,  
 R. J. Doerksen,  A. D. Dutoi,  R. G. Edgar,  J. Fosso-Tande,  
 L. Fusti-Molnar,  D. Ghosh,  A. Ghysels,  A. Golubeva-Zadorozhnaya,  
 J. Gonthier,  M. S. Gordon,  S. R. Gwaltney,  G. Hawkins,  J. E. Herr,  
 A. Heyden,  S. Hirata,  E. G. Hohenstein,  G. Kedziora,  F. J. Keil,  
 C. Kelley,  Jihan Kim,  R. A. King,  R. Z. Khaliullin,  P. P. Korambath,  
 W. Kurlancheek,  A. Laurent,  A. M. Lee,  M. S. Lee,  S. V. Levchenko,  
 Ching Yeh Lin,  D. Liotard,  E. Livshits,  R. C. Lochan,  I. Lotan,  
 L. A. Martinez-Martinez,  P. E. Maslen,  N. Nair,  D. P. O'Neill,  
 D. Neuhauser,  E. Neuscamman,  C. M. Oana,  R. Olivares-Amaya,  R. Olson,  
 T. M. Perrine,  B. Peters,  P. A. Pieniazek,  A. Prociuk,  Y. M. Rhee,  
 J. Ritchie,  M. A. Rohrdanz,  E. Rosta,  N. J. Russ,  H. F. Schaefer III,  
 M. W. Schmidt,  N. E. Schultz,  S. Sharma,  N. Shenvi,  C. D. Sherrill,  
 A. C. Simmonett,  A. Sodt,  T. Stein,  D. Stuck,  K. S. Thanthiriwatte,  
 V. Vanovschi,  L. Vogt,  Tao Wang,  A. Warshel,  M. A. Watson,  
 C. F. Williams,  Q. Wu,  X. Xu,  Jun Yang,  W. Zhang,  Yan Zhao

 Please cite Q-Chem as follows:
 Y. Shao et al., Mol. Phys. 113, 184-215 (2015)
 DOI: 10.1080/00268976.2014.952696

 Q-Chem 5.4.1 for Intel X86 EM64T Linux

 Parts of Q-Chem use Armadillo 9.800.1 (Horizon Scraper).
 http://arma.sourceforge.net/

 Q-Chem begins on Thu Nov 17 00:22:07 2022  

 Host: cpu311.baobab
0

     Scratch files written to /scratch/fum/qchem242407//
 Processing $rem in /home/share/wesolowski/qc5.aug2021.FDE/config/preferences:
 Processing $rem in /home/fum/.qchemrc:

 Checking the input file for inconsistencies... 	...done.

--------------------------------------------------------------
User input:
--------------------------------------------------------------
$comment
generated from CCJob.Templates
$end

$rem
sym_ignore = true
method = adc(2)
ee_states = 10
basis = cc-pVDZ
mem_static = 1024
mem_total = 30000
adc_davidson_maxiter = 900
adc_davidson_conv = 6
adc_print = 3
adc_prop_es = true
adc_prop_es2es = true
adc_prop_tpa = true
molden_format = True
state_analysis = true
print_orbitals = 15
gen_scfman = false
fde_export_density = true
fde_details = 3
$end

$molecule
0 1
H -0.0348278765 -0.2442097827 0.0636489606
C -1.0715972949 -0.5242748755 -0.0023551776
H -1.313264467 -1.5767591607 -0.0757276926
C -2.043634118 0.3926884087 0.0061254933
H -1.8137616575 1.4459188338 0.0804456828
H -3.085977293 0.114931858 -0.0593381042                     
$end
--------------------------------------------------------------
 ----------------------------------------------------------------
             Standard Nuclear Orientation (Angstroms)
    I     Atom           X                Y                Z
 ----------------------------------------------------------------
    1      H      -0.0348278765    -0.2442097827     0.0636489606
    2      C      -1.0715972949    -0.5242748755    -0.0023551776
    3      H      -1.3132644670    -1.5767591607    -0.0757276926
    4      C      -2.0436341180     0.3926884087     0.0061254933
    5      H      -1.8137616575     1.4459188338     0.0804456828
    6      H      -3.0859772930     0.1149318580    -0.0593381042
 ----------------------------------------------------------------
 Nuclear Repulsion Energy =          33.39030258 hartrees
 There are        8 alpha and        8 beta electrons
 Requested basis set is cc-pVDZ
 There are 24 shells and 48 basis functions
 Total memory of 30000 MB is distributed as follows: 
   MEM_STATIC is set to 1024 MB
   QALLOC/CCMAN JOB total memory use is  28976 MB
 Warning: actual memory use might exceed 30000 MB

 Total QAlloc Memory Limit  30000 MB
 Mega-Array Size      1001 MB
 MEM_STATIC part      1024 MB

                       Distance Matrix (Angstroms)
             H (  1)   C (  2)   H (  3)   C (  4)   H (  5)
   C (  2)  1.075957
   H (  3)  1.851895  1.082363
   C (  4)  2.108139  1.336319  2.102109
   H (  5)  2.453859  2.106971  3.067812  1.080583
   H (  6)  3.074674  2.114133  2.450428  1.080700  1.846510

 A cutoff of  1.0D-11 yielded    300 shell pairs
 There are      1220 function pairs (      1329 Cartesian)
 Smallest overlap matrix eigenvalue = 4.86E-03

 Scale SEOQF with 1.000000e-01/1.000000e-01/1.000000e+00

 Standard Electronic Orientation quadrupole field applied
 Nucleus-field energy     =     0.0000000022 hartrees
 Guess from superposition of atomic densities
 Warning:  Energy on first SCF cycle will be non-variational
 SAD guess density has 16.000000 electrons
 A restricted Hartree-Fock SCF calculation will be
 performed using Pulay DIIS extrapolation
 SCF converges when DIIS error is below 1.0E-08
 using 8 threads for integral computing
 -------------------------------------------------------
 OpenMP Integral computing Module                
 Release: version 1.0, May 2013, Q-Chem Inc. Pittsburgh 
 -------------------------------------------------------
 ---------------------------------------
  Cycle       Energy         DIIS Error
 ---------------------------------------
    1     -78.4341942425      1.01E-01
    2     -78.0175392033      7.20E-03
    3     -78.0381464390      1.84E-03
    4     -78.0396253896      5.67E-04
    5     -78.0397446188      5.79E-05
    6     -78.0397464947      9.21E-06
    7     -78.0397465551      1.95E-06
    8     -78.0397465579      1.72E-07
    9     -78.0397465579      2.56E-08
   10     -78.0397465579      6.94E-09 Convergence criterion met
 ---------------------------------------
 SCF time:  CPU 1.30 s  wall 1.82 s
 SCF   energy in the final basis set = -78.03974656
 Total energy in the final basis set = -78.03974656
Exporting Density Matrix to file 'Densmat_SCF.txt'.
Export successful
================================================================================
|                                                                              |
|                                 A D C  M A N                                 |
|                                                                              |
 ------------------------------------------------------------------------------ 
|                                                                              |
| Components:                                                                  |
|                                                                              |
| - libvmm - 1.3-trunk                                                         |
|   Authors:                                                                   |
|   Evgeny Epifanovsky, Ilya Kaliman                                           |
|                                                                              |
| - libtensor - 2.5-trunk                                                      |
|   Authors:                                                                   |
|   Evgeny Epifanovsky, Michael Wormit, Dmitry Zuev, Sam Manzer,               |
|   Ilya Kaliman                                                               |
|                                                                              |
| - libwfa - 1.1-trunk                                                         |
|   Authors:                                                                   |
|   Felix Plasser, Stefanie Mewes (Baeppler), Benjamin Thomitzni,              |
|   Michael Wormit, Feng Chen, Anna I. Krylov, Pavel Pokhilko                  |
|                                                                              |
| - libadc - 1.1-trunk                                                         |
|   Authors:                                                                   |
|   Michael Wormit, Adrian L. Dempwolff, Philipp H. P. Harbach,                |
|   Caroline Krauter, Dirk Rehn, Matthias Schneider, Jan Wenzel                |
|                                                                              |
| - adcman - 2.6-trunk                                                         |
|   Authors:                                                                   |
|   Michael Wormit, Adrian L. Dempwolff, Philipp H. P. Harbach,                |
|   Caroline Krauter, Daniel Lefrancois, Jan-Michael Mewes, Dirk Rehn,         |
|   Matthias Schneider, Jan Wenzel, Andreas Dreuw                              |
|                                                                              |
| Authors of earlier versions of ADCMAN:                                       |
| Andreas Dreuw, Jan Hendrik Starcke, Dirk Rehn, Michael Wormit                |
|                                                                              |
================================================================================

 Created directory /scratch/fum/qchem242407/plots
  Import QC data ...  CPU 0.00 s  wall 0.00 s

 Alpha MOs, Restricted
 -- Occupied --                  
-11.235 -11.234  -1.031  -0.790  -0.641  -0.581  -0.506  -0.373
  1 A     2 A     3 A     4 A     5 A     6 A     7 A     8 A                  
 -- Virtual --                   
  0.168   0.204   0.233   0.239   0.303   0.461   0.578   0.615
  9 A    10 A    11 A    12 A    13 A    14 A    15 A    16 A                  
  0.690   0.709   0.784   0.808   0.863   0.936   0.971   1.010
 17 A    18 A    19 A    20 A    21 A    22 A    23 A    24 A                  
  1.131   1.234   1.254   1.265   1.293   1.603   1.725   1.750
 25 A    26 A    27 A    28 A    29 A    30 A    31 A    32 A                  
  1.819   1.858   1.866   1.922   1.977   1.979   2.219   2.255
 33 A    34 A    35 A    36 A    37 A    38 A    39 A    40 A                  
  2.376   2.455   2.505   2.631   2.724   2.822   3.142   3.396
 41 A    42 A    43 A    44 A    45 A    46 A    47 A    48 A                  

 Beta MOs, Restricted
 -- Occupied --                  
-11.235 -11.234  -1.031  -0.790  -0.641  -0.581  -0.506  -0.373
  1 A     2 A     3 A     4 A     5 A     6 A     7 A     8 A                  
 -- Virtual --                   
  0.168   0.204   0.233   0.239   0.303   0.461   0.578   0.615
  9 A    10 A    11 A    12 A    13 A    14 A    15 A    16 A                  
  0.690   0.709   0.784   0.808   0.863   0.936   0.971   1.010
 17 A    18 A    19 A    20 A    21 A    22 A    23 A    24 A                  
  1.131   1.234   1.254   1.265   1.293   1.603   1.725   1.750
 25 A    26 A    27 A    28 A    29 A    30 A    31 A    32 A                  
  1.819   1.858   1.866   1.922   1.977   1.979   2.219   2.255
 33 A    34 A    35 A    36 A    37 A    38 A    39 A    40 A                  
  2.376   2.455   2.505   2.631   2.724   2.822   3.142   3.396
 41 A    42 A    43 A    44 A    45 A    46 A    47 A    48 A                  
  Import AO data ...  CPU 0.00 s  wall 0.01 s
  Using point group: C1
  Irreducible representations in point group: A
  Molecular orbitals: 
  Occupied MOs:
  Block   0:   1 (  A) A   2 (  A) A   3 (  A) A   4 (  A) A   5 (  A) A
                  -11.24      -11.23      -1.031     -0.7904     -0.6413
               6 (  A) A   7 (  A) A   8 (  A) A
                 -0.5811     -0.5056     -0.3731
  Block   1:   1 (  A) B   2 (  A) B   3 (  A) B   4 (  A) B   5 (  A) B
                  -11.24      -11.23      -1.031     -0.7904     -0.6413
               6 (  A) B   7 (  A) B   8 (  A) B
                 -0.5811     -0.5056     -0.3731
  Virtual MOs:
  Block   0:   9 (  A) A  10 (  A) A  11 (  A) A  12 (  A) A  13 (  A) A
                  0.1676      0.2036      0.2333      0.2395       0.303
              14 (  A) A  15 (  A) A  16 (  A) A  17 (  A) A  18 (  A) A
                  0.4612       0.578      0.6153      0.6899      0.7092
              19 (  A) A  20 (  A) A  21 (  A) A  22 (  A) A
                  0.7838      0.8076      0.8631      0.9358
  Block   1:  23 (  A) A  24 (  A) A  25 (  A) A  26 (  A) A  27 (  A) A
                  0.9707        1.01       1.131       1.234       1.254
              28 (  A) A  29 (  A) A  30 (  A) A  31 (  A) A  32 (  A) A
                   1.265       1.293       1.603       1.725        1.75
              33 (  A) A  34 (  A) A  35 (  A) A  36 (  A) A
                   1.819       1.858       1.866       1.922
  Block   2:  37 (  A) A  38 (  A) A  39 (  A) A  40 (  A) A  41 (  A) A
                   1.977       1.979       2.219       2.255       2.376
              42 (  A) A  43 (  A) A  44 (  A) A  45 (  A) A  46 (  A) A
                   2.455       2.505       2.631       2.724       2.822
              47 (  A) A  48 (  A) A
                   3.142       3.396
  Block   3:   9 (  A) B  10 (  A) B  11 (  A) B  12 (  A) B  13 (  A) B
                  0.1676      0.2036      0.2333      0.2395       0.303
              14 (  A) B  15 (  A) B  16 (  A) B  17 (  A) B  18 (  A) B
                  0.4612       0.578      0.6153      0.6899      0.7092
              19 (  A) B  20 (  A) B  21 (  A) B  22 (  A) B
                  0.7838      0.8076      0.8631      0.9358
  Block   4:  23 (  A) B  24 (  A) B  25 (  A) B  26 (  A) B  27 (  A) B
                  0.9707        1.01       1.131       1.234       1.254
              28 (  A) B  29 (  A) B  30 (  A) B  31 (  A) B  32 (  A) B
                   1.265       1.293       1.603       1.725        1.75
              33 (  A) B  34 (  A) B  35 (  A) B  36 (  A) B
                   1.819       1.858       1.866       1.922
  Block   5:  37 (  A) B  38 (  A) B  39 (  A) B  40 (  A) B  41 (  A) B
                   1.977       1.979       2.219       2.255       2.376
              42 (  A) B  43 (  A) B  44 (  A) B  45 (  A) B  46 (  A) B
                   2.455       2.505       2.631       2.724       2.822
              47 (  A) B  48 (  A) B
                   3.142       3.396
  Import MO data ...  CPU 0.01 s  wall 0.01 s
  Import HF data ...  CPU 0.07 s  wall 0.03 s
  Import 2e integrals ...  CPU 0.64 s  wall 0.12 s

--------------------------------------------------------------------------------
                                   HF Summary                                   
--------------------------------------------------------------------------------
  Energy:                                                  -78.0397465579 a.u.
  Dip. moment [a.u.]:                  [  -0.000311,    0.001332,    0.000651]
  Total dipole [Debye]:                                               0.003850
  <r^2> [a.u.]:                        [ 175.078954,   34.927917,   11.633263]
  Total <r^2> [a.u.]:                                               221.640133
--------------------------------------------------------------------------------
  HF properties ...  CPU 0.01 s  wall 0.01 s
  MP(1) calculation ...  CPU 0.01 s  wall 0.01 s
  N^6 prerequesite intermediates ...  CPU 0.44 s  wall 0.08 s
  Difference density matrix of state mp2_gs printed to ASCII file 'State_mp2_gs_Difference.txt'
Exporting MP density matrix to file 'Densmat_MP.txt'.
Export successful
  Total density matrix of state mp2_gs printed to ASCII file 'State_mp2_gs_Total.txt'
Exporting MP density matrix to file 'Densmat_MP.txt'.
Export successful

--------------------------------------------------------------------------------
                                 MP(2) Summary                                  
--------------------------------------------------------------------------------
  MP energy contribution:                                   -0.2798664011 a.u.
  Total energy:                                            -78.3196129590 a.u.
  Dip. moment [a.u.]:                  [  -0.000388,    0.001068,    0.000624]
  Total dipole [Debye]:                                               0.003295
  <r^2> [a.u.]:                        [ 175.125973,   34.967017,   11.462881]
  Total <r^2> [a.u.]:                                               221.555871

  Density matrix analysis:
  ------------------------
  NOs
    Occupation of frontier NOs:
       0.0456   1.9380
    Number of electrons: 16.000000
    Number of unpaired electrons: n_u =  0.40413, n_u,nl =  0.04534
    NO participation ratio (PR_NO): 13.823716
  
  
  Mulliken Population Analysis
  Atom      Charge (e)              h+              e-           Del q
  --------------------------------------------------------------------
   1 H        0.050328        0.014060       -0.011197        0.002863
   2 C       -0.099325        0.093420       -0.099048       -0.005628
   3 H        0.050935        0.014063       -0.011188        0.002875
   4 C       -0.103073        0.093337       -0.099266       -0.005929
   5 H        0.050211        0.014136       -0.011186        0.002950
   6 H        0.050924        0.014069       -0.011200        0.002869
  --------------------------------------------------------------------
  Sum:       -0.000000        0.243086       -0.243086       -0.000000
  
  Multipole moment analysis of the density matrix
    Molecular charge:                      -0.000000
    Number of electrons:                   16.000000
      Center of electronic charge [Ang]: [ -1.558688,  -0.065638,   0.001958]
    Total nuclear charge:                  16.000000
      Center of nuclear charge [Ang]:    [ -1.558701,  -0.065602,   0.001978]
    Dipole moment [D]:                     0.003295
      Cartesian components [D]:          [ -0.000987,   0.002714,   0.001586]
    RMS size of the density [Ang]:         1.201583
      Cartesian components [Ang]:        [  0.797187,   0.779536,   0.447903]
  
  Exciton analysis of the difference density matrix
    <r_h> [Ang]:                  [ -1.559161,  -0.065989,   0.001820]
    <r_e> [Ang]:                  [ -1.558992,  -0.065414,   0.001879]
    |<r_e - r_h>| [Ang]:            0.000602
    Hole size [Ang]:                1.394810
      Cartesian components [Ang]: [  0.846719,   0.834577,   0.729412]
    Electron size [Ang]:            1.359790
      Cartesian components [Ang]: [  0.878423,   0.861184,   0.579452]
--------------------------------------------------------------------------------
  MP(2) calculation ...  CPU 0.10 s  wall 0.09 s
  Start ADC(2)-s ...  CPU 0.01 s  wall 0.00 s
  ADC(2) intermediates ...  CPU 0.02 s  wall 0.01 s
  Starting Davidson for singlet states of irrep A ... 
--------------------------------------------------------------------------------
   It NVec Conv  Avg. Norm  Max. Norm  Conv. states           Remark
--------------------------------------------------------------------------------
        10    0  1.330e-01  4.682e-01  0.4112 n n n n n n n n Guess.
    1   20    0  2.319e-02  1.113e-01  0.3251 n n n n n n n n 
    2   30    0  6.000e-03  2.855e-02  0.3203 n n n n n n n n 
    3   40    0  2.175e-03  1.607e-02  0.3199 n n n n n n n n 
    4   50    0  6.546e-04  5.053e-03  0.3199 n n n n n n n n 
    5   20    0  2.875e-04  2.186e-03  0.3199 n n n n n n n n Subspace collapsed.
    6   30    0  2.332e-04  2.182e-03  0.3199 n n n n n n n n 
    7   40    0  1.301e-04  1.226e-03  0.3199 n n n n n n n n 
    8   50    0  1.631e-04  1.595e-03  0.3199 n n n n n n n n 
    9   20    2  1.419e-04  1.387e-03  0.3199 n y n y n n n n Subspace collapsed.
   10   30    5  1.409e-04  1.399e-03  0.3199 n y y y y y n n 
   11   40    5  1.609e-04  1.607e-03  0.3199 n y y y y y n n 
   12   50    5  1.814e-04  1.814e-03  0.3199 n y y y y y n n 
   13   20    7  9.321e-05  9.319e-04  0.3199 y y y y y y n y Subspace collapsed.
   14   30    7  6.888e-05  6.886e-04  0.3199 y y y y y y n y 
   15   40    8  5.979e-05  5.978e-04  0.3199 y y y y y y n y 
   16   50    8  6.213e-05  6.212e-04  0.3199 y y y y y y n y 
   17   20    8  3.933e-05  3.933e-04  0.3199 y y y y y y n y Subspace collapsed.
   18   30    8  4.036e-05  4.036e-04  0.3199 y y y y y y n y 
   19   40    8  4.229e-05  4.229e-04  0.3199 y y y y y y n y 
   20   50    9  4.433e-05  4.433e-04  0.3199 y y y y y y y y 
   21   20    9  2.338e-05  2.338e-04  0.3199 y y y y y y y y Subspace collapsed.
   22   30    9  1.894e-05  1.894e-04  0.3199 y y y y y y y y 
   23   32    9  1.891e-05  1.891e-04  0.3199 y y y y y y y y 
   24   33    9  1.890e-05  1.890e-04  0.3199 y y y y y y y y 
   25   34    9  1.870e-05  1.870e-04  0.3199 y y y y y y y y 
   26   35    9  1.843e-05  1.843e-04  0.3199 y y y y y y y y 
   27   36    9  1.852e-05  1.852e-04  0.3199 y y y y y y y y 
   28   37    9  1.858e-05  1.858e-04  0.3199 y y y y y y y y 
   29   37    9  1.858e-05  1.858e-04  0.3199 y y y y y y y y 
   30   47    9  1.666e-05  1.666e-04  0.3199 y y y y y y y y 
   31   50    9  1.839e-05  1.839e-04  0.3199 y y y y y y y y 
   32   11    9  1.722e-05  1.722e-04  0.3199 y y y y y y y y Subspace collapsed.
   33   16    9  1.186e-05  1.186e-04  0.3199 y y y y y y y y 
   34   21    9  1.176e-05  1.176e-04  0.3199 y y y y y y y y 
   35   26    9  1.272e-05  1.272e-04  0.3199 y y y y y y y y 
   36   30    9  1.567e-05  1.567e-04  0.3199 y y y y y y y y 
   37   34    9  1.290e-05  1.290e-04  0.3199 y y y y y y y y 
   38   38    9  5.832e-06  5.832e-05  0.3199 y y y y y y y y 
   39   42    9  2.231e-06  2.231e-05  0.3199 y y y y y y y y 
   40   46    9  1.058e-06  1.058e-05  0.3199 y y y y y y y y 
   41   50    9  4.273e-07  4.273e-06  0.3199 y y y y y y y y 
   42   14    9  2.044e-07  2.044e-06  0.3199 y y y y y y y y Subspace collapsed.
   43   18    9  1.651e-07  1.651e-06  0.3199 y y y y y y y y 
   44   22    9  1.165e-07  1.165e-06  0.3199 y y y y y y y y 
   45   26   10  6.744e-08  6.744e-07  0.3199 y y y y y y y y Converged.
--------------------------------------------------------------------------------
  Davidson Summary: 
 ------------------------------------------------------------
  State  0: excitation energy =   0.3199 a.u.   (converged)
  State  1: excitation energy =   0.3327 a.u.   (converged)
  State  2: excitation energy =   0.3365 a.u.   (converged)
  State  3: excitation energy =   0.3613 a.u.   (converged)
  State  4: excitation energy =   0.3744 a.u.   (converged)
  State  5: excitation energy =   0.3862 a.u.   (converged)
  State  6: excitation energy =   0.4254 a.u.   (converged)
  State  7: excitation energy =   0.4464 a.u.   (converged)
  State  8: excitation energy =   0.4556 a.u.   (converged)
  State  9: excitation energy =   0.4658 a.u.   (converged)
 ------------------------------------------------------------

  Singlet states of irrep A ...  CPU 97.98 s  wall 30.55 s
  TDMs ...  CPU 0.68 s  wall 0.26 s
  SDMs ...  CPU 3.10 s  wall 0.70 s
  Starting TPA DIIS iterations ... 
------------------------------------ 
   It     Res. Norm  Remark
------------------------------------
                       Guess.
    1     4.466e+00  
    2     5.933e+00  
    3     1.084e+00  
    4     2.580e-01  
    5     6.683e-02  
    6     2.685e-02  
    7     8.292e-03  
    8     1.420e-03  
    9     5.273e-04  
   10     8.920e-05  
   11     2.770e-05  
   12     4.339e-06  
   13     1.387e-06  
   14     4.323e-07  Converged.
   ... Converged in 14 steps (norm: 4.32338e-07)
------------------------------------
  Starting TPA DIIS iterations ... 
------------------------------------ 
   It     Res. Norm  Remark
------------------------------------
                       Guess.
    1     4.214e+00  
    2     5.595e+00  
    3     1.035e+00  
    4     2.589e-01  
    5     6.649e-02  
    6     2.710e-02  
    7     8.197e-03  
    8     1.461e-03  
    9     5.374e-04  
   10     9.024e-05  
   11     2.843e-05  
   12     4.357e-06  
   13     1.411e-06  
   14     4.262e-07  Converged.
   ... Converged in 14 steps (norm: 4.26227e-07)
------------------------------------
  Starting TPA DIIS iterations ... 
------------------------------------ 
   It     Res. Norm  Remark
------------------------------------
                       Guess.
    1     6.882e-01  
    2     4.837e-01  
    3     1.707e-01  
    4     6.152e-02  
    5     1.833e-02  
    6     6.612e-03  
    7     1.036e-03  
    8     4.436e-04  
    9     1.245e-04  
   10     2.777e-05  
   11     6.685e-06  
   12     1.955e-06  
   13     1.384e-06  
   14     5.652e-07  Converged.
   ... Converged in 14 steps (norm: 5.65226e-07)
------------------------------------
  Starting TPA DIIS iterations ... 
------------------------------------ 
   It     Res. Norm  Remark
------------------------------------
                       Guess.
    1     4.790e+00  
    2     6.517e+00  
    3     1.174e+00  
    4     2.900e-01  
    5     7.623e-02  
    6     3.090e-02  
    7     9.523e-03  
    8     1.628e-03  
    9     6.095e-04  
   10     1.037e-04  
   11     3.258e-05  
   12     5.150e-06  
   13     1.662e-06  
   14     5.187e-07  Converged.
   ... Converged in 14 steps (norm: 5.18721e-07)
------------------------------------
  Starting TPA DIIS iterations ... 
------------------------------------ 
   It     Res. Norm  Remark
------------------------------------
                       Guess.
    1     4.518e+00  
    2     6.145e+00  
    3     1.121e+00  
    4     2.907e-01  
    5     7.586e-02  
    6     3.123e-02  
    7     9.419e-03  
    8     1.676e-03  
    9     6.213e-04  
   10     1.050e-04  
   11     3.341e-05  
   12     5.168e-06  
   13     1.687e-06  
   14     5.109e-07  Converged.
   ... Converged in 14 steps (norm: 5.10852e-07)
------------------------------------
  Starting TPA DIIS iterations ... 
------------------------------------ 
   It     Res. Norm  Remark
------------------------------------
                       Guess.
    1     7.015e-01  
    2     5.030e-01  
    3     1.817e-01  
    4     7.059e-02  
    5     1.988e-02  
    6     7.295e-03  
    7     1.185e-03  
    8     5.310e-04  
    9     1.530e-04  
   10     3.190e-05  
   11     7.798e-06  
   12     2.354e-06  
   13     1.779e-06  
   14     7.300e-07  Converged.
   ... Converged in 14 steps (norm: 7.29991e-07)
------------------------------------
  Starting TPA DIIS iterations ... 
------------------------------------ 
   It     Res. Norm  Remark
------------------------------------
                       Guess.
    1     4.890e+00  
    2     6.701e+00  
    3     1.202e+00  
    4     3.002e-01  
    5     7.924e-02  
    6     3.220e-02  
    7     9.917e-03  
    8     1.694e-03  
    9     6.360e-04  
   10     1.084e-04  
   11     3.417e-05  
   12     5.415e-06  
   13     1.753e-06  
   14     5.472e-07  Converged.
   ... Converged in 14 steps (norm: 5.47161e-07)
------------------------------------
  Starting TPA DIIS iterations ... 
------------------------------------ 
   It     Res. Norm  Remark
------------------------------------
                       Guess.
    1     4.613e+00  
    2     6.318e+00  
    3     1.148e+00  
    4     3.009e-01  
    5     7.886e-02  
    6     3.256e-02  
    7     9.810e-03  
    8     1.745e-03  
    9     6.483e-04  
   10     1.097e-04  
   11     3.504e-05  
   12     5.433e-06  
   13     1.778e-06  
   14     5.387e-07  Converged.
   ... Converged in 14 steps (norm: 5.38749e-07)
------------------------------------
  Starting TPA DIIS iterations ... 
------------------------------------ 
   It     Res. Norm  Remark
------------------------------------
                       Guess.
    1     7.054e-01  
    2     5.088e-01  
    3     1.850e-01  
    4     7.355e-02  
    5     2.035e-02  
    6     7.515e-03  
    7     1.233e-03  
    8     5.600e-04  
    9     1.625e-04  
   10     3.296e-05  
   11     8.158e-06  
   12     2.487e-06  
   13     1.915e-06  
   14     7.877e-07  Converged.
   ... Converged in 14 steps (norm: 7.87737e-07)
------------------------------------
  Starting TPA DIIS iterations ... 
------------------------------------ 
   It     Res. Norm  Remark
------------------------------------
                       Guess.
    1     5.668e+00  
    2     8.156e+00  
    3     1.418e+00  
    4     3.837e-01  
    5     1.038e-01  
    6     4.294e-02  
    7     1.314e-02  
    8     2.234e-03  
    9     8.542e-04  
   10     1.470e-04  
   11     4.755e-05  
   12     7.644e-06  
   13     2.536e-06  
   14     7.923e-07  Converged.
   ... Converged in 14 steps (norm: 7.92311e-07)
------------------------------------
  Starting TPA DIIS iterations ... 
------------------------------------ 
   It     Res. Norm  Remark
------------------------------------
                       Guess.
    1     5.344e+00  
    2     7.689e+00  
    3     1.353e+00  
    4     3.840e-01  
    5     1.034e-01  
    6     4.352e-02  
    7     1.301e-02  
    8     2.306e-03  
    9     8.706e-04  
   10     1.489e-04  
   11     4.865e-05  
   12     7.660e-06  
   13     2.557e-06  
   14     7.804e-07  Converged.
   ... Converged in 14 steps (norm: 7.80375e-07)
------------------------------------
  Starting TPA DIIS iterations ... 
------------------------------------ 
   It     Res. Norm  Remark
------------------------------------
                       Guess.
    1     7.330e-01  
    2     5.515e-01  
    3     2.103e-01  
    4     9.842e-02  
    5     2.400e-02  
    6     9.311e-03  
    7     1.645e-03  
    8     8.016e-04  
    9     2.400e-04  
   10     3.764e-05  
   11     1.120e-05  
   12     3.658e-06  
   13     3.189e-06  
   14     1.341e-06  
   15     5.064e-07  Converged.
   ... Converged in 15 steps (norm: 5.06443e-07)
------------------------------------
  Starting TPA DIIS iterations ... 
------------------------------------ 
   It     Res. Norm  Remark
------------------------------------
                       Guess.
    1     6.161e+00  
    2     9.111e+00  
    3     1.554e+00  
    4     4.406e-01  
    5     1.205e-01  
    6     5.033e-02  
    7     1.533e-02  
    8     2.600e-03  
    9     1.004e-03  
   10     1.736e-04  
   11     5.696e-05  
   12     9.212e-06  
   13     3.106e-06  
   14     9.724e-07  Converged.
   ... Converged in 14 steps (norm: 9.72421e-07)
------------------------------------
  Starting TPA DIIS iterations ... 
------------------------------------ 
   It     Res. Norm  Remark
------------------------------------
                       Guess.
    1     5.808e+00  
    2     8.589e+00  
    3     1.483e+00  
    4     4.404e-01  
    5     1.201e-01  
    6     5.108e-02  
    7     1.519e-02  
    8     2.687e-03  
    9     1.023e-03  
   10     1.758e-04  
   11     5.819e-05  
   12     9.227e-06  
   13     3.116e-06  
   14     9.596e-07  Converged.
   ... Converged in 14 steps (norm: 9.59601e-07)
------------------------------------
  Starting TPA DIIS iterations ... 
------------------------------------ 
   It     Res. Norm  Remark
------------------------------------
                       Guess.
    1     7.484e-01  
    2     5.767e-01  
    3     2.257e-01  
    4     1.159e-01  
    5     2.635e-02  
    6     1.054e-02  
    7     1.941e-03  
    8     9.613e-04  
    9     2.907e-04  
   10     3.864e-05  
   11     1.340e-05  
   12     4.535e-06  
   13     4.205e-06  
   14     1.793e-06  
   15     6.581e-07  Converged.
   ... Converged in 15 steps (norm: 6.58056e-07)
------------------------------------
  Starting TPA DIIS iterations ... 
------------------------------------ 
   It     Res. Norm  Remark
------------------------------------
                       Guess.
    1     6.669e+00  
    2     1.012e+01  
    3     1.694e+00  
    4     5.020e-01  
    5     1.386e-01  
    6     5.838e-02  
    7     1.770e-02  
    8     2.994e-03  
    9     1.168e-03  
   10     2.025e-04  
   11     6.731e-05  
   12     1.093e-05  
   13     3.746e-06  
   14     1.179e-06  
   15     4.657e-07  Converged.
   ... Converged in 15 steps (norm: 4.65663e-07)
------------------------------------
  Starting TPA DIIS iterations ... 
------------------------------------ 
   It     Res. Norm  Remark
------------------------------------
                       Guess.
    1     6.286e+00  
    2     9.539e+00  
    3     1.615e+00  
    4     5.013e-01  
    5     1.381e-01  
    6     5.933e-02  
    7     1.755e-02  
    8     3.097e-03  
    9     1.190e-03  
   10     2.051e-04  
   11     6.865e-05  
   12     1.095e-05  
   13     3.739e-06  
   14     1.168e-06  
   15     3.543e-07  Converged.
   ... Converged in 15 steps (norm: 3.54296e-07)
------------------------------------
  Starting TPA DIIS iterations ... 
------------------------------------ 
   It     Res. Norm  Remark
------------------------------------
                       Guess.
    1     7.628e-01  
    2     6.015e-01  
    3     2.412e-01  
    4     1.352e-01  
    5     2.884e-02  
    6     1.188e-02  
    7     2.273e-03  
    8     1.121e-03  
    9     3.420e-04  
   10     3.953e-05  
   11     1.591e-05  
   12     5.552e-06  
   13     5.421e-06  
   14     2.342e-06  
   15     8.527e-07  Converged.
   ... Converged in 15 steps (norm: 8.52655e-07)
------------------------------------
  Starting TPA DIIS iterations ... 
------------------------------------ 
   It     Res. Norm  Remark
------------------------------------
                       Guess.
    1     8.956e+00  
    2     1.493e+01  
    3     2.310e+00  
    4     8.087e-01  
    5     2.290e-01  
    6     9.949e-02  
    7     2.955e-02  
    8     4.953e-03  
    9     2.000e-03  
   10     3.492e-04  
   11     1.199e-04  
   12     1.975e-05  
   13     7.161e-06  
   14     2.421e-06  
   15     1.063e-06  
   16     3.992e-07  Converged.
   ... Converged in 16 steps (norm: 3.99181e-07)
------------------------------------
  Starting TPA DIIS iterations ... 
------------------------------------ 
   It     Res. Norm  Remark
------------------------------------
                       Guess.
    1     8.438e+00  
    2     1.408e+01  
    3     2.200e+00  
    4     8.047e-01  
    5     2.285e-01  
    6     1.015e-01  
    7     2.934e-02  
    8     5.137e-03  
    9     2.034e-03  
   10     3.536e-04  
   11     1.214e-04  
   12     1.987e-05  
   13     6.938e-06  
   14     2.452e-06  
   15     7.049e-07  Converged.
   ... Converged in 15 steps (norm: 7.04913e-07)
------------------------------------
  Starting TPA DIIS iterations ... 
------------------------------------ 
   It     Res. Norm  Remark
------------------------------------
                       Guess.
    1     8.156e-01  
    2     7.010e-01  
    3     3.068e-01  
    4     2.322e-01  
    5     4.097e-02  
    6     1.849e-02  
    7     4.054e-03  
    8     1.650e-03  
    9     5.540e-04  
   10     5.617e-05  
   11     3.028e-05  
   12     1.164e-05  
   13     1.299e-05  
   14     5.846e-06  
   15     2.463e-06  
   16     1.124e-06  
   17     2.722e-07  Converged.
   ... Converged in 17 steps (norm: 2.72201e-07)
------------------------------------
  Starting TPA DIIS iterations ... 
------------------------------------ 
   It     Res. Norm  Remark
------------------------------------
                       Guess.
    1     1.073e+01  
    2     1.896e+01  
    3     2.776e+00  
    4     1.073e+00  
    5     3.079e-01  
    6     1.361e-01  
    7     3.988e-02  
    8     6.649e-03  
    9     2.739e-03  
   10     4.782e-04  
   11     1.647e-04  
   12     2.757e-05  
   13     1.028e-05  
   14     3.784e-06  
   15     1.759e-06  
   16     6.963e-07  Converged.
   ... Converged in 16 steps (norm: 6.96345e-07)
------------------------------------
  Starting TPA DIIS iterations ... 
------------------------------------ 
   It     Res. Norm  Remark
------------------------------------
                       Guess.
    1     1.011e+01  
    2     1.787e+01  
    3     2.643e+00  
    4     1.066e+00  
    5     3.073e-01  
    6     1.392e-01  
    7     3.961e-02  
    8     6.903e-03  
    9     2.783e-03  
   10     4.840e-04  
   11     1.661e-04  
   12     2.800e-05  
   13     9.714e-06  
   14     3.894e-06  
   15     1.130e-06  
   16     8.053e-07  Converged.
   ... Converged in 16 steps (norm: 8.05288e-07)
------------------------------------
  Starting TPA DIIS iterations ... 
------------------------------------ 
   It     Res. Norm  Remark
------------------------------------
                       Guess.
    1     8.473e-01  
    2     7.688e-01  
    3     3.538e-01  
    4     3.111e-01  
    5     5.123e-02  
    6     2.389e-02  
    7     5.663e-03  
    8     1.841e-03  
    9     7.014e-04  
   10     8.010e-05  
   11     4.471e-05  
   12     1.829e-05  
   13     2.130e-05  
   14     9.680e-06  
   15     4.562e-06  
   16     1.952e-06  
   17     5.366e-07  Converged.
   ... Converged in 17 steps (norm: 5.36595e-07)
------------------------------------
  Starting TPA DIIS iterations ... 
------------------------------------ 
   It     Res. Norm  Remark
------------------------------------
                       Guess.
    1     1.170e+01  
    2     2.124e+01  
    3     3.026e+00  
    4     1.225e+00  
    5     3.535e-01  
    6     1.576e-01  
    7     4.585e-02  
    8     7.627e-03  
    9     3.171e-03  
   10     5.530e-04  
   11     1.900e-04  
   12     3.218e-05  
   13     1.217e-05  
   14     4.686e-06  
   15     2.253e-06  
   16     9.053e-07  Converged.
   ... Converged in 16 steps (norm: 9.05299e-07)
------------------------------------
  Starting TPA DIIS iterations ... 
------------------------------------ 
   It     Res. Norm  Remark
------------------------------------
                       Guess.
    1     1.102e+01  
    2     2.002e+01  
    3     2.880e+00  
    4     1.215e+00  
    5     3.530e-01  
    6     1.614e-01  
    7     4.556e-02  
    8     7.922e-03  
    9     3.220e-03  
   10     5.596e-04  
   11     1.913e-04  
   12     3.292e-05  
   13     1.136e-05  
   14     4.848e-06  
   15     1.468e-06  
   16     1.086e-06  
   17     6.155e-07  Converged.
   ... Converged in 17 steps (norm: 6.15474e-07)
------------------------------------
  Starting TPA DIIS iterations ... 
------------------------------------ 
   It     Res. Norm  Remark
------------------------------------
                       Guess.
    1     8.622e-01  
    2     8.032e-01  
    3     3.783e-01  
    4     3.525e-01  
    5     5.703e-02  
    6     2.678e-02  
    7     6.588e-03  
    8     1.898e-03  
    9     7.780e-04  
   10     9.455e-05  
   11     5.370e-05  
   12     2.275e-05  
   13     2.690e-05  
   14     1.216e-05  
   15     5.981e-06  
   16     2.484e-06  
   17     7.260e-07  Converged.
   ... Converged in 17 steps (norm: 7.26045e-07)
------------------------------------
  Starting TPA DIIS iterations ... 
------------------------------------ 
   It     Res. Norm  Remark
------------------------------------
                       Guess.
    1     1.295e+01  
    2     2.426e+01  
    3     3.342e+00  
    4     1.425e+00  
    5     4.144e-01  
    6     1.866e-01  
    7     5.383e-02  
    8     8.931e-03  
    9     3.753e-03  
   10     6.529e-04  
   11     2.231e-04  
   12     3.846e-05  
   13     1.485e-05  
   14     6.019e-06  
   15     3.030e-06  
   16     1.228e-06  
   17     7.972e-07  Converged.
   ... Converged in 17 steps (norm: 7.97201e-07)
------------------------------------
  Starting TPA DIIS iterations ... 
------------------------------------ 
   It     Res. Norm  Remark
------------------------------------
                       Guess.
    1     1.220e+01  
    2     2.287e+01  
    3     3.179e+00  
    4     1.411e+00  
    5     4.140e-01  
    6     1.912e-01  
    7     5.350e-02  
    8     9.280e-03  
    9     3.809e-03  
   10     6.606e-04  
   11     2.245e-04  
   12     3.977e-05  
   13     1.366e-05  
   14     6.245e-06  
   15     2.043e-06  
   16     1.531e-06  
   17     8.496e-07  Converged.
   ... Converged in 17 steps (norm: 8.49626e-07)
------------------------------------
  Starting TPA DIIS iterations ... 
------------------------------------ 
   It     Res. Norm  Remark
------------------------------------
                       Guess.
    1     8.796e-01  
    2     8.454e-01  
    3     4.086e-01  
    4     4.023e-01  
    5     6.464e-02  
    6     3.033e-02  
    7     7.803e-03  
    8     1.953e-03  
    9     8.736e-04  
   10     1.136e-04  
   11     6.633e-05  
   12     2.943e-05  
   13     3.553e-05  
   14     1.573e-05  
   15     8.073e-06  
   16     3.228e-06  
   17     1.006e-06  
   18     5.123e-07  Converged.
   ... Converged in 18 steps (norm: 5.1226e-07)
------------------------------------
  Two-photon absorbption ...  CPU 91.03 s  wall 19.94 s
  Transition density matrix of state singlet_A_1 printed to ASCII file 'State_singlet_A_1_Transition.txt'
  Transition density matrix of state singlet_A_2 printed to ASCII file 'State_singlet_A_2_Transition.txt'
  Transition density matrix of state singlet_A_3 printed to ASCII file 'State_singlet_A_3_Transition.txt'
  Transition density matrix of state singlet_A_4 printed to ASCII file 'State_singlet_A_4_Transition.txt'
  Transition density matrix of state singlet_A_5 printed to ASCII file 'State_singlet_A_5_Transition.txt'
  Transition density matrix of state singlet_A_6 printed to ASCII file 'State_singlet_A_6_Transition.txt'
  Transition density matrix of state singlet_A_7 printed to ASCII file 'State_singlet_A_7_Transition.txt'
  Transition density matrix of state singlet_A_8 printed to ASCII file 'State_singlet_A_8_Transition.txt'
  Transition density matrix of state singlet_A_9 printed to ASCII file 'State_singlet_A_9_Transition.txt'
  Transition density matrix of state singlet_A_10 printed to ASCII file 'State_singlet_A_10_Transition.txt'
  Transition properties ...  CPU 0.13 s  wall 0.40 s
  Difference density matrix of state singlet_A_1 printed to ASCII file 'State_singlet_A_1_Difference.txt'
  Total density matrix of state singlet_A_1 printed to ASCII file 'State_singlet_A_1_Total.txt'
  Difference density matrix of state singlet_A_2 printed to ASCII file 'State_singlet_A_2_Difference.txt'
  Total density matrix of state singlet_A_2 printed to ASCII file 'State_singlet_A_2_Total.txt'
  Difference density matrix of state singlet_A_3 printed to ASCII file 'State_singlet_A_3_Difference.txt'
  Total density matrix of state singlet_A_3 printed to ASCII file 'State_singlet_A_3_Total.txt'
  Difference density matrix of state singlet_A_4 printed to ASCII file 'State_singlet_A_4_Difference.txt'
  Total density matrix of state singlet_A_4 printed to ASCII file 'State_singlet_A_4_Total.txt'
  Difference density matrix of state singlet_A_5 printed to ASCII file 'State_singlet_A_5_Difference.txt'
  Total density matrix of state singlet_A_5 printed to ASCII file 'State_singlet_A_5_Total.txt'
  Difference density matrix of state singlet_A_6 printed to ASCII file 'State_singlet_A_6_Difference.txt'
  Total density matrix of state singlet_A_6 printed to ASCII file 'State_singlet_A_6_Total.txt'
  Difference density matrix of state singlet_A_7 printed to ASCII file 'State_singlet_A_7_Difference.txt'
  Total density matrix of state singlet_A_7 printed to ASCII file 'State_singlet_A_7_Total.txt'
  Difference density matrix of state singlet_A_8 printed to ASCII file 'State_singlet_A_8_Difference.txt'
  Total density matrix of state singlet_A_8 printed to ASCII file 'State_singlet_A_8_Total.txt'
  Difference density matrix of state singlet_A_9 printed to ASCII file 'State_singlet_A_9_Difference.txt'
  Total density matrix of state singlet_A_9 printed to ASCII file 'State_singlet_A_9_Total.txt'
  Difference density matrix of state singlet_A_10 printed to ASCII file 'State_singlet_A_10_Difference.txt'
  Total density matrix of state singlet_A_10 printed to ASCII file 'State_singlet_A_10_Total.txt'
  Properties ...  CPU 0.24 s  wall 0.54 s
  ISR TDMS ...  CPU 16.46 s  wall 4.00 s
  ISR transition properties ...  CPU 0.15 s  wall 0.07 s
  Sum-over-states TPA ...  CPU 0.00 s  wall 0.00 s

--------------------------------------------------------------------------------
                   State-averaged natural transition orbitals
--------------------------------------------------------------------------------
--------------------------------------------------------------------------------
  SA-NTO decomposition ...  CPU 0.01 s  wall 0.02 s

--------------------------------------------------------------------------------
                             Excited State Summary
--------------------------------------------------------------------------------
--------------------------------------------------------------------------------

  Excited state 1 (singlet, A)                                     [converged]
  ----------------------------------------------------------------------------
  Term symbol:  2 (1) A                                     R^2 =  9.34170e-14

  Total energy:                                            -77.9996883646 a.u.
  Excitation energy:                                               8.705591 eV

  Osc. strength:                                                      0.444016
  Trans. dip. moment [a.u.]:           [   1.046415,   -0.993347,   -0.009487]
  <i|r^2|0> [a.u.]:                    [   6.166455,   -0.250257,   -0.000002]
  Two-photon absorption cross-section (SoS) [a.u.]:                   0.001418
  Two-photon absorption matrix (SoS) [a.u.]:
                                       |    0.013476    0.002837    0.000371 |
                                       |    0.002837    0.001446    0.000421 |
                                       |    0.000371    0.000421    0.002319 |
  Two-photon absorption cross-section [a.u.]:                         0.000911
  Two-photon absorption matrix [a.u.]:
                                       |    0.003267   -0.001127    0.000588 |
                                       |   -0.001127   -0.012854    0.001625 |
                                       |    0.000588    0.001625    0.000277 |

  Dip. moment [a.u.]:                  [  -0.000335,    0.000706,    0.000744]
  Total dipole [Debye]:                                               0.002744
  <r^2> [a.u.]:                        [ 175.882619,   35.651665,   11.867499]
  Total <r^2> [a.u.]:                                               223.401783

  V1^2 = 0.9715, V2^2 = 0.0285

  Important amplitudes:
      occ i     occ j     vir a      vir b          v   
    -----------------------------------------------------
     8 (A) A              9 (A) A                 0.6811
     6 (A) A             14 (A) A                -0.0630
     4 (A) A             10 (A) A                 0.0603
     7 (A) A             16 (A) A                 0.0567
     5 (A) A             13 (A) A                -0.0511
     6 (A) A             23 (A) A                -0.0486
     8 (A) A             20 (A) A                 0.0351
     6 (A) A             19 (A) A                 0.0315
     3 (A) A             12 (A) A                -0.0282
     5 (A) A             22 (A) A                 0.0213
     7 (A) A             11 (A) A                 0.0213
     4 (A) A             24 (A) A                 0.0187
     3 (A) A             26 (A) A                -0.0185
     8 (A) A   8 (A) B   17 (A) A   20 (A) B     -0.0184
     8 (A) A   8 (A) B    9 (A) A   28 (A) B     -0.0168
     6 (A) A             26 (A) A                -0.0162
     7 (A) A             21 (A) A                 0.0148
     3 (A) A             14 (A) A                -0.0139
     3 (A) A   4 (A) B    9 (A) A    9 (A) B     -0.0129
     6 (A) A             12 (A) A                 0.0125
     3 (A) A             19 (A) A                 0.0120
     8 (A) A   8 (A) B   18 (A) A   19 (A) B     -0.0113
     7 (A) A             32 (A) A                 0.0095
     7 (A) A             36 (A) A                 0.0085
     3 (A) A             23 (A) A                -0.0080
     8 (A) A   8 (A) B   25 (A) A   29 (A) B      0.0076
     6 (A) A             35 (A) A                -0.0071
     6 (A) A             40 (A) A                -0.0068
     3 (A) A   6 (A) B    9 (A) A   28 (A) B     -0.0065
     6 (A) A   8 (A) A   19 (A) A   28 (A) A      0.0061
     5 (A) A   7 (A) B    9 (A) A    9 (A) B     -0.0060
     5 (A) A   8 (A) B   11 (A) A   20 (A) B     -0.0059
     7 (A) A   8 (A) B   13 (A) A   20 (A) B      0.0059
     5 (A) A   8 (A) B   16 (A) A    9 (A) B     -0.0059
     3 (A) A   5 (A) B    9 (A) A   25 (A) B     -0.0058
     5 (A) A   8 (A) B   11 (A) A    9 (A) B      0.0058
     6 (A) A   8 (A) A    9 (A) A   18 (A) A     -0.0057
     7 (A) A   8 (A) B   22 (A) A   20 (A) B     -0.0057
     3 (A) A             40 (A) A                -0.0057
     8 (A) A   8 (A) B   19 (A) A   30 (A) B     -0.0056
    -----------------------------------------------------

  Density matrix analysis:
  ------------------------
  NOs
    Occupation of frontier NOs:
       0.9495   1.0217
    Number of electrons: 16.000000
    Number of unpaired electrons: n_u =  2.31352, n_u,nl =  2.03275
    NO participation ratio (PR_NO):  2.864402
  
  
  Mulliken Population Analysis
  Atom      Charge (e)              h+              e-           Del q
  --------------------------------------------------------------------
   1 H        0.057921        0.020129       -0.012536        0.007593
   2 C       -0.114099        0.490688       -0.505462       -0.014774
   3 H        0.058318        0.020007       -0.012624        0.007383
   4 C       -0.118478        0.490444       -0.505849       -0.015405
   5 H        0.057679        0.020027       -0.012559        0.007468
   6 H        0.058659        0.020213       -0.012478        0.007735
  --------------------------------------------------------------------
  Sum:       -0.000000        1.061507       -1.061507        0.000000
  
  Multipole moment analysis of the density matrix
    Molecular charge:                      -0.000000
    Number of electrons:                   16.000000
      Center of electronic charge [Ang]: [ -1.558690,  -0.065626,   0.001954]
    Total nuclear charge:                  16.000000
      Center of nuclear charge [Ang]:    [ -1.558701,  -0.065602,   0.001978]
    Dipole moment [D]:                     0.002744
      Cartesian components [D]:          [ -0.000853,   0.001796,   0.001892]
    RMS size of the density [Ang]:         1.214950
      Cartesian components [Ang]:        [  0.805447,   0.787185,   0.455740]
  
  Exciton analysis of the difference density matrix
    <r_h> [Ang]:                  [ -1.557930,  -0.065825,   0.001687]
    <r_e> [Ang]:                  [ -1.557956,  -0.065645,   0.001627]
    |<r_e - r_h>| [Ang]:            0.000192
    Hole size [Ang]:                1.285900
      Cartesian components [Ang]: [  0.729294,   0.712244,   0.783822]
    Electron size [Ang]:            1.463023
      Cartesian components [Ang]: [  0.855215,   0.829414,   0.849186]

  Transition density matrix analysis:
  -----------------------------------
  
  CT numbers (Mulliken)
    omega =     0.9535
    <Phe> =    -0.1616
  
  Exciton analysis of the transition density matrix
    Trans. dipole moment [D]:             1.833678
      Cartesian components [D]:         [  1.329860,  -1.262419,  -0.012057]
    <r_h> [Ang]:                        [ -1.557559,  -0.066027,   0.001751]
    <r_e> [Ang]:                        [ -1.558017,  -0.065634,   0.001580]
    |<r_e - r_h>| [Ang]:                  0.000628
    Hole size [Ang]:                      1.215524
      Cartesian components [Ang]:       [  0.651188,   0.636829,   0.804924]
    Electron size [Ang]:                  1.485409
      Cartesian components [Ang]:       [  0.865483,   0.838031,   0.868955]
    RMS electron-hole separation [Ang]:   1.937712
      Cartesian components [Ang]:       [  1.109360,   1.074463,   1.170289]
    Covariance(r_h, r_e) [Ang^2]:        -0.035394
    Correlation coefficient:             -0.019603
    Center-of-mass size [Ang]:            0.950414
      Cartesian components [Ang]:       [  0.528094,   0.515078,   0.599249]

  Decomposition into state-averaged NTOs
    H- 0 -> L+ 0: -0.6698 ( 89.7%)
    H- 2 -> L+ 5: -0.0844 (  1.4%)
                   omega =  95.4%
  ----------------------------------------------------------------------------


  Excited state 2 (singlet, A)                                     [converged]
  ----------------------------------------------------------------------------
  Term symbol:  3 (1) A                                     R^2 =  1.10415e-13

  Total energy:                                            -77.9868633359 a.u.
  Excitation energy:                                               9.054578 eV

  Osc. strength:                                                      0.000046
  Trans. dip. moment [a.u.]:           [  -0.002116,    0.004004,   -0.013722]
  <i|r^2|0> [a.u.]:                    [   0.049625,    0.089364,   -0.150380]
  Two-photon absorption cross-section (SoS) [a.u.]:                   4.967037
  Two-photon absorption matrix (SoS) [a.u.]:
                                       |    0.051582    0.058959   -0.535457 |
                                       |    0.058959    0.067042   -0.565763 |
                                       |   -0.535457   -0.565763   -0.118519 |
  Two-photon absorption cross-section [a.u.]:                         0.080201
  Two-photon absorption matrix [a.u.]:
                                       |   -0.002758   -0.006713    0.041000 |
                                       |   -0.006713   -0.011769    0.090093 |
                                       |    0.041000    0.090093    0.014781 |

  Dip. moment [a.u.]:                  [   0.000691,    0.030909,    0.003194]
  Total dipole [Debye]:                                               0.079000
  <r^2> [a.u.]:                        [ 174.380819,   33.934587,   13.171697]
  Total <r^2> [a.u.]:                                               221.487102

  V1^2 = 0.9541, V2^2 = 0.0459

  Important amplitudes:
      occ i     occ j     vir a      vir b          v   
    -----------------------------------------------------
     7 (A) A              9 (A) A                -0.6687
     8 (A) A             11 (A) A                -0.1480
     7 (A) A             20 (A) A                -0.0758
     5 (A) A   8 (A) B    9 (A) A    9 (A) B      0.0318
     8 (A) A             16 (A) A                 0.0273
     8 (A) A             10 (A) A                 0.0266
     8 (A) A             21 (A) A                -0.0176
     5 (A) A             28 (A) A                 0.0150
     4 (A) A   7 (A) B    9 (A) A   19 (A) B      0.0135
     5 (A) A   7 (A) B    9 (A) A   16 (A) B     -0.0133
     7 (A) A   8 (A) B   20 (A) A   17 (A) B      0.0105
     7 (A) A   8 (A) A    9 (A) A   28 (A) A     -0.0098
     5 (A) A   8 (A) B    9 (A) A   20 (A) B      0.0095
     4 (A) A   6 (A) B    9 (A) A   16 (A) B      0.0091
     5 (A) A   6 (A) A    9 (A) A   23 (A) A      0.0091
     5 (A) A   6 (A) A    9 (A) A   14 (A) A      0.0090
     5 (A) A   6 (A) B    9 (A) A   19 (A) B     -0.0087
     8 (A) A   7 (A) B    9 (A) A   28 (A) B      0.0085
     4 (A) A   5 (A) A    9 (A) A   10 (A) A      0.0084
     6 (A) A   7 (A) B    9 (A) A   18 (A) B      0.0083
     5 (A) A   6 (A) B    9 (A) A   23 (A) B      0.0080
     3 (A) A   7 (A) B    9 (A) A   18 (A) B     -0.0080
     5 (A) A   7 (A) A    9 (A) A   16 (A) A     -0.0079
     4 (A) A   8 (A) B    9 (A) A   25 (A) B      0.0077
     7 (A) A   8 (A) B   17 (A) A   20 (A) B      0.0074
     4 (A) A   7 (A) B   19 (A) A    9 (A) B      0.0074
     5 (A) A   5 (A) B    9 (A) A   13 (A) B      0.0072
     7 (A) A   8 (A) B   19 (A) A   18 (A) B      0.0072
     5 (A) A   8 (A) A    9 (A) A   20 (A) A      0.0069
     4 (A) A   5 (A) B    9 (A) A   18 (A) B     -0.0067
     7 (A) A   8 (A) B   17 (A) A    9 (A) B      0.0065
     7 (A) A   7 (A) B   20 (A) A   22 (A) B      0.0065
     5 (A) A   6 (A) B    9 (A) A   14 (A) B      0.0064
     8 (A) A             12 (A) A                 0.0063
     6 (A) A              9 (A) A                 0.0062
     4 (A) A   7 (A) A    9 (A) A   19 (A) A      0.0061
     4 (A) A   5 (A) B   10 (A) A    9 (A) B     -0.0061
     5 (A) A   7 (A) B   11 (A) A   20 (A) B      0.0060
     4 (A) A   7 (A) B    9 (A) A   14 (A) B      0.0060
     6 (A) A   7 (A) A   19 (A) A   28 (A) A     -0.0057
    -----------------------------------------------------

  Density matrix analysis:
  ------------------------
  NOs
    Occupation of frontier NOs:
       0.9568   1.0551
    Number of electrons: 16.000000
    Number of unpaired electrons: n_u =  2.35569, n_u,nl =  2.06379
    NO participation ratio (PR_NO):  3.035858
  
  
  Mulliken Population Analysis
  Atom      Charge (e)              h+              e-           Del q
  --------------------------------------------------------------------
   1 H        0.146739        0.116274       -0.019862        0.096411
   2 C       -0.299336        0.269712       -0.469722       -0.200011
   3 H        0.150741        0.129830       -0.030024        0.099806
   4 C       -0.302653        0.274864       -0.474444       -0.199580
   5 H        0.160138        0.130369       -0.020442        0.109927
   6 H        0.144371        0.122170       -0.028723        0.093447
  --------------------------------------------------------------------
  Sum:       -0.000000        1.043218       -1.043218        0.000000
  
  Multipole moment analysis of the density matrix
    Molecular charge:                      0.000000
    Number of electrons:                   16.000000
      Center of electronic charge [Ang]: [ -1.558724,  -0.066625,   0.001873]
    Total nuclear charge:                  16.000000
      Center of nuclear charge [Ang]:    [ -1.558701,  -0.065602,   0.001978]
    Dipole moment [D]:                     0.079000
      Cartesian components [D]:          [  0.001757,   0.078562,   0.008119]
    RMS size of the density [Ang]:         1.200981
      Cartesian components [Ang]:        [  0.788894,   0.767774,   0.480130]
  
  Exciton analysis of the difference density matrix
    <r_h> [Ang]:                  [ -1.571138,  -0.061913,   0.001685]
    <r_e> [Ang]:                  [ -1.571685,  -0.077049,   0.000381]
    |<r_e - r_h>| [Ang]:            0.015203
    Hole size [Ang]:                1.485928
      Cartesian components [Ang]: [  0.989870,   1.010406,   0.455213]
    Electron size [Ang]:            1.478411
      Cartesian components [Ang]: [  0.882101,   0.861210,   0.816036]

  Transition density matrix analysis:
  -----------------------------------
  
  CT numbers (Mulliken)
    omega =     0.9215
    <Phe> =    -0.0122
  
  Exciton analysis of the transition density matrix
    Trans. dipole moment [D]:             0.018364
      Cartesian components [D]:         [ -0.002689,   0.005089,  -0.017439]
    <r_h> [Ang]:                        [ -1.572476,  -0.060528,   0.001782]
    <r_e> [Ang]:                        [ -1.571198,  -0.078907,   0.000205]
    |<r_e - r_h>| [Ang]:                  0.018491
    Hole size [Ang]:                      1.513930
      Cartesian components [Ang]:       [  1.011027,   1.035432,   0.444621]
    Electron size [Ang]:                  1.475608
      Cartesian components [Ang]:       [  0.873224,   0.850433,   0.831663]
    RMS electron-hole separation [Ang]:   2.094447
      Cartesian components [Ang]:       [  1.320242,   1.325038,   0.942308]
    Covariance(r_h, r_e) [Ang^2]:         0.041517
    Correlation coefficient:              0.018585
    Center-of-mass size [Ang]:            1.066822
      Cartesian components [Ang]:       [  0.675713,   0.677371,   0.471900]

  Decomposition into state-averaged NTOs
    H- 1 -> L+ 0:  0.6610 ( 87.4%)
    H- 0 -> L+ 2: -0.1482 (  4.4%)
                   omega =  92.2%
  ----------------------------------------------------------------------------


  Excited state 3 (singlet, A)                                     [converged]
  ----------------------------------------------------------------------------
  Term symbol:  4 (1) A                                     R^2 =  1.62136e-13

  Total energy:                                            -77.9831617437 a.u.
  Excitation energy:                                               9.155303 eV

  Osc. strength:                                                      0.025237
  Trans. dip. moment [a.u.]:           [  -0.015818,   -0.019889,    0.334467]
  <i|r^2|0> [a.u.]:                    [  -0.092356,    0.000475,   -0.008070]
  Two-photon absorption cross-section (SoS) [a.u.]:                   0.006788
  Two-photon absorption matrix (SoS) [a.u.]:
                                       |   -0.013863   -0.002503    0.024054 |
                                       |   -0.002503    0.009189    0.010620 |
                                       |    0.024054    0.010620   -0.001878 |
  Two-photon absorption cross-section [a.u.]:                         0.013324
  Two-photon absorption matrix [a.u.]:
                                       |   -0.013777   -0.002587    0.034696 |
                                       |   -0.002587    0.003394    0.018303 |
                                       |    0.034696    0.018303    0.002122 |

  Dip. moment [a.u.]:                  [   0.029831,    0.022947,    0.001996]
  Total dipole [Debye]:                                               0.095795
  <r^2> [a.u.]:                        [ 180.769970,   40.620580,   11.034587]
  Total <r^2> [a.u.]:                                               232.425138

  V1^2 = 0.9588, V2^2 = 0.0412

  Important amplitudes:
      occ i     occ j     vir a      vir b          v   
    -----------------------------------------------------
     8 (A) A             10 (A) A                -0.6886
     8 (A) A             24 (A) A                -0.0506
     8 (A) A             18 (A) A                 0.0311
     7 (A) A              9 (A) A                -0.0272
     4 (A) A              9 (A) A                -0.0237
     8 (A) A   8 (A) B    9 (A) A   12 (A) B      0.0220
     8 (A) A   8 (A) B   10 (A) A   17 (A) B     -0.0172
     8 (A) A             15 (A) A                -0.0171
     5 (A) A   8 (A) B   11 (A) A   10 (A) B     -0.0165
     7 (A) A   8 (A) B   13 (A) A   10 (A) B      0.0141
     4 (A) A   8 (A) B   12 (A) A   10 (A) B      0.0111
     6 (A) A   8 (A) A   10 (A) A   15 (A) A      0.0109
     7 (A) A   8 (A) B   22 (A) A   10 (A) B     -0.0108
     6 (A) A   8 (A) B   15 (A) A   10 (A) B     -0.0107
     4 (A) A   8 (A) A   10 (A) A   12 (A) A     -0.0106
     7 (A) A   8 (A) A   10 (A) A   22 (A) A      0.0098
     7 (A) A   8 (A) A   10 (A) A   13 (A) A     -0.0097
     5 (A) A   8 (A) B   21 (A) A   10 (A) B     -0.0094
     5 (A) A   8 (A) A   10 (A) A   11 (A) A      0.0093
     6 (A) A   8 (A) A   10 (A) A   18 (A) A      0.0088
     6 (A) A   8 (A) B   10 (A) A   10 (A) B      0.0086
     7 (A) A   8 (A) A   12 (A) A   16 (A) A      0.0081
     5 (A) A   8 (A) A   10 (A) A   21 (A) A      0.0079
     3 (A) A   4 (A) B   10 (A) A    9 (A) B      0.0079
     8 (A) A   8 (A) B    9 (A) A   23 (A) B     -0.0075
     4 (A) A   8 (A) B   19 (A) A   10 (A) B     -0.0075
     8 (A) A   8 (A) B   10 (A) A   28 (A) B      0.0073
     3 (A) A   8 (A) B   10 (A) A   10 (A) B     -0.0072
     5 (A) A   8 (A) B   10 (A) A   11 (A) B     -0.0071
     3 (A) A   8 (A) A   10 (A) A   24 (A) A      0.0071
     7 (A) A   8 (A) B   16 (A) A   12 (A) B     -0.0070
     3 (A) A   8 (A) B   10 (A) A   18 (A) B      0.0069
     8 (A) A   8 (A) B    9 (A) A   19 (A) B     -0.0068
     6 (A) A   8 (A) B   18 (A) A   10 (A) B     -0.0067
     3 (A) A   6 (A) B   10 (A) A   28 (A) B      0.0062
     7 (A) A   8 (A) B   12 (A) A   11 (A) B      0.0057
     6 (A) A             28 (A) A                -0.0057
     3 (A) A   5 (A) B   10 (A) A   25 (A) B      0.0056
     3 (A) A   8 (A) A   10 (A) A   18 (A) A      0.0056
     5 (A) A   8 (A) A   10 (A) A   16 (A) A     -0.0055
    -----------------------------------------------------

  Density matrix analysis:
  ------------------------
  NOs
    Occupation of frontier NOs:
       0.9829   0.9835
    Number of electrons: 16.000000
    Number of unpaired electrons: n_u =  2.28834, n_u,nl =  2.02511
    NO participation ratio (PR_NO):  2.699238
  
  
  Mulliken Population Analysis
  Atom      Charge (e)              h+              e-           Del q
  --------------------------------------------------------------------
   1 H       -0.158597        0.054046       -0.262971       -0.208925
   2 C        0.327902        0.536583       -0.109357        0.427227
   3 H       -0.167402        0.053462       -0.271800       -0.218337
   4 C        0.325423        0.536599       -0.108102        0.428496
   5 H       -0.160971        0.054318       -0.265500       -0.211182
   6 H       -0.166355        0.053499       -0.270778       -0.217279
  --------------------------------------------------------------------
  Sum:       -0.000000        1.288508       -1.288508        0.000000
  
  Multipole moment analysis of the density matrix
    Molecular charge:                      -0.000000
    Number of electrons:                   16.000000
      Center of electronic charge [Ang]: [ -1.559688,  -0.066361,   0.001912]
    Total nuclear charge:                  16.000000
      Center of nuclear charge [Ang]:    [ -1.558701,  -0.065602,   0.001978]
    Dipole moment [D]:                     0.095795
      Cartesian components [D]:          [  0.075823,   0.058326,   0.005074]
    RMS size of the density [Ang]:         1.277036
      Cartesian components [Ang]:        [  0.855085,   0.840553,   0.439456]
  
  Exciton analysis of the difference density matrix
    <r_h> [Ang]:                  [ -1.558469,  -0.065317,   0.001827]
    <r_e> [Ang]:                  [ -1.570880,  -0.074303,   0.001263]
    |<r_e - r_h>| [Ang]:            0.015333
    Hole size [Ang]:                1.411374
      Cartesian components [Ang]: [  0.835108,   0.820303,   0.788464]
    Electron size [Ang]:            2.077037
      Cartesian components [Ang]: [  1.373013,   1.378520,   0.727047]

  Transition density matrix analysis:
  -----------------------------------
  
  CT numbers (Mulliken)
    omega =     0.9259
    <Phe> =    -0.0109
  
  Exciton analysis of the transition density matrix
    Trans. dipole moment [D]:             0.426290
      Cartesian components [D]:         [ -0.020103,  -0.025276,   0.425065]
    <r_h> [Ang]:                        [ -1.556298,  -0.064528,   0.001819]
    <r_e> [Ang]:                        [ -1.574589,  -0.077096,   0.001067]
    |<r_e - r_h>| [Ang]:                  0.022205
    Hole size [Ang]:                      1.215000
      Cartesian components [Ang]:       [  0.639042,   0.624795,   0.823092]
    Electron size [Ang]:                  2.295346
      Cartesian components [Ang]:       [  1.515772,   1.524921,   0.803533]
    RMS electron-hole separation [Ang]:   2.587179
      Cartesian components [Ang]:       [  1.637478,   1.640974,   1.148636]
    Covariance(r_h, r_e) [Ang^2]:         0.025918
    Correlation coefficient:              0.009294
    Center-of-mass size [Ang]:            1.303522
      Cartesian components [Ang]:       [  0.826269,   0.827477,   0.575961]

  Decomposition into state-averaged NTOs
    H- 0 -> L+ 1: -0.6792 ( 92.3%)
                   omega =  92.6%
  ----------------------------------------------------------------------------


  Excited state 4 (singlet, A)                                     [converged]
  ----------------------------------------------------------------------------
  Term symbol:  5 (1) A                                     R^2 =  3.54784e-13

  Total energy:                                            -77.9582929229 a.u.
  Excitation energy:                                               9.832018 eV

  Osc. strength:                                                      0.000016
  Trans. dip. moment [a.u.]:           [   0.000782,   -0.001653,    0.007907]
  <i|r^2|0> [a.u.]:                    [   0.022891,    0.018014,   -0.036744]
  Two-photon absorption cross-section (SoS) [a.u.]:                 151.942474
  Two-photon absorption matrix (SoS) [a.u.]:
                                       |    0.289829    0.327170   -3.036041 |
                                       |    0.327170    0.365178   -3.056968 |
                                       |   -3.036041   -3.056968   -0.654968 |
  Two-photon absorption cross-section [a.u.]:                        93.992740
  Two-photon absorption matrix [a.u.]:
                                       |    0.226663    0.257124   -2.368518 |
                                       |    0.257124    0.288863   -2.423384 |
                                       |   -2.368518   -2.423384   -0.515563 |

  Dip. moment [a.u.]:                  [  -0.048092,   -0.050440,   -0.006123]
  Total dipole [Debye]:                                               0.177823
  <r^2> [a.u.]:                        [ 180.731355,   40.599244,   10.771426]
  Total <r^2> [a.u.]:                                               232.102025

  V1^2 = 0.9635, V2^2 = 0.0365

  Important amplitudes:
      occ i     occ j     vir a      vir b          v   
    -----------------------------------------------------
     8 (A) A             11 (A) A                -0.6697
     7 (A) A              9 (A) A                 0.1499
     8 (A) A             21 (A) A                -0.0781
     8 (A) A             16 (A) A                 0.0641
     8 (A) A   8 (A) B    9 (A) A   13 (A) B      0.0168
     5 (A) A   8 (A) B   11 (A) A   11 (A) B     -0.0155
     8 (A) A   8 (A) B   11 (A) A   17 (A) B     -0.0140
     7 (A) A             20 (A) A                 0.0137
     7 (A) A   8 (A) B   13 (A) A   11 (A) B      0.0127
     8 (A) A             12 (A) A                 0.0114
     6 (A) A              9 (A) A                -0.0112
     5 (A) A   8 (A) A   11 (A) A   21 (A) A      0.0110
     4 (A) A   8 (A) B   12 (A) A   11 (A) B      0.0110
     8 (A) A   8 (A) B    9 (A) A   22 (A) B     -0.0108
     7 (A) A   8 (A) A   11 (A) A   22 (A) A      0.0097
     6 (A) A   8 (A) B   15 (A) A   11 (A) B     -0.0090
     6 (A) A   8 (A) B   10 (A) A   11 (A) B      0.0089
     7 (A) A   8 (A) B   22 (A) A   11 (A) B     -0.0089
     3 (A) A   4 (A) B   11 (A) A    9 (A) B      0.0083
     3 (A) A   8 (A) B   11 (A) A   18 (A) B      0.0081
     6 (A) A   8 (A) A   11 (A) A   15 (A) A      0.0080
     7 (A) A   8 (A) A   13 (A) A   16 (A) A      0.0078
     7 (A) A   8 (A) A   11 (A) A   13 (A) A     -0.0077
     5 (A) A   8 (A) B   21 (A) A   11 (A) B     -0.0071
     4 (A) A   8 (A) B   19 (A) A   11 (A) B     -0.0069
     5 (A) A   8 (A) B    9 (A) A    9 (A) B     -0.0068
     6 (A) A   8 (A) A   11 (A) A   18 (A) A      0.0063
     4 (A) A   8 (A) A   11 (A) A   12 (A) A     -0.0063
     3 (A) A   6 (A) B   11 (A) A   28 (A) B      0.0061
     6 (A) A   8 (A) B   18 (A) A   11 (A) B     -0.0060
     8 (A) A             10 (A) A                -0.0059
     7 (A) A   8 (A) B   16 (A) A   13 (A) B     -0.0057
     3 (A) A   8 (A) A   11 (A) A   18 (A) A      0.0056
     5 (A) A   8 (A) B   10 (A) A   10 (A) B     -0.0056
     3 (A) A   8 (A) B   11 (A) A   30 (A) B      0.0055
     3 (A) A   5 (A) B   11 (A) A   25 (A) B      0.0054
     6 (A) A   8 (A) B   11 (A) A   10 (A) B      0.0054
     7 (A) A   8 (A) B   12 (A) A   10 (A) B      0.0054
     8 (A) A   8 (A) B   20 (A) A   22 (A) B     -0.0053
     3 (A) A   8 (A) A   11 (A) A   24 (A) A      0.0053
    -----------------------------------------------------

  Density matrix analysis:
  ------------------------
  NOs
    Occupation of frontier NOs:
       0.9408   1.0277
    Number of electrons: 16.000000
    Number of unpaired electrons: n_u =  2.31938, n_u,nl =  2.04913
    NO participation ratio (PR_NO):  2.914515
  
  
  Mulliken Population Analysis
  Atom      Charge (e)              h+              e-           Del q
  --------------------------------------------------------------------
   1 H       -0.153619        0.045469       -0.249416       -0.203947
   2 C        0.277958        0.496893       -0.119610        0.377283
   3 H       -0.122974        0.047166       -0.221075       -0.173910
   4 C        0.272411        0.497130       -0.121646        0.375484
   5 H       -0.141081        0.047459       -0.238751       -0.191292
   6 H       -0.132695        0.045479       -0.229099       -0.183619
  --------------------------------------------------------------------
  Sum:       -0.000000        1.179596       -1.179596       -0.000000
  
  Multipole moment analysis of the density matrix
    Molecular charge:                      -0.000000
    Number of electrons:                   16.000000
      Center of electronic charge [Ang]: [ -1.557111,  -0.063934,   0.002181]
    Total nuclear charge:                  16.000000
      Center of nuclear charge [Ang]:    [ -1.558701,  -0.065602,   0.001978]
    Dipole moment [D]:                     0.177823
      Cartesian components [D]:          [ -0.122237,  -0.128207,  -0.015564]
    RMS size of the density [Ang]:         1.278090
      Cartesian components [Ang]:        [  0.859376,   0.840519,   0.434182]
  
  Exciton analysis of the difference density matrix
    <r_h> [Ang]:                  [ -1.557184,  -0.064012,   0.001939]
    <r_e> [Ang]:                  [ -1.535784,  -0.040905,   0.004966]
    |<r_e - r_h>| [Ang]:            0.031640
    Hole size [Ang]:                1.396016
      Cartesian components [Ang]: [  0.818268,   0.808458,   0.791008]
    Electron size [Ang]:            2.126275
      Cartesian components [Ang]: [  1.437510,   1.411766,   0.679358]

  Transition density matrix analysis:
  -----------------------------------
  
  CT numbers (Mulliken)
    omega =     0.9297
    <Phe> =    -0.0133
  
  Exciton analysis of the transition density matrix
    Trans. dipole moment [D]:             0.010315
      Cartesian components [D]:         [  0.000994,  -0.002101,   0.010049]
    <r_h> [Ang]:                        [ -1.558303,  -0.065571,   0.001685]
    <r_e> [Ang]:                        [ -1.531835,  -0.035915,   0.005540]
    |<r_e - r_h>| [Ang]:                  0.039936
    Hole size [Ang]:                      1.229264
      Cartesian components [Ang]:       [  0.657875,   0.652050,   0.808160]
    Electron size [Ang]:                  2.264495
      Cartesian components [Ang]:       [  1.531192,   1.504118,   0.721815]
    RMS electron-hole separation [Ang]:   2.566238
      Cartesian components [Ang]:       [  1.658210,   1.631805,   1.083111]
    Covariance(r_h, r_e) [Ang^2]:         0.027522
    Correlation coefficient:              0.009887
    Center-of-mass size [Ang]:            1.293645
      Cartesian components [Ang]:       [  0.837517,   0.823585,   0.542025]

  Decomposition into state-averaged NTOs
    H- 0 -> L+ 2: -0.6649 ( 88.4%)
    H- 1 -> L+ 0: -0.1479 (  4.4%)
                   omega =  93.0%
  ----------------------------------------------------------------------------


  Excited state 5 (singlet, A)                                     [converged]
  ----------------------------------------------------------------------------
  Term symbol:  6 (1) A                                     R^2 =  6.54097e-13

  Total energy:                                            -77.9452242105 a.u.
  Excitation energy:                                              10.187636 eV

  Osc. strength:                                                      0.000001
  Trans. dip. moment [a.u.]:           [  -0.000095,   -0.000022,   -0.001947]
  <i|r^2|0> [a.u.]:                    [  -0.090167,    0.103625,   -0.014072]
  Two-photon absorption cross-section (SoS) [a.u.]:                 164.188460
  Two-photon absorption matrix (SoS) [a.u.]:
                                       |   -0.306468   -0.042139    3.229893 |
                                       |   -0.042139    0.375177   -3.157493 |
                                       |    3.229893   -3.157493   -0.070318 |
[...]
    16   -1.508410931156e-03
    17   -1.739095821241e-03
    18   -4.021416565556e-04
    19   -3.383335962574e-03
    20    1.131413858903e-02
    21    9.362402207455e-01
    22   -2.210335618418e-04
    23    1.397254677862e-02
    24    8.125360793426e-04
    25    7.058572648811e-02
    26   -5.284265345075e-02
    27   -1.401063788379e+00
    28    9.868928746566e-02
    29   -9.167634206911e-02
    30   -9.010439640853e-04
    31    3.896409117732e-01
    32   -3.594732186138e-01
    33   -3.413575873014e-03
    34    1.571653358915e-02
    35   -1.480561477679e-03
    36   -1.797925793983e-03
    37   -4.920861111006e-05
    38   -3.170847340909e-03
    39    9.400990660435e-03
    40    9.270418469313e-01
    41    2.382091309545e-04
    42   -1.385700864467e-02
    43   -8.240188202542e-04
    44    1.075024563986e-02
    45    9.508662497630e-01
    46    1.426928209326e-02
    47    4.224524277398e-04
    48    6.960119950318e-04
Sym=X
Ene= 0.233257
Spin=Alpha
Occup=0
     1    2.506024034245e-02
     2    1.243987506150e+00
     3   -1.448713318154e-02
     4   -3.952661926957e-03
     5   -9.157115210495e-04
     6    3.120361428451e-03
     7   -3.742318452751e-03
     8   -5.302970052502e-02
     9   -1.541850590110e-01
    10   -1.582499492127e-01
    11   -1.661430502758e-02
    12   -5.638812579885e-01
    13   -5.568641155801e-01
    14   -5.941145471864e-02
    15    5.483674263466e-04
    16   -8.972620754948e-05
    17   -6.142089292138e-05
    18   -4.053092744257e-04
    19   -4.102437187751e-04
    20   -2.513386433220e-02
    21   -1.161030072048e+00
    22   -2.465930084011e-03
    23   -1.359855291279e-02
    24   -9.198865539938e-04
    25   -1.887198679982e-03
    26    2.856470716037e-03
    27    1.748411281197e-02
    28   -1.526521067959e-01
    29   -1.603997504019e-01
    30   -1.686352321680e-02
    31   -5.460197874866e-01
    32   -5.582538851183e-01
    33   -5.945630103970e-02
    34   -9.927666443901e-05
    35    5.324250156842e-05
    36   -4.511879851855e-05
    37    8.305175274248e-04
    38    2.010656996448e-04
    39    2.453555672062e-02
    40    1.171195034396e+00
    41   -2.490088485292e-03
    42   -1.397016693595e-02
    43   -9.562860798624e-04
    44   -2.551567922205e-02
    45   -1.209738053269e+00
    46   -1.402012704284e-02
    47   -3.779133820522e-03
    48   -8.919636609457e-04
Sym=X
Ene= 0.239500
Spin=Alpha
Occup=0
     1    1.604690111311e-02
     2    1.064741319302e+00
     3   -1.684469167057e-02
     4   -9.055794257161e-03
     5   -1.349081546854e-03
     6    8.683301013337e-02
     7   -8.001171385759e-02
     8   -1.603749531282e+00
     9   -5.306341868815e-02
    10    6.003101419969e-02
    11    8.354557546768e-04
    12   -2.112080147898e-01
    13    2.301425201055e-01
    14    2.737744154185e-03
    15    2.268269171846e-02
    16   -2.648110950909e-03
    17   -2.962140755849e-03
    18    3.219667524671e-04
    19   -1.296948511323e-02
    20    1.669713373192e-02
    21    1.118460703838e+00
    22    8.551003976905e-03
    23    1.768419085404e-02
    24    1.439991536615e-03
    25   -8.633594738826e-02
    26    7.899838005255e-02
    27    1.596403349083e+00
    28   -5.383894689271e-02
    29    5.993523546004e-02
    30    1.270260049979e-03
    31   -2.096720989098e-01
    32    2.355700514724e-01
    33    5.139302624982e-03
    34   -2.254500994399e-02
    35    2.571278150059e-03
    36    3.012177525138e-03
    37   -6.793693303887e-04
    38    1.276581596411e-02
    39   -1.698164959475e-02
    40   -1.122232477451e+00
    41    8.616711333867e-03
    42    1.779516036489e-02
    43    1.485668860374e-03
    44   -1.559798967972e-02
    45   -1.051136101845e+00
    46   -1.643322578761e-02
    47   -9.309623056307e-03
    48   -1.316310341340e-03
Sym=X
Ene= 0.303045
Spin=Alpha
Occup=0
     1   -2.164486621538e-02
     2    1.700363499219e+00
     3   -2.288914569407e-02
     4    1.022993465417e-04
     5   -1.084903446950e-03
     6   -2.675476442494e-04
     7    3.120058063040e-04
     8   -7.683269536343e-03
     9   -1.338247491407e-01
    10   -1.393441308781e-01
    11   -1.456216005174e-02
    12   -1.145321401129e+00
    13   -1.191308164825e+00
    14   -1.248674455348e-01
    15    1.091961377083e-05
    16   -1.691661372505e-03
    17    1.815686096957e-03
    18   -3.269937843392e-02
    19   -1.834324804435e-03
    20    1.923321719382e-02
    21   -1.686473509824e+00
    22    1.420872852594e-03
    23   -2.284407619333e-02
    24   -1.274742714461e-03
    25    1.457433813770e-04
    26    3.110932930516e-04
    27   -1.381966513159e-02
    28    1.350043327467e-01
    29    1.401980698268e-01
    30    1.479003497402e-02
    31    1.135330419008e+00
    32    1.195599749990e+00
    33    1.250609818143e-01
    34    1.097952508286e-04
    35   -1.604022610165e-03
    36    1.871411946482e-03
    37   -3.226987737791e-02
    38   -1.829911406777e-03
    39    1.868050773403e-02
    40   -1.688916930950e+00
    41   -1.631525740761e-03
    42    2.275133128029e-02
    43    1.292351807680e-03
    44   -1.972476931905e-02
    45    1.699274588218e+00
    46    2.302142764371e-02
    47   -2.448049777187e-04
    48    1.067708952595e-03
Sym=X
Ene= 0.461180
Spin=Alpha
Occup=0
     1   -1.140522642935e-01
     2   -7.241370731151e-01
     3   -1.536868885507e-02
     4   -1.075409743474e-02
     5   -1.354998521356e-03
     6    6.073013873574e-02
     7    1.713612031289e-02
     8   -3.540980917286e+00
     9    1.031329421641e-01
    10   -9.958114623085e-02
    11   -9.262216779254e-04
    12    2.420430713793e+00
    13   -2.280746368232e+00
    14   -2.034464273142e-02
    15    5.334813784886e-02
    16   -3.358167178384e-03
    17   -4.675860055776e-03
    18   -4.356062992374e-04
    19    1.719165957606e-02
    20   -1.252434249245e-01
    21   -6.887016506069e-01
    22    8.504073105993e-03
    23    1.632448112722e-02
    24    1.371853139294e-03
    25   -6.106867092362e-02
    26   -1.525790749765e-02
    27    3.544893159889e+00
    28    1.069989664409e-01
    29   -1.021010022463e-01
    30   -1.179731708728e-03
    31    2.409146647039e+00
    32   -2.276734768172e+00
    33   -2.193670422642e-02
    34   -5.189168270047e-02
    35    3.197961792757e-03
    36    4.450896158194e-03
    37    4.767330035731e-04
    38   -1.900606461914e-02
    39    1.152733422479e-01
    40    7.058530049503e-01
    41    8.313618190154e-03
    42    1.603862218410e-02
    43    1.348231004798e-03
    44    1.072817156673e-01
    45    7.194154598847e-01
    46   -1.498590995188e-02
    47   -1.014915687221e-02
    48   -1.325827178502e-03
Sym=X
Ene= 0.577991
Spin=Alpha
Occup=0
     1    2.495868911618e-01
     2    4.171421142614e-02
     3   -1.772191629469e-02
     4    2.515131046197e-02
     5    6.438421508359e-04
     6   -3.625439352499e-03
     7   -1.534811486926e-01
     8   -4.911457211072e-01
     9    2.981724773241e-01
    10   -2.887241234036e-01
    11   -3.062725022261e-03
    12   -7.046778579894e-01
    13    6.803566504141e-01
    14    7.005924463503e-03
    15   -6.273645038826e-03
    16    3.919231304736e-03
    17    3.880504058144e-03
    18   -5.370323285945e-03
    19    6.116736613610e-02
    20    2.602159726391e-01
    21    1.570009821318e-02
    22   -2.651587687053e-02
    23    1.595894182228e-02
    24   -3.166462050317e-04
    25   -5.699990404747e-03
    26   -1.549079009206e-01
    27   -3.928579690691e-01
    28   -2.953172184172e-01
    29    2.844762643196e-01
    30    2.908443739050e-03
    31    7.722827475827e-01
    32   -7.456832069924e-01
    33   -7.993138757478e-03
    34   -6.351435826238e-03
    35    3.929995792103e-03
    36    3.878509457248e-03
    37   -5.145739666653e-03
    38    6.106197536723e-02
    39    2.559464718870e-01
    40    5.048687337866e-02
    41    2.755674762462e-02
    42   -1.649099043405e-02
    43    3.101038061499e-04
    44    2.493439556225e-01
    45    6.408495147061e-02
    46    1.850572478736e-02
    47   -2.610553287920e-02
    48   -6.935085527979e-04
Sym=X
Ene= 0.615294
Spin=Alpha
Occup=0
     1   -5.209132139742e-01
     2    1.802395221004e-01
     3   -6.129060840247e-02
     4    3.745014897772e-02
     5   -7.134779215419e-04
     6   -9.124951297650e-04
     7   -1.702417467848e-03
     8   -2.604420605479e-02
     9   -4.274099525846e-02
    10   -3.882900507868e-02
    11   -4.363136366936e-03
    12    3.277320306497e-01
    13    2.691315810210e-01
    14    3.128113167057e-02
    15    2.194928042255e-03
    16   -7.559522243364e-03
    17    8.163597537637e-03
    18   -1.471392145690e-01
    19   -5.505538874164e-03
    20    5.050683976157e-01
    21   -2.032680183958e-01
    22    4.224256303662e-02
    23   -5.800336148637e-02
    24   -1.423156983191e-03
    25    7.021796084378e-04
    26   -1.535651411457e-03
    27    4.274302094177e-02
    28   -4.177661769214e-02
    29   -3.977907964493e-02
    30   -4.319925846867e-03
    31    3.219511219024e-01
    32    2.775435121063e-01
    33    3.199746704574e-02
    34   -2.672332481232e-03
    35    7.559324003864e-03
    36   -8.454426859168e-03
    37    1.495547685682e-01
    38    6.363209587126e-03
    39   -5.114862564318e-01
    40    2.092494279536e-01
    41    4.127562733879e-02
    42   -5.814452998906e-02
    43   -1.537729406286e-03
    44    5.271400858861e-01
    45   -2.001978330367e-01
    46   -6.182225205760e-02
    47    3.718905794147e-02
    48   -6.689103601402e-04
Sym=X
Ene= 0.689929
Spin=Alpha
Occup=0
     1    3.362464143180e-04
     2   -1.086766990125e-04
     3    1.145565245711e-03
     4    1.326266135541e-03
     5   -2.198180180513e-02
     6    2.478129318350e-05
     7    4.525004223292e-04
     8   -2.420412144618e-04
     9    3.156554595841e-02
    10    3.990836074704e-02
    11   -6.712188951341e-01
    12   -2.893414178893e-02
    13   -3.635707646891e-02
    14    6.139453599743e-01
    15   -1.395442460102e-03
    16    8.289172229712e-02
    17   -7.799535553164e-02
    18   -8.603085962998e-03
    19   -1.163965335462e-03
    20    3.803949680073e-04
    21   -3.207012595310e-04
    22    9.339939808476e-04
    23    1.111161618636e-03
    24   -2.081302241281e-02
    25    2.040912015246e-05
    26    4.927780415655e-04
    27   -3.232875467837e-04
    28    3.195631128207e-02
    29    3.994864150718e-02
    30   -6.710405943702e-01
    31   -2.936083086756e-02
    32   -3.645137143872e-02
    33    6.132045366221e-01
    34    1.100758201390e-03
    35   -8.288746031069e-02
    36    7.816966113039e-02
    37    8.534681573060e-03
    38    1.267825328005e-03
    39    3.146568618193e-04
    40   -4.357680862778e-04
    41    1.043397958900e-03
    42    1.398825885113e-03
    43   -2.120031848107e-02
    44    2.667282687942e-04
    45   -2.362732031076e-04
    46    8.891302235582e-04
    47    1.251431848979e-03
    48   -2.120602632780e-02
Sym=X
Ene= 0.709229
Spin=Alpha
Occup=0
     1   -4.702476876173e-01
     2    1.509388894877e-01
     3   -8.105482871687e-02
     4   -4.391116425756e-02
     5   -6.462457498210e-03
     6   -4.780740222281e-02
     7   -3.226507364746e-01
     8    5.183995869495e-01
     9    2.049771296846e-01
    10   -1.965041681828e-01
    11   -2.539633382223e-03
    12   -1.049217177727e-01
    13    9.521733224232e-02
    14    1.265117031320e-03
    15    1.934714111469e-01
    16   -2.041601988713e-02
    17   -2.385435911019e-02
    18    2.862609050454e-03
    19   -7.743036716867e-02
    20   -4.749277354667e-01
    21    1.553048598851e-01
    22    4.125318406490e-02
    23    8.139987401204e-02
    24    6.751322333877e-03
    25   -4.691379009584e-02
    26   -3.208710578834e-01
    27    4.487508323911e-01
    28   -2.074493248269e-01
    29    1.926107130649e-01
    30    1.094602852644e-03
    31    6.829834196463e-02
    32   -4.635301391389e-02
    33    1.216347942618e-03
    34    1.948633597296e-01
    35   -2.044984988345e-02
    36   -2.394296855716e-02
    37    2.353164890590e-03
    38   -7.464934058509e-02
    39   -4.744926633899e-01
    40    1.338301995242e-01
    41   -4.036471082258e-02
    42   -8.157949138753e-02
    43   -6.797209543296e-03
    44   -4.724541313101e-01
    45    1.498315476965e-01
    46    8.144972621908e-02
    47    4.411137771083e-02
    48    6.476203932860e-03
Sym=X
Ene= 0.783751
Spin=Alpha
Occup=0
     1   -5.212995156479e-01
     2    4.470652062794e-01
     3   -1.089974510112e-01
     4   -2.541059227087e-02
     5   -6.670564883993e-03
     6   -9.123517053733e-02
     7    2.118374710214e-01
     8    6.275623559437e-01
     9   -1.187000506323e-01
    10    1.038637649823e-01
    11   -3.841498618638e-04
    12   -2.937907392372e-01
    13    2.900001496506e-01
    14    5.169417615893e-03
    15    2.074327987446e-01
    16   -1.751945102001e-02
    17   -2.186864512853e-02
    18    2.895054056593e-03
    19   -8.476933227394e-03
    20   -5.405233488337e-01
    21    4.752012184870e-01
    22    2.005705094883e-02
    23    1.136562685426e-01
    24    7.657478187252e-03
    25    9.116459409227e-02
    26   -2.158553907839e-01
    27   -6.357180316246e-01
    28   -1.178513830478e-01
    29    1.096620098436e-01
    30    1.849667502917e-03
    31   -2.944628060171e-01
    32    2.695959634005e-01
    33    2.523005953753e-04
    34   -2.067053286780e-01
    35    1.724986283528e-02
    36    2.216411851934e-02
    37   -3.160605299333e-03
    38    7.024272722529e-03
    39    5.417848634643e-01
    40   -4.612937993928e-01
    41    1.999326658718e-02
    42    1.125281115822e-01
    43    7.690232996478e-03
    44    5.281625574533e-01
    45   -4.563722061926e-01
    46   -1.084130918545e-01
    47   -2.618085705328e-02
    48   -6.691358114496e-03
Sym=X
Ene= 0.807587
Spin=Alpha
Occup=0
     1    5.758337368628e-04
     2   -9.352137891986e-04
     3    1.857940268764e-03
     4    2.042220105046e-03
     5   -3.445675935135e-02
     6    1.129148022026e-04
     7   -2.605516156748e-04
     8   -1.212712503399e-04
     9    3.631244990985e-02
    10    4.482592384231e-02
    11   -7.628153984904e-01
    12   -5.286859304721e-02
    13   -6.672801684826e-02
    14    1.125250205785e+00
    15    6.397457754942e-04
    16   -6.438099210465e-02
    17    6.078257768233e-02
    18    6.735515505831e-03
    19    8.736329652690e-04
    20    5.876776298226e-04
    21   -4.312794328130e-04
    22    1.689849819362e-03
    23    1.873903184492e-03
    24   -3.453657904768e-02
    25   -1.086482432315e-04
    26    2.032389765984e-04
    27    1.555919677604e-04
    28   -3.593209048410e-02
    29   -4.594821660505e-02
    30    7.632441672866e-01
    31    5.369070407384e-02
    32    6.713131767671e-02
    33   -1.125151070248e+00
    34    1.313210522397e-03
    35   -6.441167218599e-02
    36    6.067406511642e-02
    37    6.587156581021e-03
    38    1.024392746969e-03
    39   -5.803680306630e-04
    40    4.304881691089e-04
    41   -1.561468221596e-03
    42   -2.234069580191e-03
    43    3.431311031878e-02
    44   -5.722960138131e-04
    45    9.663512885533e-04
    46   -1.342253447013e-03
    47   -2.003751247268e-03
    48    3.346660727237e-02
Sym=X
Ene= 0.863052
Spin=Alpha
Occup=0
     1    1.670982501455e-02
     2   -1.092484726769e+00
     3    1.485221038727e-01
     4    5.655374414651e-02
     5    1.040014829779e-02
     6    1.231977205654e-03
     7    3.228216306492e-03
     8    2.015653839327e-03
     9   -4.001449909729e-01
    10   -4.301137324655e-01
    11   -4.421686497899e-02
    12    9.369630886624e-01
    13    9.999108492172e-01
    14    1.031290520241e-01
    15   -4.023273831470e-03
    16    1.194778128761e-02
    17   -1.322325436908e-02
    18    2.355318072445e-01
    19    7.890327800488e-03
    20   -1.092800844293e-02
    21    1.102924232505e+00
    22    5.151691166455e-02
    23    1.503780044180e-01
    24    1.132958284032e-02
    25   -6.868566493961e-04
    26    7.561249343663e-03
    27   -1.032906815068e-02
    28   -4.055410520226e-01
    29   -4.356279757719e-01
    30   -4.541356534184e-02
    31    9.453845021641e-01
    32    1.013426146668e+00
    33    1.057243717362e-01
    34    1.581904466811e-03
    35   -1.188406268149e-02
    36    1.362586558585e-02
    37   -2.380536448258e-01
    38   -8.869606157463e-03
    39    1.219424475970e-02
    40   -1.107486595193e+00
    41    4.903205123833e-02
    42    1.523820027450e-01
    43    1.145862667585e-02
    44   -1.549544276138e-02
    45    1.098784558822e+00
    46    1.504513417471e-01
    47    5.547844206105e-02
    48    1.039540027070e-02
Sym=X
Ene= 0.935796
Spin=Alpha
Occup=0
     1   -1.123177225735e-01
     2    1.270051036787e+00
     3   -1.798833148619e-01
     4    7.189669173401e-03
     5   -8.122921151021e-03
     6   -1.141684185801e-03
     7   -1.776696400712e-02
     8    5.021020453824e-03
     9    4.629667479338e-01
    10    5.107222768960e-01
    11    5.218004936247e-02
    12   -1.444965379104e+00
    13   -1.572412535107e+00
    14   -1.616046214037e-01
    15    1.887737513299e-03
    16   -5.754886059062e-03
    17    7.132497075247e-03
    18   -1.224697658870e-01
    19    4.645741573436e-03
    20    1.164038673058e-01
    21   -1.313283206319e+00
    22    8.413697610407e-03
    23   -1.858229486288e-01
    24   -1.054897197077e-02
    25    6.895219243635e-04
    26   -9.471270810127e-03
    27    2.862645004284e-02
    28   -4.791132968997e-01
    29   -4.887137284177e-01
    30   -5.184481546494e-02
    31    1.485362923095e+00
    32    1.507692214561e+00
    33    1.602640882577e-01
    34   -2.449623544203e-03
    35   -5.832569614611e-03
    36    7.149852675255e-03
    37   -1.191839977486e-01
    38   -8.022343513483e-03
    39    1.171026841564e-01
    40   -1.270321988036e+00
    41   -1.429848257375e-02
    42    1.814143682139e-01
    43    1.020665026290e-02
    44   -1.131112277314e-01
    45    1.289028873818e+00
    46    1.804934090539e-01
    47   -4.736832524836e-03
    48    8.232389914261e-03
Sym=X
Ene= 0.970664
Spin=Alpha
Occup=0
     1   -6.994681400779e-02
     2    9.634120990000e-01
     3   -9.576498805193e-02
     4   -9.827165619319e-02
     5   -1.042977565277e-02
     6    2.399790892397e-02
     7    2.443439833916e-01
     8    5.463196129970e-01
     9    4.907581440687e-01
    10   -4.424891814421e-01
    11   -2.742060432275e-03
    12   -1.541209651891e+00
    13    1.371715361794e+00
    14    7.672620653124e-03
    15   -5.160089801326e-02
    16   -1.334750624015e-02
    17   -9.622805295074e-03
    18    9.544638095484e-03
    19   -3.020615786981e-01
    20   -6.581676808279e-02
    21    8.738153252692e-01
    22    9.538648576804e-02
    23    8.824994162636e-02
    24    9.698114300878e-03
    25   -2.392659561164e-02
    26   -2.344303511815e-01
    27   -5.628627155296e-01
    28    4.723975203798e-01
    29   -4.621281895953e-01
    30   -5.499917728427e-03
    31   -1.470340021466e+00
    32    1.452305177981e+00
    33    1.778735834481e-02
    34    5.062427373449e-02
    35    1.293377854799e-02
    36    9.968135550051e-03
    37   -1.532055062827e-02
    38    2.991858972060e-01
    39    6.650643802559e-02
    40   -9.326443140437e-01
    41    9.405615653961e-02
    42    9.604459539749e-02
    43    1.025322614235e-02
    44    7.259762386512e-02
    45   -8.967548293934e-01
    46   -8.756314138662e-02
    47   -9.769598936576e-02
    48   -9.882491807079e-03
[5D]

======= END OF MOLDEN-FORMATTED INPUT FILE =======


        *************************************************************
        *                                                           *
        *  Thank you very much for using Q-Chem.  Have a nice day.  *
        *                                                           *
        *************************************************************


