                  Welcome to Q-Chem
     A Quantum Leap Into The Future Of Chemistry


 Q-Chem 5.4 (devel), Q-Chem, Inc., Pleasanton, CA (2021)

 E. Epifanovsky,  A. T. B. Gilbert,  Xintian Feng,  Joonho Lee,  Yuezhi Mao,  
 N. Mardirossian,  P. Pokhilko,  A. White,  M. Wormit,  M. P. Coons,  
 A. L. Dempwolff,  Zhengting Gan,  D. Hait,  P. R. Horn,  L. D. Jacobson,  
 I. Kaliman,  J. Kussmann,  A. W. Lange,  Ka Un Lao,  D. S. Levine,  Jie Liu,  
 S. C. McKenzie,  A. F. Morrison,  K. Nanda,  F. Plasser,  D. R. Rehn,  
 M. L. Vidal,  Zhi-Qiang You,  Ying Zhu,  B. Alam,  B. Albrecht,  
 A. Aldossary,  E. Alguire,  J. H. Andersen,  D. Barton,  K. Begam,  A. Behn,  
 Y. A. Bernard,  E. J. Berquist,  H. Burton,  A. Carreras,  K. Carter-Fenk,  
 R. Chakraborty,  A. D. Chien,  K. D. Closser,  V. Cofer-Shabica,  
 S. Dasgupta,  Jia Deng,  M. de Wergifosse,  M. Diedenhofen,  Hainam Do,  
 S. Ehlert,  Po-Tung Fang,  S. Fatehi,  Qingguo Feng,  T. Friedhoff,  
 J. Gayvert,  Qinghui Ge,  G. Gidofalvi,  M. Goldey,  J. Gomes,  
 C. Gonzalez-Espinoza,  S. Gulania,  A. Gunina,  M. W. D. Hanson-Heine,  
 P. H. P. Harbach,  A. W. Hauser,  M. F. Herbst,  M. Hernandez Vera,  
 M. Hodecker,  Z. C. Holden,  S. Houck,  Xunkun Huang,  Kerwin Hui,  
 B. C. Huynh,  M. Ivanov,  Hyunjun Ji,  Hanjie Jiang,  B. Kaduk,  S. Kaehler,  
 K. Khistyaev,  Jaehoon Kim,  P. Klunzinger,  Z. Koczor-Benda,  
 Joong Hoon Koh,  D. Kosenkov,  L. Koulias,  T. Kowalczyk,  C. M. Krauter,  
 K. Kue,  A. Kunitsa,  T. Kus,  A. Landau,  K. V. Lawler,  D. Lefrancois,  
 S. Lehtola,  Rain Li,  Yi-Pei Li,  Jiashu Liang,  M. Liebenthal,  
 Hung-Hsuan Lin,  You-Sheng Lin,  Fenglai Liu,  Kuan-Yu Liu,  
 M. Loipersberger,  A. Luenser,  A. Manjanath,  P. Manohar,  E. Mansoor,  
 S. F. Manzer,  Shan-Ping Mao,  A. V. Marenich,  T. Markovich,  S. Mason,  
 S. A. Maurer,  P. F. McLaughlin,  M. F. S. J. Menger,  J.-M. Mewes,  
 S. A. Mewes,  P. Morgante,  J. W. Mullinax,  K. J. Oosterbaan,  G. Paran,  
 Alexander C. Paul,  Suranjan K. Paul,  F. Pavosevic,  Zheng Pei,  S. Prager,  
 E. I. Proynov,  E. Ramos,  B. Rana,  A. E. Rask,  A. Rettig,  R. M. Richard,  
 F. Rob,  E. Rossomme,  T. Scheele,  M. Scheurer,  M. Schneider,  
 N. Sergueev,  S. M. Sharada,  W. Skomorowski,  D. W. Small,  C. J. Stein,  
 Yu-Chuan Su,  E. J. Sundstrom,  Zhen Tao,  J. Thirman,  T. Tsuchimochi,  
 N. M. Tubman,  S. P. Veccham,  O. Vydrov,  J. Wenzel,  J. Witte,  A. Yamada,  
 Kun Yao,  S. Yeganeh,  S. R. Yost,  A. Zech,  Igor Ying Zhang,  Xing Zhang,  
 Yu Zhang,  D. Zuev,  A. Aspuru-Guzik,  A. T. Bell,  N. A. Besley,  
 K. B. Bravaya,  B. R. Brooks,  D. Casanova,  Jeng-Da Chai,  S. Coriani,  
 C. J. Cramer,  A. E. DePrince, III,  R. A. DiStasio Jr.,  A. Dreuw,  
 B. D. Dunietz,  T. R. Furlani,  W. A. Goddard III,  S. Grimme,  
 S. Hammes-Schiffer,  T. Head-Gordon,  W. J. Hehre,  Chao-Ping Hsu,  
 T.-C. Jagau,  Yousung Jung,  A. Klamt,  Jing Kong,  D. S. Lambrecht,  
 WanZhen Liang,  N. J. Mayhall,  C. W. McCurdy,  J. B. Neaton,  
 C. Ochsenfeld,  J. A. Parkhill,  R. Peverati,  V. A. Rassolov,  Yihan Shao,  
 L. V. Slipchenko,  T. Stauch,  R. P. Steele,  J. E. Subotnik,  
 A. J. W. Thom,  A. Tkatchenko,  D. G. Truhlar,  T. Van Voorhis,  
 T. A. Wesolowski,  K. B. Whaley,  H. L. Woodcock III,  P. M. Zimmerman,  
 S. Faraji,  P. M. W. Gill,  M. Head-Gordon,  J. M. Herbert,  A. I. Krylov

 Additional authors for Version 5.4.1: 
 S. Kotaru,  Shaozhi Li,  Xiangyuan Li,  F. Matz,  A. Molle,  Haisheng Ren,  
 Yingli Su,  Hung-Yi Tsai,  C. Utku,  Fang Wang

 Contributors to earlier versions of Q-Chem not listed above: 
 R. D. Adamson,  B. Austin,  R. Baer,  J. Baker,  G. J. O. Beran,  
 K. Brandhorst,  S. T. Brown,  E. F. C. Byrd,  A. K. Chakraborty,  
 G. K. L. Chan,  Chun-Min Chang,  Yunqing Chen,  C.-L. Cheng,  
 Siu Hung Chien,  D. M. Chipman,  D. L. Crittenden,  H. Dachsel,  
 R. J. Doerksen,  A. D. Dutoi,  R. G. Edgar,  J. Fosso-Tande,  
 L. Fusti-Molnar,  D. Ghosh,  A. Ghysels,  A. Golubeva-Zadorozhnaya,  
 J. Gonthier,  M. S. Gordon,  S. R. Gwaltney,  G. Hawkins,  J. E. Herr,  
 A. Heyden,  S. Hirata,  E. G. Hohenstein,  G. Kedziora,  F. J. Keil,  
 C. Kelley,  Jihan Kim,  R. A. King,  R. Z. Khaliullin,  P. P. Korambath,  
 W. Kurlancheek,  A. Laurent,  A. M. Lee,  M. S. Lee,  S. V. Levchenko,  
 Ching Yeh Lin,  D. Liotard,  E. Livshits,  R. C. Lochan,  I. Lotan,  
 L. A. Martinez-Martinez,  P. E. Maslen,  N. Nair,  D. P. O'Neill,  
 D. Neuhauser,  E. Neuscamman,  C. M. Oana,  R. Olivares-Amaya,  R. Olson,  
 T. M. Perrine,  B. Peters,  P. A. Pieniazek,  A. Prociuk,  Y. M. Rhee,  
 J. Ritchie,  M. A. Rohrdanz,  E. Rosta,  N. J. Russ,  H. F. Schaefer III,  
 M. W. Schmidt,  N. E. Schultz,  S. Sharma,  N. Shenvi,  C. D. Sherrill,  
 A. C. Simmonett,  A. Sodt,  T. Stein,  D. Stuck,  K. S. Thanthiriwatte,  
 V. Vanovschi,  L. Vogt,  Tao Wang,  A. Warshel,  M. A. Watson,  
 C. F. Williams,  Q. Wu,  X. Xu,  Jun Yang,  W. Zhang,  Yan Zhao

 Please cite Q-Chem as follows:
 Y. Shao et al., Mol. Phys. 113, 184-215 (2015)
 DOI: 10.1080/00268976.2014.952696

 Q-Chem 5.4.1 for Intel X86 EM64T Linux

 Parts of Q-Chem use Armadillo 9.800.1 (Horizon Scraper).
 http://arma.sourceforge.net/

 Q-Chem begins on Tue Mar 21 11:46:08 2023  

 Host: cpu186.baobab
0

     Scratch files written to /scratch/fum/qchem64263//
 Processing $rem in /home/share/wesolowski/qc5.aug2021.FDE/config/preferences:
 Processing $rem in /home/fum/.qchemrc:

 Checking the input file for inconsistencies... 	...done.

--------------------------------------------------------------
User input:
--------------------------------------------------------------
$comment
generated from CCJob.Templates
$end

$rem
sym_ignore = true
method = adc(2)
ee_states = 10
basis = cc-pVDZ
mem_static = 1024
mem_total = 40000
adc_davidson_maxiter = 900
adc_davidson_conv = 6
adc_print = 3
adc_prop_es = true
adc_prop_es2es = true
adc_prop_tpa = true
molden_format = True
state_analysis = true
print_orbitals = 15
gen_scfman = false
fde_export_density = true
fde_details = 3
$end

$molecule
0 1
H -0.02342295905641009 -0.2475170137434307 0.06500411333557976
C -1.0774966829201398 -0.5248138471855369 -0.002366832398895449
H -1.300757140828988 -1.5911382727515802 -0.07755999453939065
C -2.04434471692025 0.3934475105145604 0.006606119901112665
H -1.8210625480290517 1.464382640748072 0.08205866796059777
H -3.103011770556053 0.11587123155666663 -0.06092416396443646                     
$end
--------------------------------------------------------------
 ----------------------------------------------------------------
             Standard Nuclear Orientation (Angstroms)
    I     Atom           X                Y                Z
 ----------------------------------------------------------------
    1      H      -0.0234229591    -0.2475170137     0.0650041133
    2      C      -1.0774966829    -0.5248138472    -0.0023668324
    3      H      -1.3007571408    -1.5911382728    -0.0775599945
    4      C      -2.0443447169     0.3934475105     0.0066061199
    5      H      -1.8210625480     1.4643826407     0.0820586680
    6      H      -3.1030117706     0.1158712316    -0.0609241640
 ----------------------------------------------------------------
 Nuclear Repulsion Energy =          33.21000400 hartrees
 There are        8 alpha and        8 beta electrons
 Requested basis set is cc-pVDZ
 There are 24 shells and 48 basis functions
 Total memory of 40000 MB is distributed as follows: 
   MEM_STATIC is set to 1024 MB
   QALLOC/CCMAN JOB total memory use is  38976 MB
 Warning: actual memory use might exceed 40000 MB

 Total QAlloc Memory Limit  40000 MB
 Mega-Array Size      1001 MB
 MEM_STATIC part      1024 MB

                       Distance Matrix (Angstroms)
             H (  1)   C (  2)   H (  3)   C (  4)   H (  5)
   C (  2)  1.092018
   H (  3)  1.859362  1.092038
   C (  4)  2.120936  1.333446  2.120987
   H (  5)  2.482418  2.125305  3.103611  1.096563
   H (  6)  3.103510  2.125234  2.482394  1.096533  1.866098

 A cutoff of  1.0D-11 yielded    300 shell pairs
 There are      1220 function pairs (      1329 Cartesian)
 Smallest overlap matrix eigenvalue = 4.81E-03

 Scale SEOQF with 1.000000e-01/1.000000e-01/1.000000e+00

 Standard Electronic Orientation quadrupole field applied
 Nucleus-field energy     =     0.0000000022 hartrees
 Guess from superposition of atomic densities
 Warning:  Energy on first SCF cycle will be non-variational
 SAD guess density has 16.000000 electrons
 A restricted Hartree-Fock SCF calculation will be
 performed using Pulay DIIS extrapolation
 SCF converges when DIIS error is below 1.0E-08
 using 10 threads for integral computing
 -------------------------------------------------------
 OpenMP Integral computing Module                
 Release: version 1.0, May 2013, Q-Chem Inc. Pittsburgh 
 -------------------------------------------------------
 ---------------------------------------
  Cycle       Energy         DIIS Error
 ---------------------------------------
    1     -78.3977843073      9.93E-02
    2     -78.0175752361      7.13E-03
    3     -78.0380423370      1.83E-03
    4     -78.0395186928      5.65E-04
    5     -78.0396365299      5.87E-05
    6     -78.0396384040      1.05E-05
    7     -78.0396384706      3.91E-06
    8     -78.0396384764      1.06E-06
    9     -78.0396384770      1.50E-07
   10     -78.0396384770      4.72E-08
   11     -78.0396384770      8.06E-09 Convergence criterion met
 ---------------------------------------
 SCF time:  CPU 2.10 s  wall 2.72 s
 SCF   energy in the final basis set = -78.03963848
 Total energy in the final basis set = -78.03963848
Exporting Density Matrix to file 'Densmat_SCF.txt'.
Export successful
================================================================================
|                                                                              |
|                                 A D C  M A N                                 |
|                                                                              |
 ------------------------------------------------------------------------------ 
|                                                                              |
| Components:                                                                  |
|                                                                              |
| - libvmm - 1.3-trunk                                                         |
|   Authors:                                                                   |
|   Evgeny Epifanovsky, Ilya Kaliman                                           |
|                                                                              |
| - libtensor - 2.5-trunk                                                      |
|   Authors:                                                                   |
|   Evgeny Epifanovsky, Michael Wormit, Dmitry Zuev, Sam Manzer,               |
|   Ilya Kaliman                                                               |
|                                                                              |
| - libwfa - 1.1-trunk                                                         |
|   Authors:                                                                   |
|   Felix Plasser, Stefanie Mewes (Baeppler), Benjamin Thomitzni,              |
|   Michael Wormit, Feng Chen, Anna I. Krylov, Pavel Pokhilko                  |
|                                                                              |
| - libadc - 1.1-trunk                                                         |
|   Authors:                                                                   |
|   Michael Wormit, Adrian L. Dempwolff, Philipp H. P. Harbach,                |
|   Caroline Krauter, Dirk Rehn, Matthias Schneider, Jan Wenzel                |
|                                                                              |
| - adcman - 2.6-trunk                                                         |
|   Authors:                                                                   |
|   Michael Wormit, Adrian L. Dempwolff, Philipp H. P. Harbach,                |
|   Caroline Krauter, Daniel Lefrancois, Jan-Michael Mewes, Dirk Rehn,         |
|   Matthias Schneider, Jan Wenzel, Andreas Dreuw                              |
|                                                                              |
| Authors of earlier versions of ADCMAN:                                       |
| Andreas Dreuw, Jan Hendrik Starcke, Dirk Rehn, Michael Wormit                |
|                                                                              |
================================================================================

 Created directory /scratch/fum/qchem64263/plots
  Import QC data ...  CPU 0.00 s  wall 0.00 s

 Alpha MOs, Restricted
 -- Occupied --                  
-11.239 -11.237  -1.030  -0.786  -0.635  -0.582  -0.500  -0.374
  1 A     2 A     3 A     4 A     5 A     6 A     7 A     8 A                  
 -- Virtual --                   
  0.168   0.203   0.231   0.236   0.303   0.463   0.580   0.609
  9 A    10 A    11 A    12 A    13 A    14 A    15 A    16 A                  
  0.689   0.705   0.776   0.807   0.858   0.928   0.971   1.006
 17 A    18 A    19 A    20 A    21 A    22 A    23 A    24 A                  
  1.130   1.237   1.241   1.263   1.291   1.593   1.728   1.744
 25 A    26 A    27 A    28 A    29 A    30 A    31 A    32 A                  
  1.811   1.852   1.854   1.901   1.963   1.972   2.224   2.248
 33 A    34 A    35 A    36 A    37 A    38 A    39 A    40 A                  
  2.356   2.423   2.493   2.623   2.679   2.795   3.099   3.369
 41 A    42 A    43 A    44 A    45 A    46 A    47 A    48 A                  

 Beta MOs, Restricted
 -- Occupied --                  
-11.239 -11.237  -1.030  -0.786  -0.635  -0.582  -0.500  -0.374
  1 A     2 A     3 A     4 A     5 A     6 A     7 A     8 A                  
 -- Virtual --                   
  0.168   0.203   0.231   0.236   0.303   0.463   0.580   0.609
  9 A    10 A    11 A    12 A    13 A    14 A    15 A    16 A                  
  0.689   0.705   0.776   0.807   0.858   0.928   0.971   1.006
 17 A    18 A    19 A    20 A    21 A    22 A    23 A    24 A                  
  1.130   1.237   1.241   1.263   1.291   1.593   1.728   1.744
 25 A    26 A    27 A    28 A    29 A    30 A    31 A    32 A                  
  1.811   1.852   1.854   1.901   1.963   1.972   2.224   2.248
 33 A    34 A    35 A    36 A    37 A    38 A    39 A    40 A                  
  2.356   2.423   2.493   2.623   2.679   2.795   3.099   3.369
 41 A    42 A    43 A    44 A    45 A    46 A    47 A    48 A                  
  Import AO data ...  CPU 0.00 s  wall 0.01 s
  Using point group: C1
  Irreducible representations in point group: A
  Molecular orbitals: 
  Occupied MOs:
  Block   0:   1 (  A) A   2 (  A) A   3 (  A) A   4 (  A) A   5 (  A) A
                  -11.24      -11.24       -1.03     -0.7859      -0.635
               6 (  A) A   7 (  A) A   8 (  A) A
                 -0.5823     -0.4995     -0.3744
  Block   1:   1 (  A) B   2 (  A) B   3 (  A) B   4 (  A) B   5 (  A) B
                  -11.24      -11.24       -1.03     -0.7859      -0.635
               6 (  A) B   7 (  A) B   8 (  A) B
                 -0.5823     -0.4995     -0.3744
  Virtual MOs:
  Block   0:   9 (  A) A  10 (  A) A  11 (  A) A  12 (  A) A  13 (  A) A
                  0.1679      0.2026       0.231      0.2364       0.303
              14 (  A) A  15 (  A) A  16 (  A) A  17 (  A) A  18 (  A) A
                  0.4628      0.5798      0.6089      0.6887      0.7048
              19 (  A) A  20 (  A) A  21 (  A) A  22 (  A) A
                  0.7758      0.8074      0.8584       0.928
  Block   1:  23 (  A) A  24 (  A) A  25 (  A) A  26 (  A) A  27 (  A) A
                  0.9706       1.006        1.13       1.237       1.241
              28 (  A) A  29 (  A) A  30 (  A) A  31 (  A) A  32 (  A) A
                   1.263       1.291       1.593       1.728       1.744
              33 (  A) A  34 (  A) A  35 (  A) A  36 (  A) A
                   1.811       1.852       1.854       1.901
  Block   2:  37 (  A) A  38 (  A) A  39 (  A) A  40 (  A) A  41 (  A) A
                   1.963       1.972       2.224       2.248       2.356
              42 (  A) A  43 (  A) A  44 (  A) A  45 (  A) A  46 (  A) A
                   2.423       2.493       2.623       2.679       2.795
              47 (  A) A  48 (  A) A
                   3.099       3.369
  Block   3:   9 (  A) B  10 (  A) B  11 (  A) B  12 (  A) B  13 (  A) B
                  0.1679      0.2026       0.231      0.2364       0.303
              14 (  A) B  15 (  A) B  16 (  A) B  17 (  A) B  18 (  A) B
                  0.4628      0.5798      0.6089      0.6887      0.7048
              19 (  A) B  20 (  A) B  21 (  A) B  22 (  A) B
                  0.7758      0.8074      0.8584       0.928
  Block   4:  23 (  A) B  24 (  A) B  25 (  A) B  26 (  A) B  27 (  A) B
                  0.9706       1.006        1.13       1.237       1.241
              28 (  A) B  29 (  A) B  30 (  A) B  31 (  A) B  32 (  A) B
                   1.263       1.291       1.593       1.728       1.744
              33 (  A) B  34 (  A) B  35 (  A) B  36 (  A) B
                   1.811       1.852       1.854       1.901
  Block   5:  37 (  A) B  38 (  A) B  39 (  A) B  40 (  A) B  41 (  A) B
                   1.963       1.972       2.224       2.248       2.356
              42 (  A) B  43 (  A) B  44 (  A) B  45 (  A) B  46 (  A) B
                   2.423       2.493       2.623       2.679       2.795
              47 (  A) B  48 (  A) B
                   3.099       3.369
  Import MO data ...  CPU 0.06 s  wall 0.03 s
  Import HF data ...  CPU 0.76 s  wall 0.24 s
  Import 2e integrals ...  CPU 2.11 s  wall 0.33 s

--------------------------------------------------------------------------------
                                   HF Summary                                   
--------------------------------------------------------------------------------
  Energy:                                                  -78.0396384770 a.u.
  Dip. moment [a.u.]:                  [   0.000758,   -0.000724,    0.000009]
  Total dipole [Debye]:                                               0.002664
  <r^2> [a.u.]:                        [ 175.804328,   35.298225,   11.680394]
  Total <r^2> [a.u.]:                                               222.782947
--------------------------------------------------------------------------------
  HF properties ...  CPU 0.08 s  wall 0.03 s
  MP(1) calculation ...  CPU 0.01 s  wall 0.01 s
  N^6 prerequesite intermediates ...  CPU 0.65 s  wall 0.11 s
  Difference density matrix of state mp2_gs printed to ASCII file 'State_mp2_gs_Difference.txt'
Exporting MP density matrix to file 'Densmat_MP.txt'.
Export successful
  Total density matrix of state mp2_gs printed to ASCII file 'State_mp2_gs_Total.txt'
Exporting MP density matrix to file 'Densmat_MP.txt'.
Export successful

--------------------------------------------------------------------------------
                                 MP(2) Summary                                  
--------------------------------------------------------------------------------
  MP energy contribution:                                   -0.2804885207 a.u.
  Total energy:                                            -78.3201269978 a.u.
  Dip. moment [a.u.]:                  [   0.000736,   -0.000703,    0.000009]
  Total dipole [Debye]:                                               0.002587
  <r^2> [a.u.]:                        [ 175.844432,   35.334035,   11.507973]
  Total <r^2> [a.u.]:                                               222.686439

  Density matrix analysis:
  ------------------------
  NOs
    Occupation of frontier NOs:
       0.0455   1.9380
    Number of electrons: 16.000000
    Number of unpaired electrons: n_u =  0.40725, n_u,nl =  0.04580
    NO participation ratio (PR_NO): 13.896564
  
  
  Mulliken Population Analysis
  Atom      Charge (e)              h+              e-           Del q
  --------------------------------------------------------------------
   1 H        0.054418        0.013945       -0.011293        0.002652
   2 C       -0.107171        0.094252       -0.099637       -0.005385
   3 H        0.054426        0.013944       -0.011293        0.002651
   4 C       -0.112704        0.094936       -0.099943       -0.005007
   5 H        0.055521        0.013869       -0.011325        0.002544
   6 H        0.055510        0.013870       -0.011325        0.002545
  --------------------------------------------------------------------
  Sum:       -0.000000        0.244816       -0.244816        0.000000
  
  Multipole moment analysis of the density matrix
    Molecular charge:                      -0.000000
    Number of electrons:                   16.000000
      Center of electronic charge [Ang]: [ -1.561231,  -0.065389,   0.002126]
    Total nuclear charge:                  16.000000
      Center of nuclear charge [Ang]:    [ -1.561206,  -0.065412,   0.002126]
    Dipole moment [D]:                     0.002587
      Cartesian components [D]:          [  0.001870,  -0.001787,   0.000022]
    RMS size of the density [Ang]:         1.206519
      Cartesian components [Ang]:        [  0.800093,   0.783666,   0.448782]
  
  Exciton analysis of the difference density matrix
    <r_h> [Ang]:                  [ -1.562166,  -0.064500,   0.002132]
    <r_e> [Ang]:                  [ -1.562118,  -0.064545,   0.002132]
    |<r_e - r_h>| [Ang]:            0.000066
    Hole size [Ang]:                1.401656
      Cartesian components [Ang]: [  0.853004,   0.840246,   0.728705]
    Electron size [Ang]:            1.361762
      Cartesian components [Ang]: [  0.879567,   0.864272,   0.577746]
--------------------------------------------------------------------------------
  MP(2) calculation ...  CPU 0.41 s  wall 0.24 s
  Start ADC(2)-s ...  CPU 0.02 s  wall 0.01 s
  ADC(2) intermediates ...  CPU 0.04 s  wall 0.01 s
  Starting Davidson for singlet states of irrep A ... 
--------------------------------------------------------------------------------
   It NVec Conv  Avg. Norm  Max. Norm  Conv. states           Remark
--------------------------------------------------------------------------------
        10    0  1.329e-01  4.687e-01  0.4117 n n n n n n n n Guess.
    1   20    0  2.312e-02  1.125e-01  0.3261 n n n n n n n n 
    2   30    0  5.847e-03  2.463e-02  0.3213 n n n n n n n n 
    3   40    0  1.756e-03  1.055e-02  0.3209 n n n n n n n n 
    4   50    0  5.119e-04  3.665e-03  0.3209 n n n n n n n n 
    5   20    0  2.616e-04  1.732e-03  0.3209 n n n n n n n n Subspace collapsed.
    6   30    0  1.131e-04  8.288e-04  0.3209 n n n n n n n n 
    7   40    0  8.783e-05  8.085e-04  0.3209 n n n n n n n n 
    8   50    0  3.786e-05  3.228e-04  0.3209 n n n n n n n n 
    9   20    2  1.979e-05  1.680e-04  0.3209 n y n y n n n n Subspace collapsed.
   10   30    4  1.613e-05  1.435e-04  0.3209 n y y y y n n n 
   11   40    5  9.857e-06  9.117e-05  0.3209 n y y y y y n n 
   12   50    6  3.374e-06  2.816e-05  0.3209 y y y y y y n n 
   13   20    7  2.482e-06  2.116e-05  0.3209 y y y y y y n y Subspace collapsed.
   14   30    8  1.613e-06  1.391e-05  0.3209 y y y y y y n y 
   15   40    8  1.009e-06  7.801e-06  0.3209 y y y y y y n y 
   16   50    8  4.350e-07  3.483e-06  0.3209 y y y y y y n y 
   17   20    8  2.255e-07  1.980e-06  0.3209 y y y y y y n y Subspace collapsed.
   18   30    9  2.049e-07  1.896e-06  0.3209 y y y y y y y y 
   19   40   10  1.061e-07  9.766e-07  0.3209 y y y y y y y y Converged.
--------------------------------------------------------------------------------
  Davidson Summary: 
 ------------------------------------------------------------
  State  0: excitation energy =   0.3209 a.u.   (converged)
  State  1: excitation energy =   0.3290 a.u.   (converged)
  State  2: excitation energy =   0.3359 a.u.   (converged)
  State  3: excitation energy =   0.3579 a.u.   (converged)
  State  4: excitation energy =   0.3733 a.u.   (converged)
  State  5: excitation energy =   0.3866 a.u.   (converged)
  State  6: excitation energy =   0.4202 a.u.   (converged)
  State  7: excitation energy =   0.4435 a.u.   (converged)
  State  8: excitation energy =   0.4537 a.u.   (converged)
  State  9: excitation energy =   0.4585 a.u.   (converged)
 ------------------------------------------------------------

  Singlet states of irrep A ...  CPU 139.69 s  wall 44.12 s
  TDMs ...  CPU 2.25 s  wall 0.84 s
  SDMs ...  CPU 5.37 s  wall 1.56 s
  Starting TPA DIIS iterations ... 
------------------------------------ 
   It     Res. Norm  Remark
------------------------------------
                       Guess.
    1     4.397e+00  
    2     5.834e+00  
    3     1.086e+00  
    4     2.633e-01  
    5     6.571e-02  
    6     2.778e-02  
    7     8.477e-03  
    8     1.551e-03  
    9     5.828e-04  
   10     9.776e-05  
   11     3.154e-05  
   12     4.883e-06  
   13     1.646e-06  
   14     4.801e-07  Converged.
   ... Converged in 14 steps (norm: 4.80123e-07)
------------------------------------
  Starting TPA DIIS iterations ... 
------------------------------------ 
   It     Res. Norm  Remark
------------------------------------
                       Guess.
    1     4.187e+00  
    2     5.545e+00  
    3     1.037e+00  
    4     2.614e-01  
    5     6.544e-02  
    6     2.777e-02  
    7     8.334e-03  
    8     1.571e-03  
    9     5.918e-04  
   10     9.730e-05  
   11     3.185e-05  
   12     4.852e-06  
   13     1.672e-06  
   14     4.756e-07  Converged.
   ... Converged in 14 steps (norm: 4.75555e-07)
------------------------------------
  Starting TPA DIIS iterations ... 
------------------------------------ 
   It     Res. Norm  Remark
------------------------------------
                       Guess.
    1     6.855e-01  
    2     4.794e-01  
    3     1.687e-01  
    4     6.349e-02  
    5     1.873e-02  
    6     6.690e-03  
    7     1.074e-03  
    8     4.585e-04  
    9     1.264e-04  
   10     3.063e-05  
   11     5.153e-06  
   12     1.826e-06  
   13     8.898e-07  Converged.
   ... Converged in 13 steps (norm: 8.89815e-07)
------------------------------------
  Starting TPA DIIS iterations ... 
------------------------------------ 
   It     Res. Norm  Remark
------------------------------------
                       Guess.
    1     4.593e+00  
    2     6.185e+00  
    3     1.142e+00  
    4     2.833e-01  
    5     7.138e-02  
    6     3.038e-02  
    7     9.259e-03  
    8     1.693e-03  
    9     6.393e-04  
   10     1.077e-04  
   11     3.497e-05  
   12     5.447e-06  
   13     1.845e-06  
   14     5.369e-07  Converged.
   ... Converged in 14 steps (norm: 5.36918e-07)
------------------------------------
  Starting TPA DIIS iterations ... 
------------------------------------ 
   It     Res. Norm  Remark
------------------------------------
                       Guess.
    1     4.373e+00  
    2     5.879e+00  
    3     1.090e+00  
    4     2.811e-01  
    5     7.110e-02  
    6     3.039e-02  
    7     9.104e-03  
    8     1.715e-03  
    9     6.494e-04  
   10     1.072e-04  
   11     3.530e-05  
   12     5.409e-06  
   13     1.876e-06  
   14     5.316e-07  Converged.
   ... Converged in 14 steps (norm: 5.31604e-07)
------------------------------------
  Starting TPA DIIS iterations ... 
------------------------------------ 
   It     Res. Norm  Remark
------------------------------------
                       Guess.
    1     6.938e-01  
    2     4.912e-01  
    3     1.753e-01  
    4     6.918e-02  
    5     1.971e-02  
    6     7.110e-03  
    7     1.166e-03  
    8     5.137e-04  
    9     1.440e-04  
   10     3.391e-05  
   11     5.614e-06  
   12     2.046e-06  
   13     1.035e-06  
   14     3.836e-07  Converged.
   ... Converged in 14 steps (norm: 3.83638e-07)
------------------------------------
  Starting TPA DIIS iterations ... 
------------------------------------ 
   It     Res. Norm  Remark
------------------------------------
                       Guess.
    1     4.773e+00  
    2     6.511e+00  
    3     1.193e+00  
    4     3.022e-01  
    5     7.674e-02  
    6     3.285e-02  
    7     9.998e-03  
    8     1.827e-03  
    9     6.929e-04  
   10     1.171e-04  
   11     3.826e-05  
   12     5.989e-06  
   13     2.038e-06  
   14     5.915e-07  Converged.
   ... Converged in 14 steps (norm: 5.91523e-07)
------------------------------------
  Starting TPA DIIS iterations ... 
------------------------------------ 
   It     Res. Norm  Remark
------------------------------------
                       Guess.
    1     4.544e+00  
    2     6.189e+00  
    3     1.138e+00  
    4     2.996e-01  
    5     7.644e-02  
    6     3.287e-02  
    7     9.831e-03  
    8     1.852e-03  
    9     7.041e-04  
   10     1.166e-04  
   11     3.861e-05  
   12     5.945e-06  
   13     2.073e-06  
   14     5.855e-07  Converged.
   ... Converged in 14 steps (norm: 5.85502e-07)
------------------------------------
  Starting TPA DIIS iterations ... 
------------------------------------ 
   It     Res. Norm  Remark
------------------------------------
                       Guess.
    1     7.011e-01  
    2     5.018e-01  
    3     1.813e-01  
    4     7.463e-02  
    5     2.059e-02  
    6     7.505e-03  
    7     1.255e-03  
    8     5.678e-04  
    9     1.612e-04  
   10     3.661e-05  
   11     6.044e-06  
   12     2.261e-06  
   13     1.182e-06  
   14     4.303e-07  Converged.
   ... Converged in 14 steps (norm: 4.30304e-07)
------------------------------------
  Starting TPA DIIS iterations ... 
------------------------------------ 
   It     Res. Norm  Remark
------------------------------------
                       Guess.
    1     5.423e+00  
    2     7.721e+00  
    3     1.377e+00  
    4     3.743e-01  
    5     9.726e-02  
    6     4.240e-02  
    7     1.283e-02  
    8     2.339e-03  
    9     9.003e-04  
   10     1.536e-04  
   11     5.124e-05  
   12     8.130e-06  
   13     2.816e-06  
   14     8.088e-07  Converged.
   ... Converged in 14 steps (norm: 8.08842e-07)
------------------------------------
  Starting TPA DIIS iterations ... 
------------------------------------ 
   It     Res. Norm  Remark
------------------------------------
                       Guess.
    1     5.161e+00  
    2     7.337e+00  
    3     1.313e+00  
    4     3.705e-01  
    5     9.690e-02  
    6     4.249e-02  
    7     1.262e-02  
    8     2.376e-03  
    9     9.156e-04  
   10     1.530e-04  
   11     5.164e-05  
   12     8.060e-06  
   13     2.867e-06  
   14     8.002e-07  Converged.
   ... Converged in 14 steps (norm: 8.00193e-07)
------------------------------------
  Starting TPA DIIS iterations ... 
------------------------------------ 
   It     Res. Norm  Remark
------------------------------------
                       Guess.
    1     7.252e-01  
    2     5.380e-01  
    3     2.026e-01  
    4     9.603e-02  
    5     2.377e-02  
    6     9.019e-03  
    7     1.606e-03  
    8     7.849e-04  
    9     2.293e-04  
   10     4.342e-05  
   11     7.669e-06  
   12     3.131e-06  
   13     1.827e-06  
   14     6.192e-07  Converged.
   ... Converged in 14 steps (norm: 6.19201e-07)
------------------------------------
  Starting TPA DIIS iterations ... 
------------------------------------ 
   It     Res. Norm  Remark
------------------------------------
                       Guess.
    1     5.973e+00  
    2     8.780e+00  
    3     1.531e+00  
    4     4.400e-01  
    5     1.159e-01  
    6     5.121e-02  
    7     1.541e-02  
    8     2.804e-03  
    9     1.091e-03  
   10     1.873e-04  
   11     6.343e-05  
   12     1.014e-05  
   13     3.564e-06  
   14     1.017e-06  
   15     3.305e-07  Converged.
   ... Converged in 15 steps (norm: 3.30533e-07)
------------------------------------
  Starting TPA DIIS iterations ... 
------------------------------------ 
   It     Res. Norm  Remark
------------------------------------
                       Guess.
    1     5.683e+00  
    2     8.342e+00  
    3     1.460e+00  
    4     4.349e-01  
    5     1.155e-01  
    6     5.135e-02  
    7     1.517e-02  
    8     2.852e-03  
    9     1.110e-03  
   10     1.866e-04  
   11     6.385e-05  
   12     1.004e-05  
   13     3.630e-06  
   14     1.006e-06  
   15     3.293e-07  Converged.
   ... Converged in 15 steps (norm: 3.29283e-07)
------------------------------------
  Starting TPA DIIS iterations ... 
------------------------------------ 
   It     Res. Norm  Remark
------------------------------------
                       Guess.
    1     7.432e-01  
    2     5.667e-01  
    3     2.200e-01  
    4     1.160e-01  
    5     2.649e-02  
    6     1.040e-02  
    7     1.943e-03  
    8     9.836e-04  
    9     2.898e-04  
   10     4.622e-05  
   11     9.151e-06  
   12     3.966e-06  
   13     2.506e-06  
   14     7.999e-07  Converged.
   ... Converged in 14 steps (norm: 7.99853e-07)
------------------------------------
  Starting TPA DIIS iterations ... 
------------------------------------ 
   It     Res. Norm  Remark
------------------------------------
                       Guess.
    1     6.524e+00  
    2     9.869e+00  
    3     1.685e+00  
    4     5.097e-01  
    5     1.357e-01  
    6     6.065e-02  
    7     1.815e-02  
    8     3.295e-03  
    9     1.295e-03  
   10     2.234e-04  
   11     7.658e-05  
   12     1.232e-05  
   13     4.383e-06  
   14     1.250e-06  
   15     4.090e-07  Converged.
   ... Converged in 15 steps (norm: 4.09042e-07)
------------------------------------
  Starting TPA DIIS iterations ... 
------------------------------------ 
   It     Res. Norm  Remark
------------------------------------
                       Guess.
    1     6.206e+00  
    2     9.377e+00  
    3     1.606e+00  
    4     5.031e-01  
    5     1.352e-01  
    6     6.086e-02  
    7     1.787e-02  
    8     3.356e-03  
    9     1.319e-03  
   10     2.225e-04  
   11     7.701e-05  
   12     1.218e-05  
   13     4.465e-06  
   14     1.237e-06  
   15     4.071e-07  Converged.
   ... Converged in 15 steps (norm: 4.07056e-07)
------------------------------------
  Starting TPA DIIS iterations ... 
------------------------------------ 
   It     Res. Norm  Remark
------------------------------------
                       Guess.
    1     7.594e-01  
    2     5.938e-01  
    3     2.368e-01  
    4     1.376e-01  
    5     2.929e-02  
    6     1.187e-02  
    7     2.316e-03  
    8     1.182e-03  
    9     3.501e-04  
   10     4.774e-05  
   11     1.076e-05  
   12     4.874e-06  
   13     3.296e-06  
   14     9.964e-07  Converged.
   ... Converged in 14 steps (norm: 9.96447e-07)
------------------------------------
  Starting TPA DIIS iterations ... 
------------------------------------ 
   It     Res. Norm  Remark
------------------------------------
                       Guess.
    1     8.345e+00  
    2     1.366e+01  
    3     2.185e+00  
    4     7.631e-01  
    5     2.076e-01  
    6     9.571e-02  
    7     2.814e-02  
    8     5.079e-03  
    9     2.050e-03  
   10     3.566e-04  
   11     1.248e-04  
   12     2.042e-05  
   13     7.404e-06  
   14     2.198e-06  
   15     7.058e-07  Converged.
   ... Converged in 15 steps (norm: 7.05751e-07)
------------------------------------
  Starting TPA DIIS iterations ... 
------------------------------------ 
   It     Res. Norm  Remark
------------------------------------
                       Guess.
    1     7.933e+00  
    2     1.298e+01  
    3     2.081e+00  
    4     7.504e-01  
    5     2.070e-01  
    6     9.623e-02  
    7     2.771e-02  
    8     5.188e-03  
    9     2.089e-03  
   10     3.552e-04  
   11     1.252e-04  
   12     2.015e-05  
   13     7.532e-06  
   14     2.176e-06  
   15     7.002e-07  Converged.
   ... Converged in 15 steps (norm: 7.00206e-07)
------------------------------------
  Starting TPA DIIS iterations ... 
------------------------------------ 
   It     Res. Norm  Remark
------------------------------------
                       Guess.
    1     8.039e-01  
    2     6.749e-01  
    3     2.896e-01  
    4     2.157e-01  
    5     3.916e-02  
    6     1.722e-02  
    7     3.777e-03  
    8     1.725e-03  
    9     5.355e-04  
   10     5.557e-05  
   11     1.696e-05  
   12     8.185e-06  
   13     6.505e-06  
   14     1.727e-06  
   15     6.058e-07  Converged.
   ... Converged in 15 steps (norm: 6.05809e-07)
------------------------------------
  Starting TPA DIIS iterations ... 
------------------------------------ 
   It     Res. Norm  Remark
------------------------------------
                       Guess.
    1     1.014e+01  
    2     1.767e+01  
    3     2.668e+00  
    4     1.041e+00  
    5     2.873e-01  
    6     1.355e-01  
    7     3.920e-02  
    8     7.045e-03  
    9     2.901e-03  
   10     5.059e-04  
   11     1.764e-04  
   12     2.966e-05  
   13     1.063e-05  
   14     3.405e-06  
   15     1.092e-06  
   16     2.445e-07  Converged.
   ... Converged in 16 steps (norm: 2.44461e-07)
------------------------------------
  Starting TPA DIIS iterations ... 
------------------------------------ 
   It     Res. Norm  Remark
------------------------------------
                       Guess.
    1     9.641e+00  
    2     1.678e+01  
    3     2.539e+00  
    4     1.021e+00  
    5     2.865e-01  
    6     1.364e-01  
    7     3.862e-02  
    8     7.211e-03  
    9     2.957e-03  
   10     5.036e-04  
   11     1.768e-04  
   12     2.924e-05  
   13     1.080e-05  
   14     3.360e-06  
   15     1.086e-06  
   16     2.521e-07  Converged.
   ... Converged in 16 steps (norm: 2.52125e-07)
------------------------------------
  Starting TPA DIIS iterations ... 
------------------------------------ 
   It     Res. Norm  Remark
------------------------------------
                       Guess.
    1     8.385e-01  
    2     7.458e-01  
    3     3.381e-01  
    4     2.959e-01  
    5     4.969e-02  
    6     2.291e-02  
    7     5.482e-03  
    8     2.025e-03  
    9     6.992e-04  
   10     7.273e-05  
   11     2.429e-05  
   12     1.164e-05  
   13     1.023e-05  
   14     2.526e-06  
   15     8.186e-07  Converged.
   ... Converged in 15 steps (norm: 8.18621e-07)
------------------------------------
  Starting TPA DIIS iterations ... 
------------------------------------ 
   It     Res. Norm  Remark
------------------------------------
                       Guess.
    1     1.114e+01  
    2     1.997e+01  
    3     2.929e+00  
    4     1.203e+00  
    5     3.343e-01  
    6     1.592e-01  
    7     4.573e-02  
    8     8.201e-03  
    9     3.408e-03  
   10     5.942e-04  
   11     2.057e-04  
   12     3.534e-05  
   13     1.253e-05  
   14     4.171e-06  
   15     1.391e-06  
   16     3.087e-07  Converged.
   ... Converged in 16 steps (norm: 3.08705e-07)
------------------------------------
  Starting TPA DIIS iterations ... 
------------------------------------ 
   It     Res. Norm  Remark
------------------------------------
                       Guess.
    1     1.058e+01  
    2     1.897e+01  
    3     2.787e+00  
    4     1.178e+00  
    5     3.334e-01  
    6     1.604e-01  
    7     4.505e-02  
    8     8.401e-03  
    9     3.474e-03  
   10     5.915e-04  
   11     2.062e-04  
   12     3.482e-05  
   13     1.273e-05  
   14     4.105e-06  
   15     1.387e-06  
   16     3.167e-07  Converged.
   ... Converged in 16 steps (norm: 3.16743e-07)
------------------------------------
  Starting TPA DIIS iterations ... 
------------------------------------ 
   It     Res. Norm  Remark
------------------------------------
                       Guess.
    1     8.548e-01  
    2     7.821e-01  
    3     3.636e-01  
    4     3.383e-01  
    5     5.574e-02  
    6     2.607e-02  
    7     6.496e-03  
    8     2.114e-03  
    9     7.840e-04  
   10     8.453e-05  
   11     2.873e-05  
   12     1.359e-05  
   13     1.244e-05  
   14     2.980e-06  
   15     9.230e-07  Converged.
   ... Converged in 15 steps (norm: 9.23044e-07)
------------------------------------
  Starting TPA DIIS iterations ... 
------------------------------------ 
   It     Res. Norm  Remark
------------------------------------
                       Guess.
    1     1.165e+01  
    2     2.120e+01  
    3     3.063e+00  
    4     1.290e+00  
    5     3.595e-01  
    6     1.721e-01  
    7     4.923e-02  
    8     8.821e-03  
    9     3.681e-03  
   10     6.416e-04  
   11     2.212e-04  
   12     3.847e-05  
   13     1.358e-05  
   14     4.596e-06  
   15     1.579e-06  
   16     3.453e-07  Converged.
   ... Converged in 16 steps (norm: 3.45299e-07)
------------------------------------
  Starting TPA DIIS iterations ... 
------------------------------------ 
   It     Res. Norm  Remark
------------------------------------
                       Guess.
    1     1.107e+01  
    2     2.014e+01  
    3     2.915e+00  
    4     1.262e+00  
    5     3.585e-01  
    6     1.734e-01  
    7     4.850e-02  
    8     9.040e-03  
    9     3.753e-03  
   10     6.386e-04  
   11     2.218e-04  
   12     3.789e-05  
   13     1.380e-05  
   14     4.517e-06  
   15     1.575e-06  
   16     3.521e-07  Converged.
   ... Converged in 16 steps (norm: 3.52061e-07)
------------------------------------
  Starting TPA DIIS iterations ... 
------------------------------------ 
   It     Res. Norm  Remark
------------------------------------
                       Guess.
    1     8.627e-01  
    2     8.003e-01  
    3     3.765e-01  
    4     3.594e-01  
    5     5.893e-02  
    6     2.769e-02  
    7     7.037e-03  
    8     2.147e-03  
    9     8.270e-04  
   10     9.099e-05  
   11     3.113e-05  
   12     1.462e-05  
   13     1.366e-05  
   14     3.216e-06  
   15     9.769e-07  Converged.
   ... Converged in 15 steps (norm: 9.76868e-07)
------------------------------------
  Two-photon absorbption ...  CPU 162.71 s  wall 43.11 s
  Transition density matrix of state singlet_A_1 printed to ASCII file 'State_singlet_A_1_Transition.txt'
  Transition density matrix of state singlet_A_2 printed to ASCII file 'State_singlet_A_2_Transition.txt'
  Transition density matrix of state singlet_A_3 printed to ASCII file 'State_singlet_A_3_Transition.txt'
  Transition density matrix of state singlet_A_4 printed to ASCII file 'State_singlet_A_4_Transition.txt'
  Transition density matrix of state singlet_A_5 printed to ASCII file 'State_singlet_A_5_Transition.txt'
  Transition density matrix of state singlet_A_6 printed to ASCII file 'State_singlet_A_6_Transition.txt'
  Transition density matrix of state singlet_A_7 printed to ASCII file 'State_singlet_A_7_Transition.txt'
  Transition density matrix of state singlet_A_8 printed to ASCII file 'State_singlet_A_8_Transition.txt'
  Transition density matrix of state singlet_A_9 printed to ASCII file 'State_singlet_A_9_Transition.txt'
  Transition density matrix of state singlet_A_10 printed to ASCII file 'State_singlet_A_10_Transition.txt'
  Transition properties ...  CPU 0.33 s  wall 0.54 s
  Difference density matrix of state singlet_A_1 printed to ASCII file 'State_singlet_A_1_Difference.txt'
  Total density matrix of state singlet_A_1 printed to ASCII file 'State_singlet_A_1_Total.txt'
  Difference density matrix of state singlet_A_2 printed to ASCII file 'State_singlet_A_2_Difference.txt'
  Total density matrix of state singlet_A_2 printed to ASCII file 'State_singlet_A_2_Total.txt'
  Difference density matrix of state singlet_A_3 printed to ASCII file 'State_singlet_A_3_Difference.txt'
  Total density matrix of state singlet_A_3 printed to ASCII file 'State_singlet_A_3_Total.txt'
  Difference density matrix of state singlet_A_4 printed to ASCII file 'State_singlet_A_4_Difference.txt'
  Total density matrix of state singlet_A_4 printed to ASCII file 'State_singlet_A_4_Total.txt'
  Difference density matrix of state singlet_A_5 printed to ASCII file 'State_singlet_A_5_Difference.txt'
  Total density matrix of state singlet_A_5 printed to ASCII file 'State_singlet_A_5_Total.txt'
  Difference density matrix of state singlet_A_6 printed to ASCII file 'State_singlet_A_6_Difference.txt'
  Total density matrix of state singlet_A_6 printed to ASCII file 'State_singlet_A_6_Total.txt'
  Difference density matrix of state singlet_A_7 printed to ASCII file 'State_singlet_A_7_Difference.txt'
  Total density matrix of state singlet_A_7 printed to ASCII file 'State_singlet_A_7_Total.txt'
  Difference density matrix of state singlet_A_8 printed to ASCII file 'State_singlet_A_8_Difference.txt'
  Total density matrix of state singlet_A_8 printed to ASCII file 'State_singlet_A_8_Total.txt'
  Difference density matrix of state singlet_A_9 printed to ASCII file 'State_singlet_A_9_Difference.txt'
  Total density matrix of state singlet_A_9 printed to ASCII file 'State_singlet_A_9_Total.txt'
  Difference density matrix of state singlet_A_10 printed to ASCII file 'State_singlet_A_10_Difference.txt'
  Total density matrix of state singlet_A_10 printed to ASCII file 'State_singlet_A_10_Total.txt'
  Properties ...  CPU 0.63 s  wall 0.90 s
  ISR TDMS ...  CPU 29.94 s  wall 9.32 s
  ISR transition properties ...  CPU 0.72 s  wall 0.34 s
  Sum-over-states TPA ...  CPU 0.00 s  wall 0.00 s

--------------------------------------------------------------------------------
                   State-averaged natural transition orbitals
--------------------------------------------------------------------------------
--------------------------------------------------------------------------------
  SA-NTO decomposition ...  CPU 0.02 s  wall 0.04 s

--------------------------------------------------------------------------------
                             Excited State Summary
--------------------------------------------------------------------------------
--------------------------------------------------------------------------------

  Excited state 1 (singlet, A)                                     [converged]
  ----------------------------------------------------------------------------
  Term symbol:  2 (1) A                                     R^2 =  1.13632e-09

  Total energy:                                            -77.9992383431 a.u.
  Excitation energy:                                               8.731824 eV

  Osc. strength:                                                      0.446209
  Trans. dip. moment [a.u.]:           [   1.047181,   -0.994549,   -0.009709]
  <i|r^2|0> [a.u.]:                    [   6.180918,   -0.243663,    0.000359]
  Two-photon absorption cross-section (SoS) [a.u.]:                   0.001748
  Two-photon absorption matrix (SoS) [a.u.]:
                                       |    0.004319    0.011922    0.001433 |
                                       |    0.011922    0.005499    0.001570 |
                                       |    0.001433    0.001570   -0.009734 |
  Two-photon absorption cross-section [a.u.]:                         0.001241
  Two-photon absorption matrix [a.u.]:
                                       |   -0.001123    0.007075    0.000657 |
                                       |    0.007075   -0.000434    0.000784 |
                                       |    0.000657    0.000784   -0.011194 |

  Dip. moment [a.u.]:                  [   0.000712,   -0.000681,    0.000012]
  Total dipole [Debye]:                                               0.002503
  <r^2> [a.u.]:                        [ 176.590952,   36.020322,   11.918948]
  Total <r^2> [a.u.]:                                               224.530222

  V1^2 = 0.9713, V2^2 = 0.0287

  Important amplitudes:
      occ i     occ j     vir a      vir b          v   
    -----------------------------------------------------
     8 (A) A              9 (A) A                 0.6809
     6 (A) A             14 (A) A                -0.0617
     4 (A) A             10 (A) A                 0.0614
     7 (A) A             16 (A) A                -0.0575
     5 (A) A             13 (A) A                 0.0527
     6 (A) A             23 (A) A                -0.0485
     8 (A) A             20 (A) A                -0.0348
     6 (A) A             19 (A) A                 0.0302
     3 (A) A             12 (A) A                -0.0285
     5 (A) A             22 (A) A                 0.0218
     4 (A) A             24 (A) A                 0.0188
     3 (A) A             26 (A) A                -0.0187
     7 (A) A             11 (A) A                -0.0186
     8 (A) A   8 (A) B   17 (A) A   20 (A) B      0.0184
     8 (A) A   8 (A) B    9 (A) A   28 (A) B     -0.0168
     6 (A) A             26 (A) A                -0.0163
     7 (A) A             21 (A) A                -0.0152
     3 (A) A             14 (A) A                -0.0143
     6 (A) A             12 (A) A                 0.0136
     3 (A) A   4 (A) B    9 (A) A    9 (A) B     -0.0129
     3 (A) A             19 (A) A                 0.0121
     8 (A) A   8 (A) B   18 (A) A   19 (A) B     -0.0110
     7 (A) A             32 (A) A                -0.0097
     7 (A) A             36 (A) A                -0.0086
     3 (A) A             23 (A) A                -0.0082
     8 (A) A   8 (A) B   25 (A) A   29 (A) B     -0.0076
     6 (A) A             35 (A) A                 0.0071
     6 (A) A             40 (A) A                -0.0067
     3 (A) A   6 (A) B    9 (A) A   28 (A) B     -0.0065
     5 (A) A   8 (A) B   11 (A) A    9 (A) B      0.0062
     7 (A) A   8 (A) B   13 (A) A   20 (A) B     -0.0060
     5 (A) A   8 (A) B   11 (A) A   20 (A) B      0.0060
     5 (A) A   7 (A) B    9 (A) A    9 (A) B      0.0060
     6 (A) A   8 (A) A   19 (A) A   28 (A) A      0.0060
     5 (A) A             27 (A) A                 0.0060
     5 (A) A   8 (A) B   16 (A) A    9 (A) B     -0.0059
     3 (A) A   5 (A) B    9 (A) A   25 (A) B     -0.0058
     7 (A) A   8 (A) B   22 (A) A   20 (A) B     -0.0057
     3 (A) A             40 (A) A                -0.0056
     8 (A) A   8 (A) B   19 (A) A   30 (A) B     -0.0056
    -----------------------------------------------------

  Density matrix analysis:
  ------------------------
  NOs
    Occupation of frontier NOs:
       0.9491   1.0219
    Number of electrons: 16.000000
    Number of unpaired electrons: n_u =  2.31678, n_u,nl =  2.03329
    NO participation ratio (PR_NO):  2.874068
  
  
  Mulliken Population Analysis
  Atom      Charge (e)              h+              e-           Del q
  --------------------------------------------------------------------
   1 H        0.062428        0.020438       -0.012429        0.008009
   2 C       -0.123104        0.490652       -0.506584       -0.015933
   3 H        0.062437        0.020440       -0.012429        0.008011
   4 C       -0.128850        0.490679       -0.506825       -0.016146
   5 H        0.063551        0.020438       -0.012408        0.008030
   6 H        0.063539        0.020436       -0.012408        0.008029
  --------------------------------------------------------------------
  Sum:       -0.000000        1.063083       -1.063083        0.000000
  
  Multipole moment analysis of the density matrix
    Molecular charge:                      -0.000000
    Number of electrons:                   16.000000
      Center of electronic charge [Ang]: [ -1.561230,  -0.065390,   0.002125]
    Total nuclear charge:                  16.000000
      Center of nuclear charge [Ang]:    [ -1.561206,  -0.065412,   0.002126]
    Dipole moment [D]:                     0.002503
      Cartesian components [D]:          [  0.001809,  -0.001730,   0.000031]
    RMS size of the density [Ang]:         1.219820
      Cartesian components [Ang]:        [  0.808219,   0.791293,   0.456726]
  
  Exciton analysis of the difference density matrix
    <r_h> [Ang]:                  [ -1.561039,  -0.065571,   0.002116]
    <r_e> [Ang]:                  [ -1.561027,  -0.065582,   0.002114]
    |<r_e - r_h>| [Ang]:            0.000017
    Hole size [Ang]:                1.287296
      Cartesian components [Ang]: [  0.730184,   0.714790,   0.782968]
    Electron size [Ang]:            1.463845
      Cartesian components [Ang]: [  0.854312,   0.831684,   0.849291]

  Transition density matrix analysis:
  -----------------------------------
  
  CT numbers (Mulliken)
    omega =     0.9532
    <Phe> =    -0.1603
  
  Exciton analysis of the transition density matrix
    Trans. dipole moment [D]:             1.835438
      Cartesian components [D]:         [  1.330835,  -1.263946,  -0.012339]
    <r_h> [Ang]:                        [ -1.560882,  -0.065720,   0.002116]
    <r_e> [Ang]:                        [ -1.561054,  -0.065556,   0.002113]
    |<r_e - r_h>| [Ang]:                  0.000238
    Hole size [Ang]:                      1.214402
      Cartesian components [Ang]:       [  0.649921,   0.637058,   0.804071]
    Electron size [Ang]:                  1.486739
      Cartesian components [Ang]:       [  0.864777,   0.840557,   0.869494]
    RMS electron-hole separation [Ang]:   1.937163
      Cartesian components [Ang]:       [  1.106770,   1.076278,   1.170165]
    Covariance(r_h, r_e) [Ang^2]:        -0.033717
    Correlation coefficient:             -0.018675
    Center-of-mass size [Ang]:            0.951017
      Cartesian components [Ang]:       [  0.528094,   0.516330,   0.599127]

  Decomposition into state-averaged NTOs
    H- 0 -> L+ 0: -0.6697 ( 89.7%)
    H- 2 -> L+ 5:  0.0830 (  1.4%)
                   omega =  95.3%
  ----------------------------------------------------------------------------


  Excited state 2 (singlet, A)                                     [converged]
  ----------------------------------------------------------------------------
  Term symbol:  3 (1) A                                     R^2 =  1.39826e-11

  Total energy:                                            -77.9911318220 a.u.
  Excitation energy:                                               8.952414 eV

  Osc. strength:                                                      0.000000
  Trans. dip. moment [a.u.]:           [   0.000551,   -0.000507,    0.000000]
  <i|r^2|0> [a.u.]:                    [   0.069195,    0.086712,   -0.152776]
  Two-photon absorption cross-section (SoS) [a.u.]:                   4.564665
  Two-photon absorption matrix (SoS) [a.u.]:
                                       |    0.049920    0.057407   -0.514391 |
                                       |    0.057407    0.065543   -0.540953 |
                                       |   -0.514391   -0.540953   -0.115460 |
  Two-photon absorption cross-section [a.u.]:                         0.172560
  Two-photon absorption matrix [a.u.]:
                                       |   -0.008916   -0.011119    0.100067 |
                                       |   -0.011119   -0.013528    0.105118 |
                                       |    0.100067    0.105118    0.022441 |

  Dip. moment [a.u.]:                  [  -0.008991,    0.008527,    0.000119]
  Total dipole [Debye]:                                               0.031496
  <r^2> [a.u.]:                        [ 174.869804,   34.368890,   13.214922]
  Total <r^2> [a.u.]:                                               222.453616

  V1^2 = 0.9541, V2^2 = 0.0459

  Important amplitudes:
      occ i     occ j     vir a      vir b          v   
    -----------------------------------------------------
     7 (A) A              9 (A) A                 0.6685
     8 (A) A             11 (A) A                -0.1513
     7 (A) A             20 (A) A                -0.0756
     5 (A) A   8 (A) B    9 (A) A    9 (A) B      0.0315
     8 (A) A             16 (A) A                 0.0281
     8 (A) A             21 (A) A                -0.0178
     5 (A) A             28 (A) A                 0.0150
     4 (A) A   7 (A) B    9 (A) A   19 (A) B     -0.0136
     5 (A) A   7 (A) B    9 (A) A   16 (A) B      0.0134
     7 (A) A   8 (A) B   20 (A) A   17 (A) B      0.0106
     7 (A) A   8 (A) A    9 (A) A   28 (A) A      0.0098
     5 (A) A   8 (A) B    9 (A) A   20 (A) B     -0.0094
     4 (A) A   6 (A) B    9 (A) A   16 (A) B      0.0091
     5 (A) A   6 (A) A    9 (A) A   23 (A) A      0.0090
     5 (A) A   6 (A) A    9 (A) A   14 (A) A      0.0089
     5 (A) A   6 (A) B    9 (A) A   19 (A) B     -0.0086
     8 (A) A   7 (A) B    9 (A) A   28 (A) B     -0.0085
     6 (A) A   7 (A) B    9 (A) A   18 (A) B     -0.0085
     4 (A) A   5 (A) A    9 (A) A   10 (A) A      0.0085
     5 (A) A   6 (A) B    9 (A) A   23 (A) B      0.0080
     3 (A) A   7 (A) B    9 (A) A   18 (A) B      0.0080
     5 (A) A   7 (A) A    9 (A) A   16 (A) A      0.0078
     4 (A) A   8 (A) B    9 (A) A   25 (A) B      0.0076
     4 (A) A   7 (A) B   19 (A) A    9 (A) B     -0.0075
     7 (A) A   8 (A) B   17 (A) A   20 (A) B      0.0074
     5 (A) A   5 (A) B    9 (A) A   13 (A) B     -0.0073
     7 (A) A   8 (A) B   19 (A) A   18 (A) B     -0.0071
     4 (A) A   5 (A) B    9 (A) A   18 (A) B     -0.0069
     5 (A) A   8 (A) A    9 (A) A   20 (A) A     -0.0068
     7 (A) A   7 (A) B   20 (A) A   22 (A) B     -0.0066
     7 (A) A   8 (A) B   17 (A) A    9 (A) B     -0.0065
     5 (A) A   6 (A) B    9 (A) A   14 (A) B      0.0063
     5 (A) A   7 (A) B   11 (A) A   20 (A) B      0.0062
     4 (A) A   5 (A) B   10 (A) A    9 (A) B     -0.0061
     4 (A) A   7 (A) A    9 (A) A   19 (A) A     -0.0061
     5 (A) A             38 (A) A                 0.0060
     4 (A) A   6 (A) B   16 (A) A    9 (A) B      0.0058
     4 (A) A   8 (A) A    9 (A) A   25 (A) A      0.0057
     6 (A) A   7 (A) A   19 (A) A   28 (A) A      0.0056
     5 (A) A   7 (A) A   11 (A) A   20 (A) A      0.0054
    -----------------------------------------------------

  Density matrix analysis:
  ------------------------
  NOs
    Occupation of frontier NOs:
       0.9560   1.0553
    Number of electrons: 16.000000
    Number of unpaired electrons: n_u =  2.35842, n_u,nl =  2.06490
    NO participation ratio (PR_NO):  3.045341
  
  
  Mulliken Population Analysis
  Atom      Charge (e)              h+              e-           Del q
  --------------------------------------------------------------------
   1 H        0.153351        0.123725       -0.024792        0.098932
   2 C       -0.307873        0.270738       -0.471440       -0.200702
   3 H        0.153337        0.123705       -0.024794        0.098911
   4 C       -0.312419        0.274438       -0.474153       -0.199715
   5 H        0.156795        0.126084       -0.024809        0.101275
   6 H        0.156809        0.126101       -0.024803        0.101299
  --------------------------------------------------------------------
  Sum:       -0.000000        1.044791       -1.044791        0.000000
  
  Multipole moment analysis of the density matrix
    Molecular charge:                      -0.000000
    Number of electrons:                   16.000000
      Center of electronic charge [Ang]: [ -1.560909,  -0.065694,   0.002122]
    Total nuclear charge:                  16.000000
      Center of nuclear charge [Ang]:    [ -1.561206,  -0.065412,   0.002126]
    Dipole moment [D]:                     0.031496
      Cartesian components [D]:          [ -0.022852,   0.021673,   0.000302]
    RMS size of the density [Ang]:         1.205229
      Cartesian components [Ang]:        [  0.789998,   0.772788,   0.480916]
  
  Exciton analysis of the difference density matrix
    <r_h> [Ang]:                  [ -1.567214,  -0.059705,   0.002184]
    <r_e> [Ang]:                  [ -1.562287,  -0.064379,   0.002128]
    |<r_e - r_h>| [Ang]:            0.006792
    Hole size [Ang]:                1.496136
      Cartesian components [Ang]: [  1.013886,   1.001253,   0.456015]
    Electron size [Ang]:            1.480155
      Cartesian components [Ang]: [  0.884398,   0.862117,   0.815753]

  Transition density matrix analysis:
  -----------------------------------
  
  CT numbers (Mulliken)
    omega =     0.9214
    <Phe> =    -0.0114
  
  Exciton analysis of the transition density matrix
    Trans. dipole moment [D]:             0.000952
      Cartesian components [D]:         [  0.000701,  -0.000644,   0.000000]
    <r_h> [Ang]:                        [ -1.568144,  -0.058821,   0.002195]
    <r_e> [Ang]:                        [ -1.561570,  -0.065060,   0.002119]
    |<r_e - r_h>| [Ang]:                  0.009063
    Hole size [Ang]:                      1.527074
      Cartesian components [Ang]:       [  1.038690,   1.026023,   0.447612]
    Electron size [Ang]:                  1.475564
      Cartesian components [Ang]:       [  0.873339,   0.850284,   0.831615]
    RMS electron-hole separation [Ang]:   2.103549
      Cartesian components [Ang]:       [  1.341055,   1.317576,   0.943654]
    Covariance(r_h, r_e) [Ang^2]:         0.042205
    Correlation coefficient:              0.018730
    Center-of-mass size [Ang]:            1.071641
      Cartesian components [Ang]:       [  0.686442,   0.673692,   0.472599]

  Decomposition into state-averaged NTOs
    H- 1 -> L+ 0: -0.6608 ( 87.3%)
    H- 0 -> L+ 2:  0.1513 (  4.6%)
                   omega =  92.1%
  ----------------------------------------------------------------------------


  Excited state 3 (singlet, A)                                     [converged]
  ----------------------------------------------------------------------------
  Term symbol:  4 (1) A                                     R^2 =  1.41573e-11

  Total energy:                                            -77.9841810060 a.u.
  Excitation energy:                                               9.141555 eV

  Osc. strength:                                                      0.023576
  Trans. dip. moment [a.u.]:           [  -0.015400,   -0.019670,    0.323484]
  <i|r^2|0> [a.u.]:                    [  -0.090926,   -0.004728,   -0.002659]
  Two-photon absorption cross-section (SoS) [a.u.]:                   0.000967
  Two-photon absorption matrix (SoS) [a.u.]:
                                       |    0.000608   -0.000032    0.007988 |
                                       |   -0.000032   -0.000549   -0.007526 |
                                       |    0.007988   -0.007526   -0.000284 |
  Two-photon absorption cross-section [a.u.]:                         0.000230
  Two-photon absorption matrix [a.u.]:
                                       |    0.000558    0.000027    0.003873 |
                                       |    0.000027   -0.000681   -0.003644 |
                                       |    0.003873   -0.003644   -0.000153 |

  Dip. moment [a.u.]:                  [   0.028642,   -0.027219,   -0.000290]
  Total dipole [Debye]:                                               0.100434
  <r^2> [a.u.]:                        [ 181.533700,   41.003174,   11.057228]
  Total <r^2> [a.u.]:                                               233.594102

  V1^2 = 0.9580, V2^2 = 0.0420

  Important amplitudes:
      occ i     occ j     vir a      vir b          v   
    -----------------------------------------------------
     8 (A) A             10 (A) A                -0.6887
     8 (A) A             24 (A) A                -0.0508
     8 (A) A             18 (A) A                 0.0332
     4 (A) A              9 (A) A                -0.0247
     8 (A) A   8 (A) B    9 (A) A   12 (A) B      0.0223
     8 (A) A   8 (A) B   10 (A) A   17 (A) B     -0.0172
     5 (A) A   8 (A) B   11 (A) A   10 (A) B     -0.0169
     8 (A) A             15 (A) A                -0.0149
     7 (A) A   8 (A) B   13 (A) A   10 (A) B      0.0143
     4 (A) A   8 (A) B   12 (A) A   10 (A) B      0.0113
     6 (A) A   8 (A) A   10 (A) A   15 (A) A      0.0112
     7 (A) A   8 (A) B   22 (A) A   10 (A) B      0.0109
     6 (A) A   8 (A) B   15 (A) A   10 (A) B     -0.0109
     4 (A) A   8 (A) A   10 (A) A   12 (A) A     -0.0108
     7 (A) A   8 (A) A   10 (A) A   22 (A) A     -0.0099
     7 (A) A   8 (A) A   10 (A) A   13 (A) A     -0.0098
     5 (A) A   8 (A) A   10 (A) A   11 (A) A      0.0097
     5 (A) A   8 (A) B   21 (A) A   10 (A) B     -0.0094
     6 (A) A   8 (A) B   10 (A) A   10 (A) B      0.0090
     6 (A) A   8 (A) A   10 (A) A   18 (A) A      0.0086
     7 (A) A   8 (A) A   12 (A) A   16 (A) A     -0.0084
     3 (A) A   4 (A) B   10 (A) A    9 (A) B      0.0080
     5 (A) A   8 (A) A   10 (A) A   21 (A) A      0.0079
     4 (A) A   8 (A) B   19 (A) A   10 (A) B     -0.0075
     8 (A) A   8 (A) B    9 (A) A   23 (A) B     -0.0075
     8 (A) A   8 (A) B   10 (A) A   28 (A) B      0.0074
     5 (A) A   8 (A) B   10 (A) A   11 (A) B     -0.0072
     7 (A) A   8 (A) B   16 (A) A   12 (A) B      0.0072
     3 (A) A   8 (A) A   10 (A) A   24 (A) A      0.0072
     3 (A) A   8 (A) B   10 (A) A   10 (A) B     -0.0071
     8 (A) A   8 (A) B    9 (A) A   19 (A) B     -0.0070
     3 (A) A   8 (A) B   10 (A) A   18 (A) B      0.0068
     6 (A) A   8 (A) B   18 (A) A   10 (A) B     -0.0065
     3 (A) A   6 (A) B   10 (A) A   28 (A) B      0.0062
     7 (A) A   8 (A) B   12 (A) A   11 (A) B     -0.0059
     6 (A) A             28 (A) A                -0.0058
     5 (A) A   8 (A) A   10 (A) A   16 (A) A     -0.0057
     3 (A) A   5 (A) B   10 (A) A   25 (A) B      0.0056
     6 (A) A   8 (A) A   11 (A) A   16 (A) A      0.0055
     4 (A) A   8 (A) A   10 (A) A   23 (A) A      0.0055
    -----------------------------------------------------

  Density matrix analysis:
  ------------------------
  NOs
    Occupation of frontier NOs:
       0.9812   0.9847
    Number of electrons: 16.000000
    Number of unpaired electrons: n_u =  2.28864, n_u,nl =  2.02504
    NO participation ratio (PR_NO):  2.701210
  
  
  Mulliken Population Analysis
  Atom      Charge (e)              h+              e-           Del q
  --------------------------------------------------------------------
   1 H       -0.151611        0.054396       -0.260426       -0.206030
   2 C        0.311086        0.535757       -0.117500        0.418257
   3 H       -0.151596        0.054398       -0.260420       -0.206022
   4 C        0.309219        0.540418       -0.118495        0.421923
   5 H       -0.158542        0.054311       -0.268374       -0.214063
   6 H       -0.158555        0.054310       -0.268375       -0.214065
  --------------------------------------------------------------------
  Sum:       -0.000000        1.293589       -1.293589        0.000000
  
  Multipole moment analysis of the density matrix
    Molecular charge:                      -0.000000
    Number of electrons:                   16.000000
      Center of electronic charge [Ang]: [ -1.562154,  -0.064512,   0.002135]
    Total nuclear charge:                  16.000000
      Center of nuclear charge [Ang]:    [ -1.561206,  -0.065412,   0.002126]
    Dipole moment [D]:                     0.100434
      Cartesian components [D]:          [  0.072802,  -0.069184,  -0.000737]
    RMS size of the density [Ang]:         1.282116
      Cartesian components [Ang]:        [  0.858393,   0.844670,   0.439905]
  
  Exciton analysis of the difference density matrix
    <r_h> [Ang]:                  [ -1.562921,  -0.063784,   0.002137]
    <r_e> [Ang]:                  [ -1.574336,  -0.052937,   0.002259]
    |<r_e - r_h>| [Ang]:            0.015748
    Hole size [Ang]:                1.412895
      Cartesian components [Ang]: [  0.836548,   0.822682,   0.787181]
    Electron size [Ang]:            2.079170
      Cartesian components [Ang]: [  1.376800,   1.380323,   0.722550]

  Transition density matrix analysis:
  -----------------------------------
  
  CT numbers (Mulliken)
    omega =     0.9250
    <Phe> =    -0.0109
  
  Exciton analysis of the transition density matrix
    Trans. dipole moment [D]:             0.412331
      Cartesian components [D]:         [ -0.019571,  -0.024998,   0.411107]
    <r_h> [Ang]:                        [ -1.561126,  -0.065489,   0.002116]
    <r_e> [Ang]:                        [ -1.578697,  -0.048794,   0.002304]
    |<r_e - r_h>| [Ang]:                  0.024238
    Hole size [Ang]:                      1.212750
      Cartesian components [Ang]:       [  0.636287,   0.623746,   0.822705]
    Electron size [Ang]:                  2.301656
      Cartesian components [Ang]:       [  1.523218,   1.529428,   0.798925]
    RMS electron-hole separation [Ang]:   2.591630
      Cartesian components [Ang]:       [  1.643228,   1.644668,   1.145170]
    Covariance(r_h, r_e) [Ang^2]:         0.026214
    Correlation coefficient:              0.009391
    Center-of-mass size [Ang]:            1.305834
      Cartesian components [Ang]:       [  0.829189,   0.829422,   0.574203]

  Decomposition into state-averaged NTOs
    H- 0 -> L+ 1:  0.6794 ( 92.3%)
                   omega =  92.5%
  ----------------------------------------------------------------------------


  Excited state 4 (singlet, A)                                     [converged]
  ----------------------------------------------------------------------------
  Term symbol:  5 (1) A                                     R^2 =  1.21798e-11

  Total energy:                                            -77.9622547105 a.u.
  Excitation energy:                                               9.738200 eV

  Osc. strength:                                                      0.000000
  Trans. dip. moment [a.u.]:           [  -0.000166,    0.000156,   -0.000007]
  <i|r^2|0> [a.u.]:                    [   0.012786,    0.018240,   -0.031971]
  Two-photon absorption cross-section (SoS) [a.u.]:                 134.668877
  Two-photon absorption matrix (SoS) [a.u.]:
                                       |    0.270667    0.311759   -2.794284 |
                                       |    0.311759    0.356417   -2.937961 |
                                       |   -2.794284   -2.937961   -0.627101 |
  Two-photon absorption cross-section [a.u.]:                        80.032397
  Two-photon absorption matrix [a.u.]:
                                       |    0.209271    0.240365   -2.154015 |
                                       |    0.240365    0.274151   -2.264986 |
                                       |   -2.154015   -2.264986   -0.483435 |

  Dip. moment [a.u.]:                  [   0.011116,   -0.010503,   -0.000122]
  Total dipole [Debye]:                                               0.038873
  <r^2> [a.u.]:                        [ 181.538429,   41.009025,   10.786818]
  Total <r^2> [a.u.]:                                               233.334273

  V1^2 = 0.9633, V2^2 = 0.0367

  Important amplitudes:
      occ i     occ j     vir a      vir b          v   
    -----------------------------------------------------
     8 (A) A             11 (A) A                -0.6688
     7 (A) A              9 (A) A                -0.1535
     8 (A) A             21 (A) A                -0.0779
     8 (A) A             16 (A) A                 0.0674
     8 (A) A   8 (A) B    9 (A) A   13 (A) B     -0.0167
     5 (A) A   8 (A) B   11 (A) A   11 (A) B     -0.0157
     7 (A) A             20 (A) A                 0.0140
     8 (A) A   8 (A) B   11 (A) A   17 (A) B     -0.0137
     7 (A) A   8 (A) B   13 (A) A   11 (A) B      0.0127
     4 (A) A   8 (A) B   12 (A) A   11 (A) B      0.0111
     8 (A) A   8 (A) B    9 (A) A   22 (A) B     -0.0110
     5 (A) A   8 (A) A   11 (A) A   21 (A) A      0.0109
     7 (A) A   8 (A) A   11 (A) A   22 (A) A     -0.0095
     6 (A) A   8 (A) B   10 (A) A   11 (A) B      0.0091
     6 (A) A   8 (A) B   15 (A) A   11 (A) B     -0.0089
     7 (A) A   8 (A) B   22 (A) A   11 (A) B      0.0089
     3 (A) A   4 (A) B   11 (A) A    9 (A) B      0.0083
     3 (A) A   8 (A) B   11 (A) A   18 (A) B      0.0080
     6 (A) A   8 (A) A   11 (A) A   15 (A) A      0.0079
     7 (A) A   8 (A) A   13 (A) A   16 (A) A      0.0079
     7 (A) A   8 (A) A   11 (A) A   13 (A) A     -0.0075
     4 (A) A   8 (A) B   19 (A) A   11 (A) B     -0.0070
     5 (A) A   8 (A) B   21 (A) A   11 (A) B     -0.0069
     5 (A) A   8 (A) B    9 (A) A    9 (A) B     -0.0069
     4 (A) A   8 (A) A   11 (A) A   12 (A) A     -0.0062
     3 (A) A   6 (A) B   11 (A) A   28 (A) B      0.0060
     6 (A) A   8 (A) A   11 (A) A   18 (A) A      0.0059
     6 (A) A   8 (A) B   18 (A) A   11 (A) B     -0.0058
     7 (A) A   8 (A) B   16 (A) A   13 (A) B     -0.0057
     3 (A) A   8 (A) B   11 (A) A   30 (A) B      0.0056
     5 (A) A   8 (A) B   10 (A) A   10 (A) B     -0.0055
     7 (A) A   8 (A) B   12 (A) A   10 (A) B     -0.0055
     8 (A) A   8 (A) B   20 (A) A   22 (A) B      0.0055
     6 (A) A   8 (A) B   11 (A) A   10 (A) B      0.0055
     3 (A) A   5 (A) B   11 (A) A   25 (A) B      0.0054
     3 (A) A   8 (A) A   11 (A) A   18 (A) A      0.0054
     3 (A) A   8 (A) A   11 (A) A   24 (A) A      0.0053
     5 (A) A   8 (A) A   11 (A) A   16 (A) A     -0.0049
     6 (A) A   8 (A) A   10 (A) A   16 (A) A      0.0047
     8 (A) A   8 (A) B   11 (A) A   28 (A) B      0.0043
    -----------------------------------------------------

  Density matrix analysis:
  ------------------------
  NOs
    Occupation of frontier NOs:
       0.9386   1.0295
    Number of electrons: 16.000000
    Number of unpaired electrons: n_u =  2.32235, n_u,nl =  2.05107
    NO participation ratio (PR_NO):  2.932766
  
  
  Mulliken Population Analysis
  Atom      Charge (e)              h+              e-           Del q
  --------------------------------------------------------------------
   1 H       -0.124825        0.046001       -0.225244       -0.179243
   2 C        0.253768        0.494354       -0.133415        0.360939
   3 H       -0.125097        0.045990       -0.225513       -0.179523
   4 C        0.248375        0.496152       -0.135073        0.361079
   5 H       -0.126234        0.046019       -0.227773       -0.181754
   6 H       -0.125988        0.046031       -0.227529       -0.181498
  --------------------------------------------------------------------
  Sum:       -0.000000        1.174547       -1.174547        0.000000
  
  Multipole moment analysis of the density matrix
    Molecular charge:                      0.000000
    Number of electrons:                   16.000000
      Center of electronic charge [Ang]: [ -1.561574,  -0.065065,   0.002130]
    Total nuclear charge:                  16.000000
      Center of nuclear charge [Ang]:    [ -1.561206,  -0.065412,   0.002126]
    Dipole moment [D]:                     0.038873
      Cartesian components [D]:          [  0.028254,  -0.026697,  -0.000311]
    RMS size of the density [Ang]:         1.281021
      Cartesian components [Ang]:        [  0.859496,   0.844688,   0.434493]
  
  Exciton analysis of the difference density matrix
    <r_h> [Ang]:                  [ -1.561903,  -0.064752,   0.002127]
    <r_e> [Ang]:                  [ -1.566580,  -0.060336,   0.002186]
    |<r_e - r_h>| [Ang]:            0.006432
    Hole size [Ang]:                1.394926
      Cartesian components [Ang]: [  0.819572,   0.806322,   0.789914]
    Electron size [Ang]:            2.114316
      Cartesian components [Ang]: [  1.419365,   1.415523,   0.672332]

  Transition density matrix analysis:
  -----------------------------------
  
  CT numbers (Mulliken)
    omega =     0.9293
    <Phe> =    -0.0146
  
  Exciton analysis of the transition density matrix
    Trans. dipole moment [D]:             0.000290
      Cartesian components [D]:         [ -0.000211,   0.000199,  -0.000009]
    <r_h> [Ang]:                        [ -1.561252,  -0.065368,   0.002118]
    <r_e> [Ang]:                        [ -1.567867,  -0.059118,   0.002200]
    |<r_e - r_h>| [Ang]:                  0.009101
    Hole size [Ang]:                      1.229185
      Cartesian components [Ang]:       [  0.662002,   0.649554,   0.806677]
    Electron size [Ang]:                  2.247868
      Cartesian components [Ang]:       [  1.508857,   1.506063,   0.712768]
    RMS electron-hole separation [Ang]:   2.550875
      Cartesian components [Ang]:       [  1.638860,   1.631986,   1.075975]
    Covariance(r_h, r_e) [Ang^2]:         0.028465
    Correlation coefficient:              0.010302
    Center-of-mass size [Ang]:            1.286540
      Cartesian components [Ang]:       [  0.828248,   0.824159,   0.538473]

  Decomposition into state-averaged NTOs
    H- 0 -> L+ 2:  0.6641 ( 88.2%)
    H- 1 -> L+ 0:  0.1514 (  4.6%)
                   omega =  92.9%
  ----------------------------------------------------------------------------


  Excited state 5 (singlet, A)                                     [converged]
  ----------------------------------------------------------------------------
  Term symbol:  6 (1) A                                     R^2 =  6.81588e-11

  Total energy:                                            -77.9468089440 a.u.
  Excitation energy:                                              10.158501 eV

  Osc. strength:                                                      0.000005
  Trans. dip. moment [a.u.]:           [   0.000240,    0.000279,   -0.004274]
  <i|r^2|0> [a.u.]:                    [  -0.079874,    0.097085,   -0.015760]
  Two-photon absorption cross-section (SoS) [a.u.]:                 223.501243
  Two-photon absorption matrix (SoS) [a.u.]:
                                       |   -0.367980   -0.056038    3.823955 |
                                       |   -0.056038    0.437566   -3.625730 |
                                       |    3.823955   -3.625730   -0.071061 |
  Two-photon absorption cross-section [a.u.]:                       115.462618
  Two-photon absorption matrix [a.u.]:
                                       |   -0.265056   -0.040658    2.748479 |
                                       |   -0.040658    0.313897   -2.606021 |
                                       |    2.748479   -2.606021   -0.050950 |

  Dip. moment [a.u.]:                  [  -0.023154,    0.021946,    0.000215]
  Total dipole [Debye]:                                               0.081088
  <r^2> [a.u.]:                        [ 180.210171,   39.758000,   11.600413]
  Total <r^2> [a.u.]:                                               231.568583

  V1^2 = 0.9554, V2^2 = 0.0446

  Important amplitudes:
      occ i     occ j     vir a      vir b          v   
    -----------------------------------------------------
     8 (A) A             12 (A) A                 0.5697
     6 (A) A              9 (A) A                 0.3819
     8 (A) A             19 (A) A                -0.0525
     6 (A) A             20 (A) A                -0.0520
     8 (A) A             23 (A) A                -0.0293
     8 (A) A   8 (A) B    9 (A) A   10 (A) B     -0.0205
     8 (A) A             26 (A) A                 0.0185
     3 (A) A              9 (A) A                 0.0159
     4 (A) A   8 (A) B    9 (A) A    9 (A) B      0.0158
     5 (A) A   8 (A) B   11 (A) A   12 (A) B      0.0149
     8 (A) A   8 (A) B   12 (A) A   17 (A) B      0.0133
     7 (A) A   8 (A) B   13 (A) A   12 (A) B     -0.0130
     4 (A) A   8 (A) B   12 (A) A   12 (A) B     -0.0124
     5 (A) A   8 (A) A   11 (A) A   12 (A) A      0.0109
     6 (A) A   8 (A) B   15 (A) A   12 (A) B      0.0102
     7 (A) A   8 (A) B   22 (A) A   12 (A) B     -0.0094
     6 (A) A   8 (A) A   12 (A) A   15 (A) A     -0.0091
     6 (A) A   8 (A) B   10 (A) A   12 (A) B     -0.0087
[...]
    16   -1.421642162531e-03
    17   -1.730792522828e-03
    18    1.307407636895e-04
    19   -2.796437752706e-03
    20    1.102684598828e-02
    21    9.217483965792e-01
    22   -5.289892807306e-04
    23    1.369418579594e-02
    24    8.034924521292e-04
    25    7.111350950934e-02
    26   -5.321545954971e-02
    27   -1.390147558073e+00
    28    1.003946146582e-01
    29   -9.534643575368e-02
    30   -9.696260168891e-04
    31    3.874325678388e-01
    32   -3.679463925464e-01
    33   -3.741495045211e-03
    34    1.507856726258e-02
    35   -1.434179142148e-03
    36   -1.743391887616e-03
    37    1.414428796410e-04
    38   -3.013852147090e-03
    39    1.199182704862e-02
    40    9.337717756373e-01
    41    4.877190239258e-04
    42   -1.376038901460e-02
    43   -8.090129697347e-04
    44    1.199459315719e-02
    45    9.337587871143e-01
    46    1.377399075498e-02
    47    2.166439628130e-04
    48    6.726389123229e-04
Sym=X
Ene= 0.231047
Spin=Alpha
Occup=0
     1    2.996572729313e-02
     2    1.168387274369e+00
     3   -1.297489113848e-02
     4   -3.508297045682e-03
     5   -8.353649619242e-04
     6   -6.056688116059e-05
     7    6.379674246789e-05
     8    9.672744905803e-04
     9   -1.538008323851e-01
    10   -1.618509652753e-01
    11   -1.717816595690e-02
    12   -5.290325834719e-01
    13   -5.568496567721e-01
    14   -5.910326469217e-02
    15   -1.315546191947e-05
    16    8.127846142298e-05
    17   -8.413996166716e-05
    18    1.531479707888e-03
    19    8.543583017100e-05
    20   -2.999681454078e-02
    21   -1.169805562414e+00
    22   -2.854705642121e-03
    23   -1.314901911600e-02
    24   -9.327222648802e-04
    25    5.960981389230e-05
    26   -6.334231899530e-05
    27   -9.361641771422e-04
    28   -1.552856311018e-01
    29   -1.634161007821e-01
    30   -1.731578444105e-02
    31   -5.310284107704e-01
    32   -5.589511464296e-01
    33   -5.921417926138e-02
    34    1.181281742231e-05
    35   -6.786262242132e-05
    36    6.823790360293e-05
    37   -1.238427521458e-03
    38   -6.994834823375e-05
    39    2.979597746690e-02
    40    1.168362181887e+00
    41   -2.854553471154e-03
    42   -1.309036888877e-02
    43   -9.276533958906e-04
    44   -2.976174891796e-02
    45   -1.166982568376e+00
    46   -1.291754022112e-02
    47   -3.505490158500e-03
    48   -8.308317955222e-04
Sym=X
Ene= 0.236441
Spin=Alpha
Occup=0
     1    1.891495921547e-02
     2    1.082240143877e+00
     3   -1.610992859057e-02
     4   -9.262913992277e-03
     5   -1.333061292387e-03
     6    8.761742459788e-02
     7   -8.271143987046e-02
     8   -1.559726703036e+00
     9   -5.933854558464e-02
    10    5.614367866204e-02
    11    5.464092093565e-04
    12   -2.453040133523e-01
    13    2.322089606359e-01
    14    2.253871369781e-03
    15    2.156164515980e-02
    16   -2.534476959756e-03
    17   -2.911551877271e-03
    18    6.180567733166e-04
    19   -1.249927438478e-02
    20    1.888496212741e-02
    21    1.080596533391e+00
    22    8.430160700898e-03
    23    1.653323998301e-02
    24    1.404355614818e-03
    25   -8.662085202328e-02
    26    8.193255753377e-02
    27    1.530348691760e+00
    28   -5.863505245669e-02
    29    5.547766896378e-02
    30    5.542056702509e-04
    31   -2.394758697135e-01
    32    2.266976898726e-01
    33    2.257106173800e-03
    34   -2.100479933587e-02
    35    2.475365802599e-03
    36    2.844185300833e-03
    37   -6.102938906854e-04
    38    1.232381933570e-02
    39   -1.967793281599e-02
    40   -1.062086250978e+00
    41    8.361306751185e-03
    42    1.609977142437e-02
    43    1.375309614560e-03
    44   -1.970768007835e-02
    45   -1.063689571093e+00
    46   -1.567964556497e-02
    47   -9.172417604059e-03
    48   -1.305552637517e-03
Sym=X
Ene= 0.302962
Spin=Alpha
Occup=0
     1    2.154935973746e-02
     2   -1.665462785606e+00
     3    2.356554068740e-02
     4   -4.416920731836e-04
     5    1.106384575294e-03
     6    1.457156627455e-08
     7    2.995187431227e-06
     8   -2.166548265371e-05
     9    1.358337412507e-01
    10    1.428873336998e-01
    11    1.516298017714e-02
    12    1.127674085535e+00
    13    1.186139345756e+00
    14    1.258384334640e-01
    15   -3.206877510800e-05
    16    1.754701550691e-03
    17   -1.988451673516e-03
    18    3.431399711298e-02
    19    1.753461535556e-03
    20   -2.154973014810e-02
    21    1.665473065109e+00
    22   -1.643155259485e-03
    23    2.350085279694e-02
    24    1.340569283861e-03
    25   -1.747107827317e-06
    26    2.176215180453e-06
    27    6.218727412372e-05
    28   -1.354005724368e-01
    29   -1.424310300459e-01
    30   -1.509967972926e-02
    31   -1.122198697857e+00
    32   -1.180421272471e+00
    33   -1.251808122893e-01
    34   -3.356046596580e-05
    35    1.727821752063e-03
    36   -1.962251506427e-03
    37    3.384011940525e-02
    38    1.730495896438e-03
    39   -2.058671180964e-02
    40    1.650203135471e+00
    41    1.563126843001e-03
    42   -2.338727300217e-02
    43   -1.337125215718e-03
    44    2.058728195007e-02
    45   -1.650248193452e+00
    46   -2.344939571489e-02
    47    3.667277496918e-04
    48   -1.103602496400e-03
Sym=X
Ene= 0.462775
Spin=Alpha
Occup=0
     1   -1.143729918981e-01
     2   -7.011069732650e-01
     3   -1.502446307676e-02
     4   -1.029980086402e-02
     5   -1.344870875625e-03
     6    6.239741367336e-02
     7    1.680597168176e-02
     8   -3.635919502343e+00
     9    1.038460164923e-01
    10   -9.861810865933e-02
    11   -9.885260291231e-04
    12    2.435082941710e+00
    13   -2.312692603819e+00
    14   -2.260316525239e-02
    15    5.292829014069e-02
    16   -3.274545537736e-03
    17   -4.546159941779e-03
    18   -1.067245145741e-03
    19    1.990497153446e-02
    20   -1.143402014232e-01
    21   -7.011503012881e-01
    22    9.530207214682e-03
    23    1.551973873558e-02
    24    1.395814899600e-03
    25   -6.263157468251e-02
    26   -1.636104128909e-02
    27    3.646230517688e+00
    28    1.048483776558e-01
    29   -9.956602942791e-02
    30   -1.005462510269e-03
    31    2.431490027699e+00
    32   -2.309249172975e+00
    33   -2.260166896021e-02
    34   -5.300595234455e-02
    35    3.251965744424e-03
    36    4.526652742350e-03
    37    1.088173229254e-03
    38   -2.033844178845e-02
    39    1.144351682188e-01
    40    6.964878407781e-01
    41    9.546213799113e-03
    42    1.540722368289e-02
    43    1.387827107361e-03
    44    1.144717717176e-01
    45    6.964631750343e-01
    46   -1.491073494892e-02
    47   -1.030878677448e-02
    48   -1.338642207850e-03
Sym=X
Ene= 0.579808
Spin=Alpha
Occup=0
     1    2.380960198390e-01
     2    4.731535705441e-02
     3   -2.181986418081e-02
     4    2.671812951048e-02
     5    5.663771462026e-04
     6   -6.017624559736e-03
     7   -1.686786973125e-01
     8   -4.288447173833e-01
     9    3.058721135863e-01
    10   -2.904741841133e-01
    11   -2.840961786070e-03
    12   -7.435727955542e-01
    13    7.060944612780e-01
    14    6.953702421023e-03
    15   -1.855993389472e-03
    16    3.636546861063e-03
    17    3.271777362064e-03
    18   -3.048849488268e-03
    19    5.977117010302e-02
    20    2.380914490564e-01
    21    4.733079914265e-02
    22   -2.780828547277e-02
    23    2.041736795766e-02
    24   -1.020357237424e-04
    25   -6.493545420034e-03
    26   -1.693278726665e-01
    27   -4.055592310392e-01
    28   -3.052782881913e-01
    29    2.899002680387e-01
    30    2.833144201343e-03
    31    7.532042342280e-01
    32   -7.151944642766e-01
    33   -7.047250288675e-03
    34   -2.110889583632e-03
    35    3.660328933064e-03
    36    3.300064923917e-03
    37   -3.042554787210e-03
    38    5.981156880100e-02
    39    2.374050484504e-01
    40    4.848337116305e-02
    41    2.836424889650e-02
    42   -2.089905827164e-02
    43    9.871599075900e-05
    44    2.374848407446e-01
    45    4.842840269651e-02
    46    2.232106094955e-02
    47   -2.724144838253e-02
    48   -5.744922710426e-04
Sym=X
Ene= 0.608869
Spin=Alpha
Occup=0
     1   -5.179439406452e-01
     2    2.370126054808e-01
     3   -5.936035095158e-02
     4    3.696545417255e-02
     5   -6.167766956329e-04
     6    3.529468811164e-06
     7   -1.200866264625e-05
     8    2.126939925097e-04
     9   -3.674465559086e-02
    10   -3.865186963626e-02
    11   -4.095485333943e-03
    12    2.674918257415e-01
    13    2.815328166115e-01
    14    2.988479630000e-02
    15    1.211055539499e-04
    16   -7.562165009814e-03
    17    8.572107573059e-03
    18   -1.479175219166e-01
    19   -7.566836161145e-03
    20    5.180149460920e-01
    21   -2.370526652556e-01
    22    3.996304740205e-02
    23   -5.737463048128e-02
    24   -1.545938184441e-03
    25   -4.315318727879e-06
    26    1.711805110103e-05
    27   -1.723701966288e-04
    28   -3.453617129303e-02
    29   -3.635949392155e-02
    30   -3.859246667728e-03
    31    2.547330435839e-01
    32    2.682229351574e-01
    33    2.840715298954e-02
    34   -1.187078586605e-04
    35    7.623190756088e-03
    36   -8.655052730533e-03
    37    1.492596487671e-01
    38    7.631417367285e-03
    39   -5.208341460433e-01
    40    2.533389987646e-01
    41    4.015909282114e-02
    42   -5.767841661812e-02
    43   -1.558550053704e-03
    44    5.206893070936e-01
    45   -2.532837582337e-01
    46   -5.967530657235e-02
    47    3.715284428271e-02
    48   -6.204925565709e-04
Sym=X
Ene= 0.688652
Spin=Alpha
Occup=0
     1    4.387318454484e-05
     2    3.296534598142e-05
     3    9.207769564111e-04
     4    1.164432384076e-03
     5   -1.915447035002e-02
     6    2.344581703429e-06
     7   -3.416329208087e-06
     8    5.665485373675e-05
     9    3.220800377689e-02
    10    4.051411450234e-02
    11   -6.703913853935e-01
    12   -2.955576266747e-02
    13   -3.693416803062e-02
    14    6.127948068992e-01
    15   -1.333943465411e-03
    16    8.268554174708e-02
    17   -7.844600538500e-02
    18   -8.707244578897e-03
    19   -1.208281063960e-03
    20    3.843476472358e-05
    21    5.905881022769e-05
    22    9.167732540024e-04
    23    1.158563204837e-03
    24   -1.915130618468e-02
    25   -6.222104162780e-07
    26    3.171596221714e-05
    27   -7.765504512082e-05
    28    3.221240301063e-02
    29    4.050885778182e-02
    30   -6.708740366430e-01
    31   -2.951356917087e-02
    32   -3.687694298205e-02
    33    6.125177761120e-01
    34    1.320817241654e-03
    35   -8.251351167592e-02
    36    7.828491466466e-02
    37    8.698315992112e-03
    38    1.210017621763e-03
    39   -2.012028466755e-05
    40   -4.983747427095e-05
    41    8.801227027404e-04
    42    1.119940549259e-03
    43   -1.843801566838e-02
    44   -1.436383066965e-05
    45   -7.611381761356e-05
    46    8.768188254928e-04
    47    1.114966908704e-03
    48   -1.844392650885e-02
Sym=X
Ene= 0.704752
Spin=Alpha
Occup=0
     1   -4.801440980363e-01
     2    1.525657772984e-01
     3   -7.696616464387e-02
     4   -4.416102738769e-02
     5   -6.371384886738e-03
     6   -4.499861838712e-02
     7   -3.053571603109e-01
     8    4.613221769253e-01
     9    1.966577387701e-01
    10   -1.868019280778e-01
    11   -1.855945947888e-03
    12   -5.074465027611e-02
    13    4.833522258102e-02
    14    4.293227518374e-04
    15    1.887554887413e-01
    16   -2.026205232971e-02
    17   -2.379265606761e-02
    18    3.743981481517e-03
    19   -7.640141778957e-02
    20   -4.801871607983e-01
    21    1.527314953068e-01
    22    4.019204883439e-02
    23    7.909582734875e-02
    24    6.705172385311e-03
    25   -4.689777120073e-02
    26   -2.971049196727e-01
    27    4.655703638905e-01
    28   -1.950992528364e-01
    29    1.853306234282e-01
    30    1.804985113751e-03
    31    6.444674877188e-02
    32   -6.139779605169e-02
    33   -5.178839256949e-04
    34    1.934830413288e-01
    35   -2.067233831123e-02
    36   -2.430008980863e-02
    37    3.755923272968e-03
    38   -7.681517926739e-02
    39   -4.956495446269e-01
    40    1.751143790086e-01
    41   -4.047520074546e-02
    42   -8.137311264968e-02
    43   -6.853760805802e-03
    44   -4.956447843400e-01
    45    1.749314812131e-01
    46    7.923163266077e-02
    47    4.455797709987e-02
    48    6.499022079572e-03
Sym=X
Ene= 0.775751
Spin=Alpha
Occup=0
     1   -5.440393120226e-01
     2    4.784060183092e-01
     3   -1.090055926193e-01
     4   -2.700410314932e-02
     5   -6.870774367120e-03
     6   -8.975778690206e-02
     7    2.173237109758e-01
     8    5.827576295717e-01
     9   -1.013321849249e-01
    10    9.620510520134e-02
    11    9.096218517956e-04
    12   -2.934356514074e-01
    13    2.788259664377e-01
    14    2.774694986912e-03
    15    2.065311845932e-01
    16   -1.780929171598e-02
    17   -2.218836291428e-02
    18    2.514735776121e-04
    19   -8.738054651587e-03
    20   -5.439439160994e-01
    21    4.784898694583e-01
    22    2.143439948644e-02
    23    1.101772895129e-01
    24    7.686790591318e-03
    25    8.810605905241e-02
    26   -2.359657854273e-01
    27   -5.509434094366e-01
    28   -1.057386157716e-01
    29    1.003600433068e-01
    30    9.793078008821e-04
    31   -2.947118525798e-01
    32    2.801057739957e-01
    33    2.723054700843e-03
    34   -1.999036389574e-01
    35    1.710450507037e-02
    36    2.136704087353e-02
    37   -1.523882294751e-04
    38    6.580326301668e-03
    39    5.333369942465e-01
    40   -4.828031625669e-01
    41    2.043468603323e-02
    42    1.075833184074e-01
    43    7.476869489302e-03
    44    5.334135335288e-01
    45   -4.826533172611e-01
    46   -1.064561972447e-01
    47   -2.587679794246e-02
    48   -6.673995526354e-03
Sym=X
Ene= 0.807405
Spin=Alpha
Occup=0
     1   -1.008633160220e-05
     2   -3.121632615490e-05
     3   -1.523290104499e-03
     4   -1.922062297248e-03
     5    3.184533911126e-02
     6   -3.378739127767e-06
     7    3.257389821561e-05
     8   -1.678996926667e-05
     9   -3.674882278557e-02
    10   -4.617332956914e-02
    11    7.642355916611e-01
    12    5.407714200800e-02
    13    6.795840698963e-02
    14   -1.124631877169e+00
    15   -1.045663370894e-03
    16    6.537769286434e-02
    17   -6.202735565948e-02
    18   -6.878399466431e-03
    19   -9.582544900264e-04
    20   -1.179278337470e-05
    21    4.257828109204e-05
    22   -1.525587740491e-03
    23   -1.921836071104e-03
    24    3.183712912339e-02
    25    3.034656107663e-07
    26    2.510448538547e-05
    27   -1.182945565741e-05
    28    3.668443974397e-02
    29    4.613897549583e-02
    30   -7.642501302519e-01
    31   -5.397336550025e-02
    32   -6.783979110471e-02
    33    1.124105205147e+00
    34   -1.058434725008e-03
    35    6.538011903843e-02
    36   -6.202773457134e-02
    37   -6.897913271407e-03
    38   -9.637112023510e-04
    39    8.819060987406e-06
    40   -5.896869090188e-05
    41    1.487991983625e-03
    42    1.887748988494e-03
    43   -3.100823996891e-02
    44    6.883561207914e-06
    45    1.506375518973e-05
    46    1.482755828264e-03
    47    1.879701060768e-03
    48   -3.102040719457e-02
Sym=X
Ene= 0.858418
Spin=Alpha
Occup=0
     1    1.078395631315e-02
     2   -1.068206303751e+00
     3    1.446751377827e-01
     4    5.614327597351e-02
     5    1.033698830501e-02
     6    4.620072464298e-06
     7    4.506405275789e-07
     8    1.770834759882e-05
     9   -4.060962595880e-01
    10   -4.271695753046e-01
    11   -4.534984057878e-02
    12    9.281875954038e-01
    13    9.762912138611e-01
    14    1.036451871535e-01
    15   -2.223457293570e-04
    16    1.173767173755e-02
    17   -1.330222739382e-02
    18    2.295919863790e-01
    19    1.173626537916e-02
    20   -1.073977278076e-02
    21    1.068112714112e+00
    22    4.871364908102e-02
    23    1.472599240499e-01
    24    1.124409709122e-02
    25   -4.859981222336e-06
    26   -9.837730320261e-06
    27   -6.802387068243e-06
    28   -4.172674976330e-01
    29   -4.389299751011e-01
    30   -4.651495413875e-02
    31    9.462612408151e-01
    32    9.953364047005e-01
    33    1.054851598907e-01
    34    2.259519495544e-04
    35   -1.181412526139e-02
    36    1.339060613606e-02
    37   -2.311007066492e-01
    38   -1.181812223269e-02
    39    1.779567255799e-02
    40   -1.083078921108e+00
    41    4.840202459665e-02
    42    1.505188955785e-01
    43    1.142258785582e-02
    44   -1.784221027483e-02
    45    1.083168675371e+00
    46    1.479482833649e-01
    47    5.600209393811e-02
    48    1.047771046749e-02
Sym=X
Ene= 0.928023
Spin=Alpha
Occup=0
     1   -1.423105370638e-01
     2    1.246201296076e+00
     3   -1.846939381010e-01
     4    5.433699403358e-03
     5   -8.552245120665e-03
     6   -9.334967667973e-07
     7   -7.746212195413e-05
     8    1.428403757313e-04
     9    4.775866629431e-01
    10    5.023461507130e-01
    11    5.329628874273e-02
    12   -1.393756549608e+00
    13   -1.466087421225e+00
    14   -1.555394451165e-01
    15    1.283029234435e-04
    16   -6.640810599215e-03
    17    7.505600518191e-03
    18   -1.296034931991e-01
    19   -6.636674937964e-03
    20    1.422951681840e-01
    21   -1.246280086591e+00
    22    1.486158547139e-02
    23   -1.840846195914e-01
    24   -1.040475793323e-02
    25   -3.951159094224e-06
    26   -7.506546092040e-05
    27    1.196140171629e-04
    28   -4.702970100179e-01
    29   -4.947084331185e-01
    30   -5.246062775039e-02
    31    1.371846977249e+00
    32    1.443096278706e+00
    33    1.530302216004e-01
    34    1.331914339565e-04
    35   -6.215835736434e-03
    36    7.039313280752e-03
    37   -1.216450101018e-01
    38   -6.231101218522e-03
    39    1.410596500795e-01
    40   -1.216247796909e+00
    41   -1.529627215190e-02
    42    1.800531926442e-01
    43    1.013609379038e-02
    44   -1.410989640655e-01
    45    1.216181424740e+00
    46    1.806950564285e-01
    47   -6.071410547033e-03
    48    8.309814067519e-03
Sym=X
Ene= 0.970579
Spin=Alpha
Occup=0
     1   -5.897038979320e-02
     2    8.873481082275e-01
     3   -8.597938692945e-02
     4   -9.604693772463e-02
     5   -9.925063940078e-03
     6    2.685185404408e-02
     7    2.368205499236e-01
     8    5.403223016075e-01
     9    4.804748675280e-01
    10   -4.563212584357e-01
    11   -4.478539526609e-03
    12   -1.468577940661e+00
    13    1.394742821599e+00
    14    1.367462141764e-02
    15   -5.709496004420e-02
    16   -1.238291445191e-02
    17   -9.197532780785e-03
    18    1.512102171770e-02
    19   -2.950476364621e-01
    20   -5.899481772651e-02
    21    8.873531754016e-01
    22    9.157451320526e-02
    23    9.072663379957e-02
    24    9.887203655214e-03
    25   -2.729199010056e-02
    26   -2.688789208063e-01
    27   -4.875304278634e-01
    28    4.856502256329e-01
    29   -4.612153021133e-01
    30   -4.545017822408e-03
    31   -1.480639502738e+00
    32    1.406144069278e+00
    33    1.383812311724e-02
    34    5.877962912907e-02
    35    1.239118256973e-02
    36    9.154995141805e-03
    37   -1.525145183364e-02
    38    2.976170835460e-01
    39    6.047119522866e-02
    40   -9.057493942923e-01
    41    9.252336956355e-02
    42    9.391571751274e-02
    43    1.012775553632e-02
    44    6.045707770836e-02
    45   -9.057982183604e-01
    46   -8.912425414168e-02
    47   -9.716057347301e-02
    48   -1.013711522275e-02
[5D]

======= END OF MOLDEN-FORMATTED INPUT FILE =======


        *************************************************************
        *                                                           *
        *  Thank you very much for using Q-Chem.  Have a nice day.  *
        *                                                           *
        *************************************************************


